/*--------------------------------*- C++ -*----------------------------------*\
| =========                 |                                                 |
| \\      /  F ield         | OpenFOAM: The Open Source CFD Toolbox           |
|  \\    /   O peration     | Version:  2412                                  |
|   \\  /    A nd           | Website:  www.openfoam.com                      |
|    \\/     M anipulation  |                                                 |
\*---------------------------------------------------------------------------*/
FoamFile
{
    version     2.0;
    format      ascii;
    arch        "LSB;label=32;scalar=64";
    class       volVectorField;
    location    "2.2";
    object      flux;
}
// * * * * * * * * * * * * * * * * * * * * * * * * * * * * * * * * * * * * * //

dimensions      [0 1 -1 1 0 0 0];

internalField   nonuniform List<vector> 
5712
(
(-0.316194 0.513668 0.291207)
(-0.386331 0.282227 0.884827)
(-0.722754 0.894893 0.220866)
(-1.12878 0.585841 0.968077)
(-1.0914 0.861687 0.121068)
(-2.1297 0.732565 1.02562)
(-0.754695 1.27061 0.206569)
(-2.27124 1.5737 1.62509)
(-0.778771 1.93389 0.337578)
(-1.82151 2.44812 2.04082)
(-0.957582 1.0243 0.345929)
(-1.57436 0.899732 1.44754)
(-0.732746 0.630704 0.369167)
(-0.968708 0.434465 1.28635)
(-0.394121 0.416136 0.363809)
(-0.399931 0.236909 1.10495)
(-0.51304 0.854928 0.171057)
(-0.580113 0.771709 0.0929122)
(-0.704255 0.772528 0.515633)
(-0.638062 0.765205 0.243438)
(-0.489573 0.981553 0.159588)
(-0.736905 0.942137 0.0732832)
(-0.7306 1.13347 0.556003)
(-0.731359 0.975785 0.223743)
(-0.206888 0.302438 0.222699)
(-0.149811 0.21213 0.164029)
(-0.280573 0.157486 0.657501)
(-0.200565 0.108924 0.480314)
(-0.469141 0.44048 0.149284)
(-0.303932 0.284528 0.117339)
(-0.868197 0.244142 0.661367)
(-0.604913 0.158191 0.500356)
(-0.722875 0.868186 0.335327)
(-0.732389 0.919702 0.121897)
(-0.73338 0.779252 0.253995)
(-0.740549 0.635836 0.092178)
(-0.168289 0.630271 0.115917)
(-0.150788 0.491938 0.310937)
(-1.6836 0.53362 1.58899)
(-2.08212 0.509427 0.485596)
(-0.89537 0.713404 0.476997)
(-1.19522 0.700727 0.22042)
(-2.17143 1.45175 1.92939)
(-2.67222 1.59851 0.604897)
(-1.00555 1.04054 0.445137)
(-1.23745 1.09988 0.209207)
(-1.26049 0.74987 1.05185)
(-1.64813 0.590205 0.350664)
(-1.0042 0.765987 0.536107)
(-1.39127 0.537939 0.24439)
(-0.576974 0.325387 0.856012)
(-0.730884 0.280761 0.272193)
(-0.117811 0.242766 0.198656)
(-0.0372815 0.35988 0.107716)
(-0.153241 0.120735 0.349789)
(-0.0530677 0.163901 0.141461)
(-0.263539 0.321893 0.176681)
(-0.10834 0.480386 0.111674)
(-0.457365 0.202205 0.367247)
(-0.167779 0.276417 0.138554)
(-0.299722 0.328521 0.236724)
(-0.0995268 0.575728 0.150403)
(-0.303252 0.250495 0.230571)
(-0.085842 0.410607 0.0967592)
(-0.596625 0.0783684 0.410192)
(-0.173708 0.275883 0.148134)
(-0.782258 0.013725 0.161481)
(-0.245175 0.197509 0.059655)
(-1.00873 0.732742 0.501657)
(-0.576137 0.882014 0.377867)
(-0.853515 0.768624 0.304136)
(-0.58944 0.8729 0.272947)
(-1.03456 0.925753 0.560428)
(-0.666243 0.943109 0.491228)
(-0.821116 0.943294 0.30397)
(-0.664328 0.920081 0.324302)
(-0.660736 0.684311 0.282139)
(-0.476202 0.827251 0.242448)
(-0.724372 0.684381 0.368337)
(-0.457618 0.815803 0.315532)
(-0.829541 0.769961 0.226344)
(-0.612034 0.866059 0.194848)
(-0.85748 0.755454 0.131358)
(-0.62849 0.860073 0.112957)
(-0.805082 0.950122 0.225398)
(-0.68039 0.906587 0.224856)
(-0.836651 0.950112 0.128828)
(-0.69448 0.898899 0.129006)
(-0.682639 0.642425 0.216882)
(-0.505533 0.828459 0.170333)
(-0.736268 0.585916 0.126634)
(-0.524893 0.824594 0.0894831)
(-0.727689 0.704861 0.242349)
(-0.298325 0.753517 0.136442)
(-0.41441 0.887809 0.243522)
(-0.472399 1.24101 0.268507)
(-0.782207 0.737813 0.322487)
(-0.343655 0.868583 0.24551)
(-0.410054 0.882726 0.348722)
(-0.49314 1.35456 0.459475)
(-0.730329 0.667135 0.176905)
(-0.278672 0.668096 0.0757477)
(-0.434835 0.883195 0.156369)
(-0.466432 1.17906 0.161304)
(-0.755378 0.641287 0.100125)
(-0.280644 0.613807 0.03502)
(-0.457731 0.881942 0.0717247)
(-0.471065 1.14869 0.061949)
(-0.113872 0.178048 0.227631)
(-0.127928 0.224616 0.460223)
(-0.0400164 0.485033 0.166024)
(-0.0790792 0.789558 0.520763)
(-0.328404 0.213842 0.246156)
(-0.385234 0.239273 0.466134)
(-0.13469 0.600405 0.197902)
(-0.255654 0.88676 0.554289)
(-0.533697 0.255076 0.324336)
(-0.633603 0.265653 0.46275)
(-0.239865 0.734594 0.27438)
(-0.429499 1.001 0.564062)
(-0.701323 0.999832 0.358876)
(-0.370073 1.11253 0.430303)
(-0.708839 0.839472 0.27749)
(-0.84895 0.765976 0.278824)
(-0.426077 1.03858 0.340327)
(-0.271497 1.13403 0.283831)
(-0.434409 0.978672 0.313503)
(-0.495349 0.84038 0.432594)
(-0.862313 0.708126 0.50533)
(-0.546647 1.17392 0.740569)
(-0.400005 1.03939 0.383814)
(-0.523788 0.955632 0.310802)
(-0.579504 0.799543 0.296935)
(-0.559906 0.817672 0.376447)
(-0.697184 1.52736 0.598766)
(-0.126176 0.0642879 0.574239)
(-0.129488 0.0846678 0.556631)
(-0.0779678 0.172276 0.671352)
(-0.0832592 0.353757 0.67703)
(-0.374142 0.0912073 0.560381)
(-0.357611 0.126486 0.561841)
(-0.2402 0.22897 0.673311)
(-0.244154 0.413755 0.671062)
(-0.561007 0.137605 0.516603)
(-0.514913 0.132925 0.536926)
(-0.355083 0.307365 0.645505)
(-0.357179 0.49335 0.65295)
(-0.388281 1.10823 0.357407)
(-0.434293 1.11005 0.379687)
(-0.613809 0.917487 0.350111)
(-0.651145 0.88185 0.370226)
(-0.681979 0.770413 0.425539)
(-0.641915 0.688551 0.42703)
(-0.808555 0.560922 0.498387)
(-0.742968 0.498601 0.486204)
(-0.555974 0.431487 0.629898)
(-0.554484 0.640244 0.638372)
(-0.521934 0.979776 0.326052)
(-0.568808 0.888727 0.358395)
(-0.672991 0.902541 0.3692)
(-0.618273 0.850373 0.395284)
(-0.632695 0.759388 0.412754)
(-0.532402 0.704774 0.447104)
(-0.565343 0.651314 0.476192)
(-0.455374 0.577841 0.523981)
(-0.626358 0.513896 0.627181)
(-0.49996 0.702128 0.683383)
(-0.569545 0.925871 0.381513)
(-0.308901 0.986777 0.260379)
(-0.446779 0.957428 0.308785)
(-0.436238 1.05185 0.311268)
(-0.628167 0.936118 0.427051)
(-0.732936 0.866012 0.485842)
(-0.641402 0.948669 0.347265)
(-0.837175 0.910393 0.459161)
(-0.376399 0.83434 0.283677)
(-0.372473 0.844276 0.288385)
(-0.515614 0.823112 0.36091)
(-0.237487 0.818967 0.259138)
(-0.43098 0.973261 0.130499)
(-0.681123 1.07705 0.22471)
(-0.445084 0.965229 0.0533924)
(-0.726269 1.06569 0.0836974)
(-0.650541 0.960057 0.215068)
(-1.0256 0.947702 0.340379)
(-0.671783 0.948054 0.0842809)
(-1.04836 0.939701 0.127474)
(-0.364127 0.826371 0.10969)
(-0.597294 0.837683 0.197283)
(-0.376062 0.836229 0.0410025)
(-0.646484 0.843411 0.0719237)
(-0.44824 0.71426 0.270122)
(-0.335332 0.706446 0.230651)
(-0.572908 0.489805 0.276235)
(-0.259806 0.584375 0.173087)
(-0.486344 0.720468 0.3804)
(-0.185678 0.69587 0.271578)
(-0.542375 0.503963 0.432983)
(-0.135386 0.604306 0.289583)
(-0.46468 0.694561 0.126309)
(-0.478746 0.696291 0.147047)
(-0.599437 0.483835 0.157261)
(-0.309844 0.584995 0.0895377)
(-0.418552 0.700582 0.0972651)
(-0.551305 0.688415 0.106013)
(-0.55016 0.479136 0.108354)
(-0.393697 0.570912 0.0822616)
(-0.121495 0.0733418 0.483847)
(-0.113344 0.0601004 0.318587)
(-0.0982535 0.0445316 0.104229)
(-0.0784382 0.0409308 0.524091)
(-0.0769003 0.0353636 0.329827)
(-0.0674864 0.0348993 0.114035)
(-0.329506 0.109722 0.476364)
(-0.285296 0.0783347 0.311494)
(-0.250047 0.0614839 0.105967)
(-0.214559 0.0952611 0.523263)
(-0.180203 0.0854674 0.328847)
(-0.152707 0.0743345 0.111449)
(-0.43194 0.117069 0.454894)
(-0.36773 0.114008 0.292958)
(-0.337182 0.121585 0.0982024)
(-0.308833 0.172134 0.514122)
(-0.249803 0.150418 0.323713)
(-0.226727 0.138168 0.111322)
(-0.391123 1.06332 0.271904)
(-0.31908 0.951042 0.155355)
(-0.303832 0.872092 0.040605)
(-0.608472 0.884115 0.323225)
(-0.455602 0.832476 0.220709)
(-0.371632 0.78882 0.0717706)
(-0.546469 0.60328 0.371763)
(-0.402589 0.579601 0.261817)
(-0.313638 0.567223 0.0883378)
(-0.607292 0.426809 0.411635)
(-0.477945 0.406095 0.268159)
(-0.40388 0.39737 0.0879202)
(-0.468258 0.279843 0.497576)
(-0.319801 0.207756 0.313052)
(-0.239376 0.170298 0.110709)
(-0.731408 0.840546 0.299716)
(-0.597393 0.778326 0.164515)
(-0.532171 0.733006 0.0539439)
(-0.535459 0.837539 0.291187)
(-0.425818 0.783568 0.188553)
(-0.354236 0.751912 0.0655299)
(-0.471372 0.622984 0.327889)
(-0.355707 0.556472 0.216263)
(-0.280828 0.519891 0.0740374)
(-0.419969 0.447746 0.389566)
(-0.314981 0.39657 0.250214)
(-0.250848 0.373525 0.0855122)
(-0.451444 0.295678 0.472084)
(-0.271457 0.219501 0.275572)
(-0.169798 0.180008 0.0954523)
(-0.456979 1.13522 -0.0198117)
(-0.745988 1.17792 0.0396546)
(-0.387121 1.20748 0.0179497)
(-0.555583 1.10999 0.105797)
(-0.370543 1.10794 0.0713501)
(-0.764221 1.10856 0.0720826)
(-0.309948 1.32102 0.183949)
(-0.626459 1.1389 0.161071)
(-0.00760274 0.724789 0.0241152)
(-0.0691763 0.798088 0.0389419)
(0.00973406 0.722185 0.0255543)
(-0.0405251 0.712193 0.0408525)
(-0.142437 0.9618 0.0136218)
(-0.268625 0.846572 0.037753)
(-0.0892642 0.940365 0.0251164)
(-0.16205 0.743244 0.0553399)
(-0.073735 1.03693 0.075837)
(-0.157303 1.08265 0.045461)
(-0.439106 0.888067 0.152937)
(-0.65534 0.99776 0.108276)
(-0.348788 1.16491 0.0699879)
(-0.25866 1.0224 0.11518)
(-0.464917 1.15379 0.11732)
(-0.406399 1.19717 0.0331201)
(-0.623123 1.22138 0.235609)
(-0.666961 1.30833 0.0746846)
(0.0223438 0.992587 -0.165744)
(0.219775 1.01757 -0.0243499)
(-0.33482 0.862612 0.0267324)
(-0.235196 0.849652 0.0279894)
(-0.261251 0.986021 0.000902843)
(-0.150615 0.951643 0.00716985)
(-0.0635707 0.666725 0.412648)
(-0.04071 0.379658 0.181021)
(-0.0509404 0.62304 0.109506)
(-0.0311191 0.419961 0.0649421)
(-0.155995 0.64705 0.406524)
(-0.0504048 0.371713 0.183632)
(-0.0771491 0.599781 0.119477)
(-0.00913619 0.406647 0.076818)
(-0.398778 0.591405 0.393168)
(-0.120354 0.343882 0.201154)
(-0.299068 0.556804 0.161003)
(-0.092761 0.386334 0.114305)
(-0.339972 0.546754 0.12369)
(-0.102531 0.401316 0.0808701)
(-0.385244 0.524878 0.0693473)
(-0.127471 0.400733 0.062726)
(-0.48978 0.907504 0.52494)
(-0.48616 0.718117 0.458867)
(-0.381833 0.887607 0.230046)
(-0.48296 0.721574 0.294023)
(-0.740813 1.01394 0.588727)
(-0.669089 0.909174 0.549764)
(-0.607287 1.01496 0.286625)
(-0.637285 0.892614 0.343722)
(-0.28454 0.818799 0.209282)
(-0.375235 0.568535 0.252488)
(-0.33175 0.852345 0.445581)
(-0.345951 0.550647 0.367552)
(-0.358031 0.903332 0.146394)
(-0.48104 0.723045 0.191824)
(-0.37684 0.926757 0.084335)
(-0.48621 0.721061 0.111556)
(-0.580266 1.03771 0.191613)
(-0.626008 0.885916 0.223955)
(-0.601698 1.05445 0.110593)
(-0.631192 0.88139 0.128254)
(-0.251997 0.795707 0.119013)
(-0.38137 0.574962 0.166558)
(-0.244482 0.789386 0.0668142)
(-0.386801 0.574587 0.10135)
(-0.0344653 0.487148 0.186721)
(-0.0608875 0.335882 0.133022)
(-0.304097 0.431354 0.211852)
(-0.173496 0.273644 0.142989)
(-0.033465 0.450517 0.320938)
(-0.051743 0.300381 0.191827)
(-0.266061 0.404221 0.284895)
(-0.146868 0.250412 0.187827)
(-0.0342349 0.497857 0.111102)
(-0.054911 0.356225 0.0910232)
(-0.321674 0.443168 0.14706)
(-0.19115 0.286743 0.0982336)
(-0.0467321 0.500585 0.0624504)
(-0.0598755 0.369752 0.0574337)
(-0.325498 0.446122 0.0931236)
(-0.201853 0.294569 0.060754)
(0.00688059 0.107582 0.481393)
(0.0125151 0.058237 0.321186)
(-0.019465 0.200243 0.236105)
(-0.013678 0.112317 0.246038)
(0.0334404 0.111204 0.477168)
(0.0543769 0.0671901 0.319914)
(-0.0320495 0.202854 0.233461)
(-0.0220466 0.123881 0.24127)
(-0.0486103 0.121036 0.482179)
(-0.00699344 0.0897445 0.306887)
(-0.105143 0.200734 0.237795)
(-0.0929147 0.142654 0.224238)
(0.307529 0.544387 0.529165)
(0.156313 0.909889 0.511652)
(0.180013 0.352501 0.493439)
(0.117989 0.318673 0.379492)
(-0.00418436 0.225938 0.219264)
(0.283426 0.931546 0.311591)
(0.415521 0.600362 0.37504)
(0.196988 0.336461 0.396041)
(0.197637 0.298686 0.371566)
(-0.00340296 0.175386 0.260892)
(-0.374115 0.898268 0.442779)
(-0.274826 0.651175 0.396406)
(-0.227711 0.477215 0.328475)
(-0.23648 0.348564 0.265703)
(-0.141906 0.213217 0.173933)
(0.0210764 0.0416016 0.275203)
(0.0169278 0.0404434 0.273353)
(-0.00806501 0.0770624 0.276441)
(-0.012721 0.0722682 0.335467)
(0.0590248 0.0517745 0.273713)
(0.0659733 0.0405255 0.264338)
(-0.0228044 0.0935344 0.269999)
(-0.0315491 0.0853586 0.328049)
(0.0496253 0.073121 0.260562)
(0.0744319 0.0645085 0.249272)
(-0.0605508 0.113554 0.256422)
(-0.0741512 0.102052 0.31367)
(0.125042 0.946355 0.350037)
(0.0660618 0.90667 0.330993)
(0.323128 0.604148 0.325538)
(0.2301 0.553249 0.280077)
(0.172114 0.379205 0.24333)
(0.124169 0.365216 0.243937)
(0.15476 0.290042 0.23495)
(0.129042 0.278486 0.245342)
(-0.0158604 0.161355 0.223927)
(-0.0478499 0.146033 0.295508)
(-0.197043 0.825158 0.256883)
(-0.136289 0.710209 0.291133)
(0.0196899 0.602398 0.214456)
(0.0894917 0.519672 0.243973)
(0.0258013 0.450188 0.190673)
(0.0780289 0.410847 0.218179)
(-0.0187884 0.31814 0.186983)
(0.0253151 0.306289 0.224748)
(-0.0384443 0.197475 0.170189)
(-0.0551482 0.221599 0.27121)
(-0.163005 0.569248 0.189489)
(-0.18083 0.451688 0.151924)
(-0.389233 0.574069 0.129734)
(-0.247192 0.425383 0.0692557)
(-0.345103 0.725997 0.291438)
(-0.336984 0.538705 0.221489)
(-0.519451 0.735779 0.235512)
(-0.406563 0.528749 0.148821)
(-0.300198 0.467778 0.0987506)
(-0.185252 0.37784 0.0566178)
(-0.102411 0.463209 0.146189)
(-0.130705 0.403605 0.131878)
(-0.460876 0.592234 0.169016)
(-0.194702 0.4051 0.0734258)
(-0.494229 0.596645 0.0788029)
(-0.179354 0.409098 0.0433912)
(-0.596769 0.770741 0.220108)
(-0.391448 0.54202 0.125904)
(-0.634995 0.768104 0.0905404)
(-0.375679 0.545579 0.0623899)
(-0.361572 0.470556 0.137139)
(-0.135323 0.354382 0.0584858)
(-0.392879 0.477788 0.0699415)
(-0.117013 0.368609 0.0350909)
(-0.22972 0.333462 0.0834587)
(-0.188989 0.306047 0.0998087)
(-0.178568 0.218497 0.103609)
(-0.31312 0.293884 0.175223)
(-0.114707 0.338364 0.12595)
(-0.152713 0.321146 0.153812)
(-0.118844 0.222423 0.124872)
(-0.263731 0.290189 0.227642)
(-0.252844 0.332021 0.100486)
(-0.177184 0.297178 0.0731454)
(-0.215973 0.212266 0.0761228)
(-0.359189 0.306927 0.125613)
(-0.304495 0.349098 0.045475)
(-0.168161 0.299573 0.0181255)
(-0.253844 0.220952 0.016636)
(-0.356302 0.303416 0.0317191)
(0.0229248 0.0961385 0.21612)
(0.0303796 0.0769608 0.0991618)
(0.0356428 0.0603215 0.0285579)
(-0.00813337 0.359787 0.2328)
(0.00573751 0.176935 0.0621143)
(0.0079859 0.135708 0.0164242)
(0.0832065 0.0885387 0.210256)
(0.101246 0.0828101 0.103214)
(0.109353 0.0704446 0.032232)
(-0.0120008 0.37656 0.23112)
(0.0240792 0.205881 0.0639213)
(0.0294165 0.166045 0.0177231)
(0.100612 0.109253 0.191492)
(0.144368 0.115877 0.0947509)
(0.163215 0.116156 0.0244928)
(-0.0397476 0.395699 0.219876)
(0.0422543 0.253413 0.0591964)
(0.059388 0.222009 0.0134002)
(0.0366865 0.816122 0.223843)
(0.0587887 0.739564 0.122433)
(0.0530727 0.685365 0.0323067)
(0.17921 0.521087 0.187458)
(0.192847 0.489359 0.100726)
(0.179226 0.468294 0.028088)
(0.140224 0.376646 0.182882)
(0.165278 0.361289 0.0920285)
(0.160245 0.35293 0.0262933)
(0.148604 0.329358 0.179474)
(0.188123 0.31095 0.0851955)
(0.19512 0.302929 0.0198396)
(-0.0235407 0.454344 0.208505)
(0.0615149 0.330543 0.052284)
(0.0590626 0.295872 0.00891572)
(-0.160048 0.605324 0.248279)
(-0.0780014 0.543339 0.130669)
(-0.0444737 0.502011 0.0405133)
(0.0562501 0.459565 0.213399)
(0.105318 0.41899 0.116385)
(0.121077 0.395315 0.0383371)
(0.0656071 0.403078 0.192118)
(0.119223 0.362686 0.100945)
(0.132839 0.334019 0.0331676)
(0.0390355 0.384353 0.184067)
(0.104862 0.342413 0.0758391)
(0.118749 0.319935 0.0206097)
(-0.0743112 0.585595 0.217109)
(0.0417063 0.411432 0.0541387)
(0.0498716 0.375087 0.0172659)
(-0.00303497 0.204484 0.0699483)
(0.000302031 0.122733 0.0268416)
(0.00152676 0.0889885 0.012969)
(0.00317849 0.0814019 0.000721235)
(0.00434418 0.229267 0.0283764)
(0.00421558 0.132376 0.0114901)
(0.00494282 0.0925861 0.00601131)
(0.00496254 0.0835148 0.0012604)
(-0.00825455 0.198456 0.07232)
(0.000340141 0.120838 0.0287686)
(0.00413411 0.0887105 0.0154185)
(0.00842322 0.0823585 0.00318093)
(0.00994532 0.227616 0.034399)
(0.00967631 0.13273 0.0154446)
(0.0107313 0.0935685 0.00999552)
(0.0112519 0.084173 0.00466989)
(-0.0166492 0.187703 0.0829653)
(-0.00202144 0.118143 0.0343947)
(0.00438517 0.0895482 0.0201304)
(0.0129568 0.0812582 0.00642751)
(0.00174848 0.221295 0.0592824)
(0.00804625 0.133945 0.0304808)
(0.00943711 0.0961189 0.0172736)
(0.0127366 0.0829 0.00798009)
(0.00192711 0.232188 0.0439183)
(0.00525695 0.139451 0.0272935)
(0.00374913 0.0967842 0.0130632)
(0.0041741 0.0876161 0.00421265)
(-0.00648174 0.238759 0.0458083)
(-0.000396539 0.145335 0.0310523)
(0.00193415 0.100708 0.0179566)
(0.00453002 0.0909055 0.00991151)
(-0.0423807 0.199875 0.069424)
(-0.0126763 0.125209 0.0330015)
(-0.004861 0.0929193 0.017217)
(0.00728155 0.082418 0.0019582)
(-0.0635348 0.161284 0.0660991)
(-0.0201726 0.109745 0.0304351)
(-0.0123233 0.0866278 0.0180211)
(0.010164 0.0774897 -0.00122658)
(-0.035516 0.173049 0.0872193)
(-0.0095522 0.113195 0.036753)
(-0.0017753 0.0885924 0.0218121)
(0.0124758 0.0757765 0.00505136)
(-0.0517376 0.144496 0.0782192)
(-0.0161051 0.101801 0.0324457)
(-0.0106311 0.0828482 0.0202124)
(0.0102858 0.0737445 -0.00219979)
(-0.0391678 0.215797 0.052813)
(-0.012228 0.134021 0.0288239)
(-0.0046822 0.0963961 0.0149734)
(0.00612565 0.0865073 0.00205981)
(-0.0700909 0.171733 0.0515009)
(-0.0223754 0.115997 0.0268704)
(-0.0131183 0.0894521 0.0164456)
(0.0126241 0.0799091 0.00275136)
(-0.04166 0.22492 0.0394008)
(-0.0143432 0.140323 0.0250785)
(-0.00457336 0.0996517 0.0157009)
(0.00825163 0.088517 0.0090291)
(-0.0735634 0.17774 0.0360044)
(-0.0236922 0.120656 0.0224554)
(-0.0137938 0.0920591 0.0153604)
(0.0138572 0.0809207 0.0087181)
(-0.00302565 0.15448 0.0894806)
(-0.000167651 0.1065 0.0327284)
(0.000576299 0.0833545 0.015971)
(0.00283944 0.0768512 -0.00261777)
(-0.00263358 0.101471 0.0935206)
(-7.24351e-05 0.0871509 0.0318825)
(2.04622e-05 0.0760124 0.0178067)
(0.00298391 0.0708522 -0.00916568)
(-0.00827758 0.149635 0.0892153)
(-0.000681567 0.10481 0.0332047)
(0.00164758 0.083223 0.0173247)
(0.00754263 0.0768345 -0.00139391)
(-0.00455702 0.100701 0.0897878)
(0.000738786 0.0868843 0.0307827)
(0.000643515 0.07591 0.0177601)
(0.00814799 0.0712216 -0.00851242)
(-0.0289376 0.142173 0.0898375)
(-0.00734418 0.10224 0.0341505)
(-0.00153235 0.0832752 0.0200391)
(0.0115324 0.0763674 0.00061006)
(-0.0225041 0.103395 0.0804773)
(-0.0046427 0.0880676 0.0278845)
(-0.00151479 0.0760861 0.0176304)
(0.012995 0.0725485 -0.00605314)
(-0.0144842 0.134151 0.0835356)
(-0.00134218 0.0982245 0.0329472)
(0.00203469 0.0815959 0.022029)
(0.0128774 0.076006 0.00589813)
(-0.00975155 0.104197 0.0887644)
(-0.000263924 0.0882776 0.0315966)
(3.4886e-05 0.0773715 0.0226709)
(0.0126772 0.0726719 -0.00578973)
(-0.0438328 0.122525 0.0650404)
(-0.0124644 0.0939832 0.0256091)
(-0.00777437 0.0781695 0.0173808)
(0.0143979 0.0710118 0.00199856)
(0.00140286 0.0432961 0.0773497)
(0.00121931 0.0688221 0.0234116)
(0.000871568 0.0606563 0.013298)
(0.00238257 0.0189564 -0.00868236)
(0.00515907 -0.0249592 0.0304126)
(0.0023045 0.0586757 0.00831918)
(0.00136945 0.0530372 0.00406507)
(0.0014701 0.018153 -0.00202427)
(0.000791761 0.050015 0.0763825)
(0.00236064 0.07134 0.0237743)
(0.00162164 0.061746 0.0137036)
(0.00625774 0.0200201 -0.00774246)
(0.012554 -0.0147299 0.0309998)
(0.00595339 0.0616247 0.00877317)
(0.00339715 0.0539239 0.0045043)
(0.00388547 0.0184685 -0.00149732)
(-0.0037401 0.0608046 0.0717692)
(0.00170162 0.0751222 0.0232089)
(0.00165878 0.062765 0.0142809)
(0.00978955 0.0199207 -0.00598517)
(0.0168189 0.00107921 0.0298782)
(0.00854558 0.0663513 0.0088809)
(0.00508869 0.0549966 0.00504021)
(0.00595254 0.0185577 -0.000739064)
(-0.00501913 0.0757379 0.0604873)
(0.00220344 0.0797971 0.0199295)
(0.00209695 0.0643061 0.0137374)
(0.0129695 0.0212008 -0.00402764)
(0.017162 0.0192634 0.026346)
(0.0100162 0.0721336 0.00787991)
(0.00577424 0.0567742 0.0054088)
(0.00702859 0.0192328 0.000239964)
(-0.0139118 0.0965433 0.0530858)
(0.000366732 0.0860654 0.0186526)
(-0.000880932 0.067096 0.0133599)
(0.012565 0.0237031 -0.00137907)
(0.00895359 0.0371746 0.0237606)
(0.00893956 0.0775658 0.00800099)
(0.00441015 0.0585186 0.00607287)
(0.00648864 0.0197856 0.00162652)
(-0.0450234 0.110549 0.0416985)
(-0.00550651 0.0934348 0.0180599)
(-0.00524115 0.0688632 0.0109244)
(0.0117774 0.0221665 0.000770249)
(-0.0135407 0.0330896 0.0218535)
(0.00289163 0.0836241 0.011114)
(0.00126685 0.062215 0.00686658)
(0.00467059 0.0206007 0.00361086)
(-0.0296979 0.108619 0.044424)
(-0.0016428 0.0901796 0.0164237)
(-0.0034554 0.067329 0.0111466)
(0.0119915 0.0222708 -0.00029996)
(-0.00486241 0.03566 0.0216457)
(0.00598943 0.08132 0.00894726)
(0.00274595 0.0602131 0.00630894)
(0.00563218 0.0200705 0.00273747)
(-0.058058 0.10964 0.0370627)
(-0.0108465 0.095843 0.0193518)
(-0.00767354 0.0703513 0.0116851)
(0.0126693 0.0208765 0.00286782)
(-0.019375 0.028494 0.0221585)
(-0.000408413 0.0857538 0.013133)
(-0.000254459 0.0637788 0.00795523)
(0.00415286 0.020643 0.00490322)
(-0.0673038 0.109065 0.0289345)
(-0.0166063 0.0989618 0.018661)
(-0.010499 0.0731753 0.0124643)
(0.0124999 0.0215301 0.00741066)
(-0.024893 0.0347333 0.0205413)
(-0.00455555 0.0889389 0.0141454)
(-0.00217089 0.0659645 0.00943856)
(0.00348356 0.0212176 0.00696205)
(0.00126943 0.076385 0.000633571)
(0.000603368 0.0582032 0.000455603)
(0.000317553 0.0403896 0.00028993)
(0.000186367 0.0236475 0.000185646)
(0.000134133 0.00777491 0.000138164)
(0.00174076 0.0765929 0.000355031)
(0.000914896 0.0582752 0.000234659)
(0.000504504 0.0404393 0.000147293)
(0.000303149 0.0236748 9.47397e-05)
(0.000219976 0.00778343 7.10611e-05)
(0.00271415 0.0777505 0.00144022)
(0.00128295 0.0586844 0.000941321)
(0.000672297 0.0406097 0.000574383)
(0.000395724 0.0237469 0.000362292)
(0.000287118 0.00780353 0.000267876)
(0.00458669 0.077747 0.00149088)
(0.00248977 0.0588358 0.000919607)
(0.00139582 0.0407204 0.000545035)
(0.000849084 0.0238065 0.000339987)
(0.000620335 0.00782201 0.000250527)
(0.00386575 0.0785747 0.00335097)
(0.00184899 0.0592038 0.00213743)
(0.000985855 0.0408546 0.00128424)
(0.000587731 0.0238577 0.000808702)
(0.000429447 0.00783543 0.000598662)
(0.00659402 0.0781105 0.00657695)
(0.0035411 0.0596248 0.0039447)
(0.00200385 0.0411447 0.00233742)
(0.00122973 0.0240108 0.00146241)
(0.00090265 0.00788284 0.00107885)
(0.00223055 0.0807908 0.0067456)
(0.00116262 0.060703 0.00415351)
(0.000659503 0.041747 0.00249416)
(0.000406765 0.0243138 0.00157045)
(0.000299207 0.00797489 0.0011631)
(0.00125634 0.0822416 0.00729919)
(0.000631465 0.0617162 0.00436617)
(0.000349802 0.0423524 0.00259396)
(0.000214265 0.0246239 0.00162747)
(0.000156974 0.0080696 0.00120539)
(0.00342115 0.0807172 0.00441694)
(0.00154034 0.0602808 0.00285279)
(0.000825616 0.0414121 0.00173561)
(0.000497017 0.0241285 0.0010978)
(0.000362079 0.00791676 0.000810688)
(0.00078772 0.0828929 0.00347749)
(0.000229967 0.0605996 0.00224327)
(9.73769e-05 0.0414688 0.00136754)
(5.20632e-05 0.0241403 0.000868195)
(3.61935e-05 0.00791866 0.000642369)
(0.00504837 0.0792726 0.00459547)
(0.00253858 0.0597662 0.00285341)
(0.00141211 0.0411132 0.00170602)
(0.000862484 0.0239757 0.00107615)
(0.000632527 0.0078696 0.000796002)
(0.00140475 0.0823016 0.0035495)
(0.000566922 0.0602768 0.00201867)
(0.0002913 0.0412864 0.00118726)
(0.0001717 0.0240475 0.000747391)
(0.000123412 0.00788999 0.000550737)
(0.00120609 0.0817885 0.00492796)
(0.000331669 0.060886 0.00333246)
(0.000130993 0.0417744 0.00205118)
(6.81963e-05 0.0243156 0.00130283)
(4.71923e-05 0.00797429 0.000966317)
(0.00081718 0.0838678 0.00475949)
(0.000257275 0.0611932 0.00308041)
(0.000116504 0.0418199 0.00187719)
(6.57746e-05 0.0243212 0.00119021)
(4.69972e-05 0.00797443 0.000882024)
(0.00114938 0.0827712 0.00650824)
(0.000301687 0.0619453 0.0039872)
(0.000114001 0.0424303 0.00238041)
(5.84764e-05 0.0246539 0.00149561)
(3.92207e-05 0.008078 0.00110746)
(0.000585326 0.0850158 0.00624589)
(8.9484e-05 0.0622203 0.00384404)
(1.42944e-05 0.0424577 0.00229888)
(1.42319e-06 0.0246519 0.001445)
(-1.3415e-06 0.0080763 0.00106863)
(0.00103118 0.0762166 0.000305806)
(0.000455259 0.0581493 0.00036302)
(0.000229283 0.0403387 0.000241034)
(0.000130702 0.023618 0.000155559)
(9.28224e-05 0.00776562 0.000116127)
(0.000963518 0.0773095 1.88722e-05)
(0.000429134 0.0581826 0.000136078)
(0.000217001 0.0403122 9.47729e-05)
(0.000123758 0.0236005 6.23737e-05)
(8.78858e-05 0.00776006 4.7331e-05)
(0.00237208 0.0771259 0.0007834)
(0.00103239 0.0585368 0.000629086)
(0.00052136 0.040507 0.000396465)
(0.000298636 0.0236912 0.000252881)
(0.000213514 0.0077862 0.000188665)
(0.00223863 0.0781441 0.000119686)
(0.000974391 0.0585316 0.000196915)
(0.000494434 0.0404607 0.00013079)
(0.000283216 0.0236644 8.493e-05)
(0.000201551 0.00777799 6.45214e-05)
(0.00309042 0.0785026 0.00126575)
(0.00126267 0.0590566 0.000963195)
(0.000632348 0.0407262 0.000596735)
(0.000361229 0.0237866 0.000380876)
(0.00025852 0.00781307 0.000285468)
(0.00269981 0.079869 0.000723223)
(0.00119761 0.0590325 0.000503561)
(0.000621629 0.0406647 0.000298663)
(0.000359635 0.0237524 0.000185776)
(0.000258806 0.00780268 0.000139061)
(0.00364243 0.0805434 0.00385301)
(0.00179633 0.0596302 0.00236053)
(0.000990121 0.0409694 0.00139489)
(0.000599639 0.0238953 0.000881072)
(0.000439754 0.00784404 0.000655996)
(0.00180182 0.0816304 0.00192412)
(0.00087599 0.0595084 0.00117376)
(0.000472504 0.0408828 0.000685744)
(0.000278588 0.0238513 0.00043097)
(0.000203605 0.00783041 0.000321592)
(0.00210194 0.0817879 0.00487604)
(0.00108308 0.0599963 0.0025967)
(0.000609279 0.0411417 0.00148688)
(0.000374387 0.0239761 0.000926027)
(0.000275193 0.00786792 0.000682513)
(-0.0203776 0.342328 0.0981897)
(-0.0245935 0.529671 0.170393)
(-0.056135 0.360836 0.0925487)
(-0.0698559 0.544433 0.165306)
(-0.0858782 0.391581 0.0861325)
(-0.111733 0.568546 0.153777)
(-0.104319 0.428309 0.0839177)
(-0.147933 0.610904 0.147816)
(-0.104016 0.468884 0.0916999)
(-0.147358 0.683647 0.168989)
(-0.0939259 0.432558 0.0536721)
(-0.124224 0.533776 0.0786449)
(-0.0873225 0.444412 0.0746573)
(-0.105379 0.572307 0.118042)
(-0.106634 0.430203 0.0354633)
(-0.144486 0.527118 0.0470751)
(-0.110472 0.425098 0.0138009)
(-0.15077 0.525569 0.0188262)
(-0.019938 0.27473 0.290411)
(-0.0043653 0.0491851 0.0699147)
(-0.000949739 0.0108188 0.0160295)
(-0.000201429 0.00243122 0.00354979)
(-4.88821e-05 0.00042849 0.000888697)
(-0.00851776 0.326922 0.0773664)
(-0.00306335 0.0902834 0.0205086)
(-0.000337926 0.0219816 0.00549043)
(-9.57134e-05 0.00498533 0.00122939)
(-3.8262e-05 0.000870994 0.000273938)
(-0.0643867 0.281198 0.288233)
(-0.0142003 0.0485583 0.0684226)
(-0.00310757 0.0104836 0.0155712)
(-0.000664172 0.00233428 0.00342297)
(-0.000162358 0.000409062 0.000852979)
(-0.0220969 0.333697 0.0799364)
(-0.00470369 0.0908096 0.0232635)
(-0.000952993 0.0218245 0.00571683)
(-0.000185685 0.00488545 0.00132493)
(-3.96903e-05 0.000850538 0.000331697)
(-0.113411 0.292978 0.278162)
(-0.0251581 0.0487089 0.0648935)
(-0.00553778 0.0102536 0.0146069)
(-0.00119434 0.00225286 0.003186)
(-0.000294536 0.000392134 0.000789412)
(-0.0386411 0.346795 0.0776045)
(-0.00916255 0.0923263 0.0225076)
(-0.00202048 0.0217869 0.00548838)
(-0.000439699 0.00481916 0.00125898)
(-0.0001061 0.000832998 0.000312187)
(-0.162658 0.307181 0.261044)
(-0.0362854 0.0486665 0.0596949)
(-0.00806554 0.00998702 0.0133122)
(-0.00175956 0.00217283 0.00289223)
(-0.000439349 0.000377075 0.000715981)
(-0.0542063 0.363661 0.0746769)
(-0.0140317 0.0942365 0.0211689)
(-0.00331046 0.0218934 0.00505821)
(-0.000758144 0.00480718 0.00114159)
(-0.00019202 0.000828436 0.000279083)
(-0.226756 0.318975 0.228999)
(-0.0520344 0.0485526 0.0515581)
(-0.0118143 0.00989787 0.0114838)
(-0.00262482 0.00216426 0.0025042)
(-0.000666831 0.000377914 0.000624008)
(-0.0721657 0.379106 0.0695567)
(-0.021143 0.0958547 0.0188171)
(-0.00529152 0.022235 0.00439404)
(-0.00125208 0.00490794 0.000979221)
(-0.000325732 0.000850575 0.000237183)
(-0.30549 0.310022 0.128638)
(-0.0765292 0.0560745 0.0309124)
(-0.0183448 0.0126828 0.00712823)
(-0.00424274 0.00294621 0.00159013)
(-0.00111158 0.000532756 0.00040306)
(-0.0837113 0.349118 0.0354471)
(-0.0260204 0.0995162 0.00900809)
(-0.00672806 0.0249274 0.00195865)
(-0.00162131 0.0058178 0.000404338)
(-0.000428927 0.00104657 9.22403e-05)
(-0.278419 0.315345 0.179529)
(-0.0675897 0.0531465 0.0419377)
(-0.0158105 0.0114548 0.00949914)
(-0.00358542 0.00258008 0.00209308)
(-0.000924783 0.000457986 0.000526294)
(-0.081043 0.36194 0.0494238)
(-0.025438 0.0983377 0.0129241)
(-0.00656802 0.0236976 0.00295502)
(-0.00157909 0.00536623 0.000650425)
(-0.000414203 0.000945951 0.000156706)
(-0.318323 0.307217 0.0806456)
(-0.0808244 0.0580094 0.0198759)
(-0.019617 0.0134982 0.00464957)
(-0.00458742 0.00319968 0.00104732)
(-0.00121249 0.000586235 0.000266969)
(-0.0855322 0.345163 0.0226792)
(-0.0258351 0.100275 0.00589625)
(-0.00657636 0.0256539 0.00126114)
(-0.00156683 0.00610404 0.000247958)
(-0.000413279 0.00111405 5.39528e-05)
(-0.327888 0.305256 0.0296368)
(-0.0830116 0.0571833 0.00739084)
(-0.0202368 0.013364 0.00174262)
(-0.00475888 0.00319381 0.000395266)
(-0.00126436 0.000589048 0.00010131)
(-0.0855351 0.34292 0.0110226)
(-0.0259044 0.0994881 0.00260792)
(-0.00658835 0.0256291 0.000525352)
(-0.00145722 0.00614605 0.00014197)
(-0.000407452 0.00112793 2.0531e-05)
(-0.010004 1.42129 -0.0500652)
(-0.261403 1.97747 0.0249823)
(-0.256887 1.77045 0.167275)
(-0.145206 1.33691 -0.142878)
(0.147912 0.748169 0.0390493)
(0.203436 0.785257 0.0416506)
(0.409984 1.19197 0.104402)
(0.538944 1.19493 0.127346)
(0.232847 0.803843 0.0862817)
(0.470052 0.857996 0.139247)
(0.0904684 1.28064 0.11499)
(0.28404 1.7047 0.173728)
(0.230016 1.89219 0.10969)
(0.381801 2.56717 0.143297)
(0.419143 0.965018 0.0524557)
(0.578006 1.05937 0.0764736)
(0.505178 0.780422 0.0571597)
(0.574655 0.760632 0.0665645)
(0.288505 0.541283 0.0399306)
(0.326399 0.556252 0.0413742)
(-0.756223 0.165974 0.115055)
(-0.565351 0.118104 0.0906529)
(-0.177292 0.0323031 -0.0140035)
(-0.138196 0.0254749 -0.0362753)