/*--------------------------------*- C++ -*----------------------------------*\
| =========                 |                                                 |
| \\      /  F ield         | OpenFOAM: The Open Source CFD Toolbox           |
|  \\    /   O peration     | Version:  2412                                  |
|   \\  /    A nd           | Website:  www.openfoam.com                      |
|    \\/     M anipulation  |                                                 |
\*---------------------------------------------------------------------------*/
FoamFile
{
    version     2.0;
    format      ascii;
    arch        "LSB;label=32;scalar=64";
    class       volScalarField;
    location    "2.2";
    object      gradTy;
}
// * * * * * * * * * * * * * * * * * * * * * * * * * * * * * * * * * * * * * //

dimensions      [0 -1 0 1 0 0 0];

internalField   nonuniform List<scalar> 
5712
(
12841.7
7055.67
22372.3
14646
21542.2
18314.1
31765.3
39342.4
48347.2
61202.9
25607.6
22493.3
15767.6
10861.6
10403.4
5922.74
21373.2
19292.7
19313.2
19130.1
24538.8
23553.4
28336.9
24394.6
7560.94
5303.25
3937.15
2723.09
11012
7113.19
6103.56
3954.77
21704.6
22992.5
19481.3
15895.9
15756.8
12298.4
13340.5
12735.7
17835.1
17518.2
36293.7
39962.9
26013.4
27497
18746.7
14755.1
19149.7
13448.5
8134.66
7019.02
6069.16
8996.99
3018.37
4097.52
8047.32
12009.7
5055.11
6910.43
8213.04
14393.2
6262.36
10265.2
1959.21
6897.07
343.125
4937.74
18318.5
22050.3
19215.6
21822.5
23143.8
23577.7
23582.4
23002
17107.8
20681.3
17109.5
20395.1
19249
21651.5
18886.3
21501.8
23753
22664.7
23752.8
22472.5
16060.6
20711.5
14647.9
20614.8
17621.5
18837.9
22195.2
31025.2
18445.3
21714.6
22068.2
33864
16678.4
16702.4
22079.9
29476.4
16032.2
15345.2
22048.6
28717.1
4451.19
5615.41
12125.8
19739
5346.04
5981.83
15010.1
22169
6376.91
6641.32
18364.8
25025.1
24995.8
27813.1
20986.8
19149.4
25964.5
28350.7
24466.8
21009.5
17703.1
29348.1
25984.8
23890.8
19988.6
20441.8
38184
1607.2
2116.69
4306.9
8843.94
2280.18
3162.15
5724.24
10343.9
3440.12
3323.12
7684.12
12333.8
27705.7
27751.3
22937.2
22046.2
19260.3
17213.8
14023.1
12465
10787.2
16006.1
24494.4
22218.2
22563.5
21259.3
18984.7
17619.4
16282.8
14446
12847.4
17553.2
23146.8
24669.4
23935.7
26296.2
23403
21650.3
23716.7
22759.8
20858.5
21106.9
20577.8
20474.2
24331.5
26926.3
24130.7
26642.3
24001.4
23692.6
23701.4
23492.5
20659.3
20942.1
20905.7
21085.3
17856.5
17661.1
12245.1
14609.4
18011.7
17396.8
12599.1
15107.6
17364
17407.3
12095.9
14624.9
17514.5
17210.4
11978.4
14272.8
1833.55
1502.51
1113.29
1023.27
884.091
872.482
2743.04
1958.37
1537.1
2381.53
2136.68
1858.36
2926.72
2850.19
3039.62
4303.36
3760.45
3454.2
26583
23776
21802.3
22102.9
20811.9
19720.5
15082
14490
14180.6
10670.2
10152.4
9934.25
6996.08
5193.9
4257.45
21013.7
19458.2
18325.2
20938.5
19589.2
18797.8
15574.6
13911.8
12997.3
11193.7
9914.25
9338.14
7391.94
5487.53
4500.21
28380.4
29448
30187
27749.8
27698.5
27714
33025.4
28472.5
18119.7
19952.2
18054.6
17804.8
24045
21164.3
23509.1
18581.1
25923.1
27066.2
22201.7
24944
29122.6
25560.1
28844.6
29929.2
30534.6
32708.1
24814.7
25439.3
21565.3
21241.3
24650.5
23791.1
16668.1
9491.45
15576
10499
16176.3
9292.83
14994.5
10166.2
14785.1
8597.06
13920.1
9658.35
13668.9
10032.9
13121.9
10018.3
22687.6
17952.9
22190.2
18039.4
25348.4
22729.4
25374.1
22315.3
20470
14213.4
21308.6
13766.2
22583.3
18076.1
23168.9
18026.5
25942.7
22147.9
26361.3
22034.8
19892.7
14374.1
19734.6
14364.7
12178.7
8397.06
10783.9
6841.1
11262.9
7509.52
10105.5
6260.3
12446.4
8905.62
11079.2
7168.59
12514.6
9243.8
11153
7364.23
2689.55
1455.93
5006.09
2807.92
2780.09
1679.75
5071.35
3097.03
3025.9
2243.61
5018.35
3566.36
13609.7
22747.2
8812.52
7966.83
5648.44
23288.7
15009.1
8411.52
7467.16
4384.64
22456.7
16279.4
11930.4
8714.09
5330.41
1040.04
1011.08
1926.56
1806.7
1294.36
1013.14
2338.36
2133.97
1828.03
1612.71
2838.86
2551.3
23658.9
22666.7
15103.7
13831.2
9480.13
9130.41
7251.06
6962.15
4033.87
3650.82
20629
17755.2
15059.9
12991.8
11254.7
10271.2
7953.49
7657.22
4936.87
5539.97
14231.2
11292.2
14351.7
10634.6
18149.9
13467.6
18394.5
13218.7
11694.5
9446
11580.2
10090.1
14805.8
10127.5
14916.1
10227.5
19268.5
13550.5
19202.6
13639.5
11763.9
8859.55
11944.7
9215.22
8336.55
7651.18
5462.42
7347.1
8459.1
8028.66
5560.58
7254.73
8300.52
7429.44
5306.65
7673.17
8727.44
7489.33
5523.8
7585.4
2403.46
1924.02
1508.04
8994.67
4423.39
3392.71
2213.47
2070.25
1761.11
9414
5147.03
4151.12
2731.33
2896.94
2903.91
9892.47
6335.31
5550.22
20403.1
18489.1
17134.1
13027.2
12234
11707.3
9416.14
9032.23
8823.25
8233.94
7773.74
7573.23
11358.6
8263.57
7396.79
15133.1
13583.5
12550.3
11489.1
10474.8
9882.87
10077
9067.16
8350.49
9608.82
8560.32
7998.38
14639.9
10285.8
9377.18
5112.1
3068.33
2224.71
2035.05
5731.67
3309.41
2314.65
2087.87
4961.4
3020.96
2217.76
2058.96
5690.41
3318.24
2339.21
2104.32
4692.58
2953.58
2238.71
2031.45
5532.38
3348.62
2402.97
2072.5
5804.69
3486.27
2419.61
2190.4
5968.97
3633.39
2517.7
2272.64
4996.88
3130.23
2322.98
2060.45
4032.09
2743.62
2165.7
1937.24
4326.22
2829.86
2214.81
1894.41
3612.4
2545.03
2071.21
1843.61
5394.93
3350.52
2409.9
2162.68
4293.31
2899.92
2236.3
1997.73
5623.01
3508.07
2491.29
2212.92
4443.5
3016.41
2301.48
2023.02
3862
2662.51
2083.86
1921.28
2536.76
2178.77
1900.31
1771.31
3740.88
2620.25
2080.57
1920.86
2517.51
2172.11
1897.75
1780.54
3554.32
2556.01
2081.88
1909.18
2584.87
2201.69
1902.15
1813.71
3353.78
2455.61
2039.9
1900.15
2604.92
2206.94
1934.29
1816.8
3063.12
2349.58
1954.24
1775.3
1082.4
1720.55
1516.41
473.91
-623.98
1466.89
1325.93
453.826
1250.38
1783.5
1543.65
500.503
-368.247
1540.62
1348.1
461.713
1520.11
1878.05
1569.13
498.018
26.9803
1658.78
1374.91
463.942
1893.45
1994.93
1607.65
530.021
481.584
1803.34
1419.35
480.819
2413.58
2151.63
1677.4
592.579
929.364
1939.14
1462.96
494.64
2763.71
2335.87
1721.58
554.162
827.241
2090.6
1555.37
515.018
2715.48
2254.49
1683.23
556.771
891.5
2033
1505.33
501.763
2741.01
2396.07
1758.78
521.911
712.349
2143.84
1594.47
516.074
2726.63
2474.04
1829.38
538.253
868.333
2223.47
1649.11
530.439
1909.63
1455.08
1009.74
591.186
194.373
1914.82
1456.88
1010.98
591.87
194.586
1943.76
1467.11
1015.24
593.672
195.088
1943.67
1470.89
1018.01
595.163
195.55
1964.37
1480.1
1021.37
596.444
195.886
1952.76
1490.62
1028.62
600.271
197.071
2019.77
1517.57
1043.67
607.845
199.372
2056.04
1542.9
1058.81
615.597
201.74
2017.93
1507.02
1035.3
603.213
197.919
2072.32
1514.99
1036.72
603.507
197.967
1981.81
1494.15
1027.83
599.392
196.74
2057.54
1506.92
1032.16
601.188
197.25
2044.71
1522.15
1044.36
607.889
199.357
2096.69
1529.83
1045.5
608.031
199.361
2069.28
1548.63
1060.76
616.347
201.95
2125.4
1555.51
1061.44
616.299
201.907
1905.42
1453.73
1008.47
590.449
194.14
1932.74
1454.57
1007.8
590.013
194.001
1928.15
1463.42
1012.68
592.279
194.655
1953.6
1463.29
1011.52
591.609
194.45
1962.57
1476.41
1018.16
594.666
195.327
1996.73
1475.81
1016.62
593.811
195.067
2013.58
1490.75
1024.23
597.383
196.101
2040.76
1487.71
1022.07
596.281
195.76
2044.7
1499.91
1028.54
599.404
196.698
8558.2
13241.8
9020.89
13610.8
9789.52
14213.7
10707.7
15272.6
11722.1
17091.2
10814
13344.4
11110.3
14307.7
10755.1
13178
10627.5
13139.2
6868.24
1229.63
270.471
60.7805
10.7122
8173.05
2257.08
549.541
124.633
21.7748
7029.96
1213.96
262.09
58.3569
10.2265
8342.41
2270.24
545.613
122.136
21.2634
7324.45
1217.72
256.339
56.3216
9.80335
8669.89
2308.16
544.673
120.479
20.825
7679.52
1216.66
249.676
54.3209
9.42688
9091.51
2355.91
547.336
120.179
20.7109
7974.37
1213.81
247.447
54.1065
9.44785
9477.64
2396.37
555.875
122.699
21.2644
7750.55
1401.86
317.07
73.6552
13.3189
8727.95
2487.9
623.184
145.445
26.1643
7883.62
1328.66
286.369
64.502
11.4497
9048.49
2458.44
592.44
134.156
23.6488
7680.43
1450.23
337.455
79.9919
14.6559
8629.07
2506.86
641.349
152.601
27.8512
7631.4
1429.58
334.101
79.8454
14.7262
8573.01
2487.2
640.726
153.651
28.1983
35532.2
49436.7
44261.2
33422.7
18704.2
19631.4
29799.3
29873.3
20096.1
21449.9
32015.9
42617.6
47304.7
64179.2
24125.4
26484.3
19510.6
19015.8
13532.1
13906.3
4149.34
2952.59
807.578
636.872
761.577
654.372
793.761
4150.87
4246.42
2732.1
3648.43
3303.22
1557.66
2175.2
1900.83
1295.29
1466.64
1227.36
3611.26
2151.04
1391.02
1279.94
1563.28
1355.52
1066.05
1072.42
1009.54
908.092
1164.37
1092.09
3703.3
2394.82
2542.59
1788.61
1510.3
2097.25
1099.35
885.578
1219.04
8770.19
9192.57
9510.32
11790
20623.3
6656.52
7658.16
8411.37
9936.26
11695.4
2129.33
3053.5
3765.99
4258.84
4514.69
1689.55
2444.55
3035.12
3442.45
3651.49
2014.72
2901.82
3586.38
4052.81
4290.34
1735.82
2510.65
3114.82
3529.26
3740.85
2095.97
3011.33
3716.43
4199.51
4447.53
9185.75
9939.91
9943.86
11342.5
18639.9
9093.08
9530.08
9546.36
10407.5
12522.7
6331.2
7464.21
8044.95
8870.61
9759.08
7959.18
8584.21
8651.59
9072.37
10007.7
7307.46
8054.8
8126.98
8428.37
9018.91
3900.01
5183.96
6031.98
6628.33
6981.16
5193.23
6427.72
7119.08
7710.61
8178.01
4625.37
5875.99
6591.32
7099.87
7426.16
3315.74
4549.56
5409.69
5985.32
6292.12
3697.12
4957.59
5790.59
6347.82
6654.77
3160.45
4372.26
5226.47
5790.02
6081.85
8186.34
9186.11
9463.87
11069.4
18331
5198.35
6530.27
7368.27
8247.6
9001.65
3540.45
4820.22
5714.57
6346.75
6708.64
3286.32
4532.47
5429.53
6065.57
6423.34
3930.23
5254.72
6172.05
6889.19
7352.81
3469.27
4759.67
5691.34
6381.96
6782.51
2774.9
3904.88
4753.99
5357.32
5683.94
2793.06
3933.02
4782.78
5372.46
5686.26
2640.65
3739.15
4554.64
5100.31
5378.43
2387.18
3406.06
4176.85
4698.42
4964.95
3013.45
4202.41
5062.69
5644.02
5949.95
2841.07
3993.12
4843.62
5425.07
5731.44
8131.85
8877.05
9232.29
11200.2
18984.4
5622.96
6843.35
7713.92
8924.88
10139.8
6380.54
7870.05
8534.23
9967.91
11523
4456.43
5849.5
6824.33
7744.56
8372.97
3834.22
5185.54
6150.04
6922.93
7390.74
5161.81
6545.22
7400.48
8383.34
9048.38
2857.64
4012.9
4874.38
5481.26
5809.07
2328.29
3323.7
4081.02
4599.06
4866.53
3144.89
4367.29
5260.17
5893.56
6244.25
19027
12385.3
20169.6
15219.2
24383.4
34474
25994.5
35926.2
21087.8
20665.8
18617
19331.7
22269.6
22136.2
27332.6
23464.4
14601.5
12790.4
6533.71
5157.19
17028.8
13546.1
9060.12
6054.46
21921.2
24142.8
20119.4
17935.5
20938.3
13998.4
13190.4
12737.7
17872.2
17529.3
36190.7
39976.4
25596
27390.4
19184
14875.8
19658.8
13549.7
8553.48
7098.44
13414.6
16044.2
5432.56
6561.73
14388.6
17945.8
7313.75
9217.13
12574.4
18242.1
7866.48
12044.5
2227.22
7528.08
361.66
5060.91
18708.3
20577.6
18975.7
21025.2
21634.4
21556.9
22625.1
21888.7
17588.4
20339.8
18852
19761.6
19080.4
21242.2
18826.3
21368.2
23267.9
22096.2
23614.7
22289.3
16192.7
20527.7
14662.4
20552.1
18176.3
19899.6
22308.7
31376.8
19400.8
23719.2
22318.3
34617.5
16929.9
17183.1
22117.1
29628
16097.6
15473.9
22054.4
28759.9
17912
20443.8
23539.7
33178.5
17102
18483.5
24305
32935
14946.2
15456
24482.2
31606.5
18903.7
20844
19279.8
19689.6
28899.6
20448.9
17846.7
20318
18260.4
32889.6
20680
19667.6
18226.5
20859.1
39629.9
12963.2
12455
10752.5
13441.2
12626
12254.8
10978.7
13930.9
11615.7
10616.3
10855.2
14020.6
20066.3
19543.3
17350.7
16614.5
18515.3
17074.8
14625.2
13054.2
12045.5
15993.1
19952.5
18726.9
18998.5
18574.1
17321.9
16197.6
16273.1
14096.6
12978.1
16556.4
21203.2
22874.1
22826.8
25185.8
21158.1
19938
22488.6
21783.8
20179.2
20354.3
19435.4
19282.1
23796.2
26412.6
23970
26489.4
23418.1
23257.1
23528.4
23363.6
20313.3
20558.9
20799.9
20973
17561.5
17233.6
12165.7
14390.3
17637.3
16790.1
12580.1
14775.6
17191.9
17167.9
12029.8
14490.4
17456.1
17133.8
11952
14225.5
12083.7
13073.1
4652.93
4779.23
11773.1
11884.5
5338
5556.47
9514.62
9282.42
5824.51
5670.35
19071.2
18150.1
17117.3
16927.9
15293.2
14827.3
11219.4
10322.7
7353.78
5723.25
18621.1
17853.7
19332.3
18401
14698.7
13431.6
10996.1
9857.87
6686.02
5204.65
23728.9
23727.4
27956
25070.5
25104.5
24284.2
32786.9
26978
19349.6
15212.2
20686.6
16288.7
20230
15263.3
21550.6
16256.3
22368.7
20719.4
19674.5
19130.4
20940.8
22202.4
27529.9
29534.6
29729.4
32462.6
23121.5
24907.9
20451.9
20926.1
22888.4
23266.6
12764.1
10218.6
13761
10597.8
12419.9
9939.17
13411.4
10273.9
11801.3
9155.79
12660.1
9671.42
12933.2
9964.59
12902.6
9984.46
18659.2
16675
20282.1
17160.7
22124.1
20513
23790.6
21058.1
18546.6
13838.9
17322.4
13500.6
21649.6
17578.9
22889.5
17860.1
25154.5
21493.3
26128.4
21822.3
18974.9
14114.1
19470.2
14269.7
11700.1
8693.04
10909.2
7261.89
11015.5
8409.32
10679
7166.03
12107.5
8987.73
11081.2
7364.91
12394.5
9251.32
11149.5
7436.05
11156.6
11653.3
9480.08
9141.25
10657.6
11290.5
9136.29
8803.61
9990.27
10470.5
8291.92
7891.64
16570.2
20612.9
14618.4
10313.6
8000.79
20073
17690.6
16163.9
10517.6
7553.73
20083.4
16546.9
13443.5
10793.9
7180.46
13413.6
16160.4
9815.53
11315.5
12624.5
14611.5
9193.37
10407.4
11227.4
12366.7
7796.87
8177.34
19463.3
18199.4
15959
15022.4
14752.1
15340.6
10883
11733.7
7419.35
7538.97
18123.8
15640
14952.8
13011.4
12758.1
12035.1
10298.5
10354.3
6831.6
7782.03
13840.6
11355.2
14098
10738.4
16709.4
12654
17579.3
12839.6
11901.2
9893.97
12036.7
10898.6
14632.5
10170.6
14853.8
10235.1
18850.2
13378.4
19074.2
13589.2
11800.9
9031.44
11925.1
9249.27
8769.5
8270.88
5958.37
8167.87
9416.36
9254.76
6593.91
8793.69
8460.21
7690.33
5531.59
8093.41
8783.19
7574.27
5617.08
7721.09
21343.9
22479.4
26666.9
22153.5
18512.1
19543.5
24983.3
20870.4
15075.6
15864.6
21592.2
18374.5
17010.4
16141.7
14871.9
14660.7
16144
16406.1
13857.9
13566.2
20386.3
17745.6
13472.9
13013.2
11975.1
11989.1
12406.2
12335.1
13255.8
12847.4
21550.6
17927.4
6518.21
4035.22
2817.97
2481.78
6719.85
4122.51
2855.63
2508.39
6244.33
3923.5
2758.41
2472.02
6536.08
4030.38
2807.32
2472.74
5788.3
3755.86
2703.24
2377.16
6161.49
3920.52
2795.24
2371.97
6165.95
3848.21
2700.68
2410.17
6086.19
3757.8
2610.98
2349.48
5572.25
3592.74
2634.31
2311.15
4542.12
3144.5
2418.25
2141.22
5291.33
3503.98
2617.26
2191.21
4449.63
3151.69
2417.44
2094.67
5698.56
3617.71
2599.01
2321.31
4569.3
3125.97
2396
2138.86
5713.24
3597.86
2559.18
2270.03
4534.14
3090.39
2357.77
2071.6
6087.79
3858.3
2754.06
2394.97
5394.68
3584.19
2648.9
2258.07
5768.97
3753.69
2709.77
2367.51
5086.9
3499.42
2611.66
2251.66
5300.52
3590.37
2653.73
2313.44
4664.32
3369.25
2541.73
2246.67
4808
3345.79
2517.66
2230.07
4352.86
3239.46
2481.88
2178.25
4301.89
3141.58
2389.51
2042.7
4179.88
3226.48
2220.61
641.413
2027.31
2986.92
2037.13
642.565
3995.62
3190.64
2214.18
666.356
2000.74
2958.08
2026.01
643.959
3723.82
3111.38
2164.29
643.218
1928.43
2899.8
1984.18
628.556
3695.97
3043.7
2144.64
671.109
2071.75
2847.18
1951.28
628.092
3723.51
2965.96
2127.95
723.477
2178.94
2764.57
1902.27
621.068
3205.76
2725.63
2032.34
669.456
1086.21
2465.42
1806.76
596.326
3518.66
2849.8
2078.28
684.316
1479.54
2614.07
1849.88
605.682
2951.48
2612.44
1956.37
599.677
793.378
2348.87
1746.34
567.173
2778.45
2542.22
1895.92
564.906
880.374
2287.09
1698.94
547.506
2262.15
1666.23
1127.33
649.645
211.986
2244.14
1659.96
1125.2
648.822
211.759
2280.32
1663.41
1123.82
647.552
211.315
2241.41
1652.78
1119.86
645.888
210.842
2275.64
1658.87
1119.64
645.137
210.546
2194.65
1637.28
1110.61
641.109
209.385
2176.22
1609.13
1095.22
633.623
207.157
2114.78
1578.67
1079.1
625.781
204.821
2231.67
1634.78
1106.53
638.67
208.61
2287.84
1642.75
1107.62
638.764
208.595
2258.67
1652.65
1114.81
642.492
209.719
2328.77
1654.14
1112.64
641.069
209.261
2189.07
1613.98
1096.35
633.895
207.21
2237.07
1621.66
1097.68
634.143
207.247
2117.84
1579.73
1078.57
625.305
204.664
2172.95
1587.86
1080.14
625.717
204.765
2290.58
1675.05
1129.97
650.597
212.242
2357.47
1683.28
1131.76
651.179
212.395
2303.35
1674.52
1127.74
649.124
211.754
2369.49
1683.14
1129.91
649.927
211.979
2323.13
1673.02
1124.45
647.088
211.091
2396.79
1682.02
1126.9
648.052
211.366
2353.69
1668.47
1119.97
644.61
210.306
2415.74
1675.11
1122.33
645.654
210.603
2357.02
1661.64
1116.16
642.714
209.733
10917
14610.5
10883.1
14585.5
10925.1
14591.4
11309.1
15202.7
11831.4
16537.5
10780.9
13221
11113.1
14096.3
10721.7
13101.4
10615.5
13114.6
7828.14
1356.31
292.488
64.9538
11.3687
9059.43
2466.72
593.172
133.204
23.1186
7827.52
1318.87
280.497
61.8878
10.7861
9047.4
2443.99
582.547
129.467
22.4255
7859.86
1289.65
269.409
58.911
10.2224
9092.43
2425.29
571.06
125.921
21.7069
7962.2
1255.16
257.175
55.9066
9.69424
9249.91
2415.41
562.609
123.583
21.288
8051.73
1226.26
250.508
54.8608
9.58585
9430.07
2412.47
562.376
124.41
21.5793
7726.59
1398.06
316.644
73.6599
13.3323
8675.98
2478.71
622.079
145.415
26.1855
7881.97
1329.15
287.079
64.7849
11.5126
8987.06
2454.84
593.642
134.733
23.7809
7658.08
1446.37
336.809
79.9044
14.6487
8592.98
2498.99
639.936
152.401
27.8324
7622.96
1428.07
333.822
79.7993
14.7207
8560.61
2484.33
640.157
153.556
28.1868
35099.3
49314.5
43992.3
32139
24058
28551.9
23885.3
28581.8
26824.7
41661
28921.4
45318.7
203.143
219.465
255.876
314.101
395.164
500.456
216.945
233.126
268.974
325.577
404.148
506.574
191.88
186.252
208.475
202.801
245.987
240.516
307.82
304.509
394.464
397.547
509.147
525.203
630.438
800.927
1041.22
1405.77
1766.46
2057.07
636.111
799.719
1004.9
1246.26
1470.18
1619.81
543.944
798.063
1002.88
1146.34
1220.21
587.433
861.404
1081.93
1236.23
1315.6
684.477
1002.75
1258.31
1436.77
1528.47
839.404
1227.86
1538.64
1755.08
1866.15
1054.46
1538.96
1924.61
2192.38
2329.62
1332.37
1937.98
2416.8
2748.33
2918.29
580.751
851.769
1070.05
1222.85
1301.48
623.814
914.369
1148.03
1311.41
1395.41
719.236
1053.09
1320.86
1507.71
1603.69
869.635
1271.17
1592.01
1815.35
1929.96
1077.74
1571.53
1964.09
2236.69
2376.54
1347.57
1958.01
2440.17
2774.48
2946.3
513.831
754.028
947.747
1083.51
1153.42
498.767
731.974
920.125
1052.02
1119.94
558.102
818.611
1028.46
1175.37
1250.97
542.935
796.453
1000.76
1143.83
1217.45
658.156
964.516
1210.73
1382.75
1471.17
643.569
943.293
1184.3
1352.74
1439.32
822.809
1204.02
1509.23
1721.86
1830.95
814.036
1191.38
1493.64
1704.24
1812.28
1052.8
1536.96
1922.46
2190.01
2327.03
1061.03
1548.97
1937.4
2206.83
2344.72
1355.63
1971.96
2458.92
2795.5
2967.71
1398.08
2032.9
2533.62
2878.93
3055.26
1672.29
2419.64
3005.25
3410.5
3619.23
2111.22
3027.74
3737.22
4231.59
4490.39
2712.66
3827.03
4675.08
5284.15
5618.35
3583.01
4901.08
5882.59
6660.14
7139.97
4378.07
5776.6
6815.62
7769.81
8472.56
4986.25
6390.59
7442.73
8554.49
9471.32
1685.84
2436.54
3024.67
3432.96
3644.24
2107.3
3021.47
3730.58
4226.8
4487.92
2625.22
3719.93
4559.54
5159.87
5487.01
3217.34
4486.53
5449.83
6169.12
6585.54
3747.48
5140.63
6193.63
7026.15
7545.73
4092.54
5551.33
6655.18
7569.45
8170.45
206.082
228.408
271.39
337.011
426.327
540.558
219.945
242.224
284.569
348.169
434.095
543.74
194.75
189.078
217.287
211.506
261.45
255.87
331.142
327.93
426.964
430.487
553.252
572.473
678.598
854.321
1093.71
1445.78
1789.67
2063.99
679.169
845.698
1048.83
1281.72
1492.72
1627.42
551.826
809.689
1017.6
1163.27
1238.29
611.501
897.011
1127.06
1288.18
1371.13
726.266
1064.68
1336.95
1527.44
1625.46
901.231
1319.76
1655.71
1890.42
2011.11
1138.8
1664.91
2085.83
2379.47
2530.46
1441.35
2101.82
2627.92
2994.66
3183.54
588.811
863.684
1085.16
1240.25
1320.08
648.321
950.677
1194.12
1364.53
1452.22
761.279
1115.48
1400.2
1599.3
1701.71
930.646
1361.96
1707.8
1949.34
2073.56
1158.82
1692.69
2119.3
2416.92
2570.09
1448.57
2109.85
2635.85
3002.83
3192.21
521.534
765.389
962.117
1100.02
1171.05
506.352
743.157
934.26
1068.25
1137.26
581.797
853.626
1072.79
1226.36
1305.43
566.334
831.009
1044.49
1194.1
1271.13
699.782
1026.14
1288.91
1472.83
1567.47
684.887
1004.43
1261.82
1442.01
1534.73
885.73
1297.5
1628.27
1859.42
1978.27
877.216
1285.24
1613.13
1842.29
1960.11
1140.8
1668.46
2090.89
2385.56
2537.02
1150.3
1682.57
2108.78
2406.07
2558.82
1475.64
2152.7
2692.25
3068.17
3261.58
1527
2227.78
2786.15
3174.96
3374.87
1804.01
2619.62
3265.47
3716.52
3950.21
2258.89
3255.66
4038.46
4590.31
4881.12
2861.06
4063.12
4995.6
5674.1
6048.32
3702.11
5102.05
6168.27
7021.24
7547.23
4452.6
5910.97
7014.6
8031.28
8776.95
5010.48
6437.06
7513.97
8651.64
9587.56
1803.5
2614.97
3256.62
3705.55
3938.95
2234.02
3216.14
3986.82
4530.97
4818.67
2747.95
3912.16
4817.13
5470.12
5827.22
3318.53
4649.42
5673.3
6443.62
6890.14
3813.4
5249.73
6346.6
7217.73
7761.24
4115.21
5589.59
6709.63
7638.63
8249.07
4135.03
2954.34
872.046
691.779
841.93
720.469
869.036
3893.41
3795.13
2679.23
3173.5
1625.41
2144.71
1392.8
1561.71
1322.98
3513.92
2184.94
1476.29
1367.14
1636.92
1430.1
1133.51
1156.71
1124.28
1012.02
1263.49
1186.63
3666.11
2411.07
2538
1830.74
1570.9
2133.48
1175.82
971.878
1302.57
8769.2
9238.03
9603.7
11971.7
20989.3
6676.72
7712.75
8505.02
10080.5
11884.4
2308.31
3331.39
4135.35
4700.53
4996.86
1839.92
2673.43
3333.76
3794.44
4032.65
2237
3245.33
4041.33
4595.6
4882.26
1917.08
2787.11
3476.43
3956.47
4204.15
2304.86
3335.5
4147.15
4714.46
5009.63
8995.83
10394.4
11095.5
13374
22389.4
8832.26
10324.6
11290
13347.8
17015.8
6454
8084.24
9232.51
10669.5
12056.7
7850.08
9695.35
10700.6
12274.9
14405.7
4180.89
5789.62
6999.73
7930.39
8501.94
5355.84
7078.86
8314.3
9442.54
10305.8
3633.38
5136.06
6287.31
7121.99
7589.3
4040.15
5642.21
6854.25
7759.02
8290.91
3466.05
4929.31
6056.28
6860.98
7300.17
8154.65
9520.51
10220.6
12361.9
20732.1
5394.9
7018.41
8198.88
9428.29
10438.9
3823.71
5351.5
6516.7
7392.69
7907.47
3555.32
5005.37
6119.09
6946.29
7421.18
4182.18
5738.92
6915.46
7874.33
8495.56
3698.73
5161.83
6277.66
7132.51
7633.99
2968.52
4218.96
5187.23
5890.39
6275.15
3036.97
4332.98
5339
6060.14
6450.94
2967.91
4266.47
5279.04
5989.71
6364.67
2678.08
3863.25
4791.99
5442
5782.25
3313.68
4720.41
5808.05
6585.76
7009.46
3118.02
4453.97
5491.12
6230.75
6630.38
8146.37
9043.45
9550.71
11748.7
20074.1
5699.98
7014.1
7989.64
9317.62
10627.6
6480.26
8195.62
9115.29
10855.9
12663.7
4598.87
6118.37
7233.87
8291.2
9006.4
4025.34
5527.28
6654.74
7577.26
8137.55
5336.63
6941.87
8052.65
9301.94
10144.4
3079.39
4377.31
5382.06
6110.09
6509.11
2570.34
3704.98
4594.43
5219.3
5547.64
3395.39
4795.1
5872.75
6666.8
7114.35
9045.66
8425.64
7443.02
6186.65
4500.05
1757.85
19095.1
20324.5
21783.2
22421.9
20606.5
20872.7
20985.4
21539.2
16636.9
19041.1
18840.9
19019.4
25103.2
17447.7
27203.3
18010.8
19304.4
20482.8
20721.5
19829.3
21042.6
20084.9
21238
17170.1
25213.1
19350.7
24538.5
26000
21234.2
31406.2
16797.3
17912.9
18667.7
18540
18728.1
20437
18756.3
20540.8
19388.6
24388.5
21761.6
24040.3
27160
23822.6
30214.1
15613.5
16647.6
16939.7
16603
17755.1
20021.4
17409.5
19765.7
17639.6
22475
19660.7
21367.6
23937.1
21057.8
27210.7
14440.1
15498.4
15582.2
15188
16882.1
19555.9
16087.1
18354
15648
18311.4
17693.7
17143.4
20912
17870.2
21941.4
13315.6
14347.8
14496.3
14093.7
15497.4
17676.2
15002.7
16951.1
13518.8
14786.8
15472.1
14353
18410.5
15098.7
19169.2
22076.6
22215.4
22929
23935.7
22817
23505.9
21998.9
22818.5
19017.9
12203.6
20171.4
12041.5
20284.1
16775
17313.2
21124.7
21571.8
21330.8
21835.7
22194.7
22972.7
20836.7
21824.7
16944.4
12203.7
17729.9
11917.2
17580
15817.7
16064.9
18578.1
19049.6
19107.4
19157.7
19820.2
20481.1
19107.9
20438.6
15664
12913.5
16567.9
12305.3
17070.1
14322.5
16634.4
16125.3
16747.5
17035.7
16802.3
17731
18415.3
17562.9
19014.3
13846.2
13922.1
14816.7
13081.5
15456.9
13028.4
17478.1
14493.9
15254.8
15519.7
15202.5
16381.7
17622.4
16073
17415.7
12901.9
15315.2
14274.3
15177.9
15610
14304.6
19796.1
13054.4
13914.1
14359.7
14004.6
15523
17227.6
14929.7
16499.3
12561
16489.3
14376.6
17121.7
16310.3
15055.3
21975
12558.4
6770.26
22355.6
14604.2
21537.8
18299.3
31759.7
39331.4
48342
61186.2
25613.4
22483.4
15773.6
10840.7
10051.4
5596.82
21368.4
19290
19307.7
19127.7
24535.2
23551.2
28332.1
24392.4
7386.04
5212.27
3813.95
2667.69
11003.8
7106.64
6104.31
3959.22
21699.6
22986.4
19478.5
15893.7
15753.3
12299.3
13338.8
12735.1
17833.9
17517.5
36291.7
39961.7
26012
27496
18746.3
14755.3
19149.1
13448.2
8134.63
7019.03
5964.13
8822.72
2951.36
3988.96
8051.55
12020.3
5064.61
6923.41
8215.57
14398.4
6266.09
10269.9
1959.74
6898.78
343.123
4938.3
18317.2
22049.6
19214.6
21821.9
23142.5
23576.9
23581.2
23001.4
17107.6
20681.1
17108.6
20394.7
19248.3
21651.1
18885.8
21501.5
23752.1
22664.1
23752
22472
16060.4
20711.4
14647.7
20614.8
17622.1
18839.9
22195.7
31026.2
18445.8
21717.1
22068.7
33865.3
16678.8
16703.6
22080.2
29477.2
16032.5
15346
22048.9
28717.8
4394.5
5571.91
11954.1
19585.7
5355.11
5991.78
15024.6
22187.7
6380.63
6645.08
18371.3
25030.9
24994.6
27812.2
20985.3
19149.9
25967.4
28349.7
24465.6
21007.6
17703.6
29351
25984
23890
19988
20442.6
38185.8
1581.93
2086.36
4252.69
8770.19
2289.5
3167.44
5736.02
10354.9
3443.41
3325.54
7689.11
12338.1
27704.9
27750.6
22936.3
22045.6
19259.2
17213
14023.9
12465.8
10789.6
16008.2
24493.8
22217.7
22562.9
21259
18984.4
17619.3
16283.5
14446.5
12848.5
17554.1
23146.3
24669.1
23935.4
26295.9
23402.5
21650
23716.3
22759.6
20858.4
21106.8
20577.6
20474.1
24331.3
26926.1
24130.5
26642.2
24001.1
23692.3
23701
23492.3
20659.2
20942
20905.7
21085.2
17856.7
17661.3
12245.4
14609.6
18012
17397
12599.6
15108.1
17364.1
17407.3
12096.1
14625
17514.6
17210.4
11978.5
14272.9
1797.88
1474.61
1094.3
1011.16
874.929
865.667
2745.36
1960.16
1539.54
2386.5
2140.94
1862.51
2928
2851.26
3040.68
4305.29
3762.07
3455.96
26582.5
23775.7
21802
22102.4
20811.6
19720.4
15081.6
14489.9
14180.6
10670.7
10152.7
9934.7
6997.05
5194.65
4258.21
21013.3
19457.9
18325
20938.2
19589.1
18797.8
15574.6
13911.8
12997.4
11194
9914.52
9338.45
7392.35
5487.87
4500.55
28384.8
29450.1
30190.9
27751.3
27696.2
27713.1
33022.2
28471.5
17977.1
19917.9
17876
17762.1
24067.3
21158.1
23535.8
18574.5
25928.7
27072.6
22204
24946.6
29122.4
25559.9
28845.1
29929
30533.8
32707.3
24816.5
25439.8
21566.1
21241.5
24651.2
23791.6
16651.3
9471.72
15556.1
10482.8
16173.3
9293.62
14991.8
10166.2
14784.2
8597.06
13919.4
9658.2
13669
10032.9
13122.3
10018.5
22688.4
17952.9
22190.7
18039.3
25347.9
22728.9
25373.5
22314.9
20470.5
14213.5
21309.1
13766.3
22583.4
18076
23168.8
18026.3
25942.2
22147.5
26360.7
22034.3
19893
14374.1
19734.8
14364.7
12179.1
8397.11
10784
6841.18
11263.4
7509.61
10105.7
6260.4
12446.7
8905.7
11079.3
7168.65
12514.9
9243.95
11153.1
7364.3
2676.75
1442.03
4991.16
2789.63
2782.67
1682.22
5072.6
3098.47
3026.79
2244.4
5018.74
3566.91
13609.5
22746.6
8812.66
7967.21
5648.7
23288
15008.7
8411.32
7467.31
4385.01
22456.2
16279.2
11930.4
8714.28
5330.56
1021.91
991.826
1903.2
1794.87
1295.52
1013.76
2339.54
2134.31
1828.6
1613.11
2839.39
2551.49
23658.2
22666.1
15103.2
13830.5
9479.56
9129.54
7250.95
6961.85
4034.17
3650.95
20628.5
17754.8
15059.6
12991.5
11254.5
10270.9
7953.59
7657.21
4937.01
5539.98
14231
11292.1
14351.6
10634.5
18149.6
13467.4
18394.2
13218.5
11694.4
9445.97
11580.2
10090.1
14805.7
10127.4
14916
10227.4
19268.3
13550.3
19202.3
13639.3
11763.9
8859.52
11944.6
9215.17
8336.6
7651.2
5462.47
7347.15
8459.18
8028.69
5560.67
7254.84
8300.54
7429.44
5306.67
7673.2
8727.44
7489.31
5523.82
7585.42
2370.23
1895.48
1485.23
8942.58
4385.63
3358.98
2212.56
2070.04
1761.72
9420.63
5152.66
4156.02
2731.76
2897.3
2904.21
9894.9
6337.51
5552.33
20402.4
18488.6
17133.7
13026.4
12233.2
11706.7
9415.06
9031.28
8822.5
8233.58
7773.32
7572.86
11359.9
8264.83
7398.1
15132.7
13583.1
12550
11488.8
10474.4
9882.59
10076.7
9066.93
8350.29
9608.85
8560.3
7998.39
14640.6
10286.6
9378.09
5111.66
3069.63
2225.13
2034.37
5729.84
3309.82
2314.72
2086.47
4959.96
3020.65
2217.68
2058.82
5689.46
3318.24
2339.26
2104.29
4692.01
2953.43
2238.66
2031.38
5531.95
3348.57
2402.97
2072.46
5804.51
3486.25
2419.61
2190.38
5968.96
3633.42
2517.73
2272.65
4996.74
3130.21
2322.98
2060.43
4032.08
2743.64
2165.72
1937.24
4326.04
2829.83
2214.8
1894.39
3612.4
2545.06
2071.23
1843.61
5394.88
3350.53
2409.92
2162.68
4293.33
2899.95
2236.33
1997.73
5623.04
3508.11
2491.34
2212.94
4443.55
3016.47
2301.52
2023.04
3861.42
2663.83
2084.55
1920.97
2532.7
2178.38
1900.62
1770.57
3739.48
2619.96
2080.44
1920.7
2516.68
2172.1
1897.63
1780.49
3553.82
2555.9
2081.83
1909.12
2584.77
2201.78
1902.16
1813.7
3353.7
2455.64
2039.92
1900.14
2605
2207.05
1934.34
1816.8
3063.17
2349.64
1954.28
1775.31
1077.48
1720.18
1517.15
474.111
-628.582
1465.38
1325.69
453.7
1251.47
1784.28
1543.9
500.701
-366.439
1541.48
1348.5
461.855
1520.64
1878.42
1569.28
498.106
27.8809
1659.27
1375.15
464.025
1893.75
1995.13
1607.75
530.065
482.087
1803.61
1419.49
480.866
2413.74
2151.74
1677.46
592.605
929.629
1939.29
1463.05
494.667
2763.74
2335.91
1721.61
554.168
827.262
2090.65
1555.41
515.028
2715.54
2254.55
1683.26
556.782
891.58
2033.08
1505.38
501.778
2741.03
2396.11
1758.81
521.917
712.346
2143.88
1594.5
516.084
2726.65
2474.09
1829.42
538.264
868.323
2223.52
1649.15
530.452
1908.27
1454.43
1009.44
591.051
194.333
1912.93
1456.12
1010.62
591.702
194.536
1943.67
1467.06
1015.22
593.662
195.086
1943.64
1470.86
1018
595.161
195.552
1964.31
1480.06
1021.35
596.438
195.885
1952.73
1490.59
1028.6
600.269
197.073
2019.75
1517.55
1043.66
607.841
199.372
2056.03
1542.89
1058.8
615.594
201.74
2017.9
1506.99
1035.29
603.208
197.918
2072.3
1514.97
1036.7
603.501
197.965
1981.77
1494.12
1027.81
599.386
196.739
2057.5
1506.89
1032.14
601.181
197.249
2044.69
1522.13
1044.35
607.885
199.357
2096.68
1529.81
1045.49
608.025
199.36
2069.27
1548.62
1060.75
616.343
201.949
2125.39
1555.5
1061.43
616.295
201.907
1904.38
1453.18
1008.22
590.337
194.107
1931.78
1454.06
1007.58
589.918
193.977
1928.06
1463.36
1012.64
592.268
194.654
1953.54
1463.23
1011.48
591.598
194.452
1962.5
1476.37
1018.13
594.659
195.327
1996.66
1475.77
1016.59
593.804
195.068
2013.53
1490.72
1024.22
597.377
196.1
2040.7
1487.67
1022.05
596.275
195.76
2044.65
1499.88
1028.53
599.397
196.697
8525.04
13203.8
9021.83
13613.4
9790.47
14215
10708.3
15273.3
11722.5
17091.6
10814.2
13344.6
11110.6
14308
10755.2
13178.1
10627.6
13139.4
6857.67
1223.67
269.02
60.4549
10.6557
8159.64
2252.68
548.445
124.381
21.7312
7027.75
1211.92
261.413
58.1769
10.192
8340.44
2268.01
544.746
121.887
21.2134
7323.33
1217
256.056
56.2364
9.78584
8669.12
2307.09
544.198
120.329
20.7932
7679.07
1216.4
249.557
54.2807
9.41806
9091.26
2355.45
547.103
120.099
20.693
7974.25
1213.73
247.399
54.0886