/*--------------------------------*- C++ -*----------------------------------*\
| =========                 |                                                 |
| \\      /  F ield         | OpenFOAM: The Open Source CFD Toolbox           |
|  \\    /   O peration     | Version:  2412                                  |
|   \\  /    A nd           | Website:  www.openfoam.com                      |
|    \\/     M anipulation  |                                                 |
\*---------------------------------------------------------------------------*/
FoamFile
{
    version     2.0;
    format      ascii;
    arch        "LSB;label=32;scalar=64";
    class       volScalarField;
    location    "2.2";
    object      gradTx;
}
// * * * * * * * * * * * * * * * * * * * * * * * * * * * * * * * * * * * * * //

dimensions      [0 -1 0 1 0 0 0];

internalField   nonuniform List<scalar> 
5712
(
-7904.86
-9658.28
-18068.8
-28219.5
-27285
-53242.5
-18867.4
-56780.9
-19469.3
-45537.6
-23939.6
-39358.9
-18318.6
-24217.7
-9853.04
-9998.27
-12826
-14502.8
-17606.4
-15951.6
-12239.3
-18422.6
-18265
-18284
-5172.2
-3745.28
-7014.32
-5014.14
-11728.5
-7598.3
-21704.9
-15122.8
-18071.9
-18309.7
-18334.5
-18513.7
-4207.23
-3769.7
-42089.9
-52052.9
-22384.2
-29880.6
-54285.7
-66805.5
-25138.8
-30936.4
-31512.3
-41203.2
-25104.9
-34781.8
-14424.4
-18272.1
-2945.28
-932.037
-3831.02
-1326.69
-6588.48
-2708.5
-11434.1
-4194.48
-7493.05
-2488.17
-7581.31
-2146.05
-14915.6
-4342.71
-19556.5
-6129.37
-25218.3
-14403.4
-21337.9
-14736
-25864
-16656.1
-20527.9
-16608.2
-16518.4
-11905.1
-18109.3
-11440.4
-20738.5
-15300.9
-21437
-15712.2
-20127.1
-17009.7
-20916.3
-17362
-17066
-12638.3
-18406.7
-13122.3
-18192.2
-7458.13
-10360.2
-11810
-19555.2
-8591.37
-10251.3
-12328.5
-18258.2
-6966.8
-10870.9
-11660.8
-18884.4
-7016.09
-11443.3
-11776.6
-2846.8
-3198.21
-1000.41
-1976.98
-8210.1
-9630.85
-3367.26
-6391.34
-13342.4
-15840.1
-5996.63
-10737.5
-17533.1
-9251.83
-17721
-21223.7
-10651.9
-6787.42
-10860.2
-12383.7
-21557.8
-13666.2
-10000.1
-13094.7
-14487.6
-13997.7
-17429.6
-3154.39
-3237.2
-1949.19
-2081.48
-9353.55
-8940.27
-6005.01
-6103.84
-14025.2
-12872.8
-8877.09
-8929.48
-9707.02
-10857.3
-15345.2
-16278.6
-17049.5
-16047.9
-20213.9
-18574.2
-13899.4
-13862.1
-13048.4
-14220.2
-16824.8
-15456.8
-15817.4
-13310.1
-14133.6
-11384.3
-15658.9
-12499
-14238.6
-7722.52
-11169.5
-10906
-15704.2
-18323.4
-16035
-20929.4
-9409.98
-9311.83
-12890.3
-5937.17
-10774.5
-17028.1
-11127.1
-18156.7
-16263.5
-25640.1
-16794.6
-26209
-9103.16
-14932.3
-9401.55
-16162.1
-11206
-8383.31
-14322.7
-6495.16
-12158.6
-4641.94
-13559.4
-3384.65
-11617
-11968.7
-14985.9
-7746.09
-10463.8
-13782.6
-13754
-9842.42
-3037.37
-2833.61
-2456.34
-1960.95
-1922.51
-1687.16
-8237.65
-7132.4
-6251.18
-5363.97
-4505.08
-3817.68
-10798.5
-9193.24
-8429.55
-7720.82
-6245.06
-5668.17
-9778.07
-7976.99
-7595.79
-15211.8
-11390.1
-9290.79
-13661.7
-10064.7
-7840.96
-15182.3
-11948.6
-10097
-11706.4
-7995.02
-5984.4
-18285.2
-14934.8
-13304.3
-13386.5
-10645.4
-8855.89
-11784.3
-8892.69
-7020.69
-10499.2
-7874.53
-6271.19
-11286.1
-6786.41
-4244.94
-11424.5
-18649.7
-9678.03
-13889.6
-9263.59
-19105.5
-7748.7
-15661.5
-190.069
-1729.41
243.352
-1013.13
-3560.92
-6715.63
-2231.61
-4051.24
-1843.37
-3932.58
-10977.6
-16383.5
-8719.71
-6466.49
-11622.9
-10160
-15578.1
-16674
558.594
5494.37
-8370.5
-5879.9
-6531.28
-3765.37
-1589.27
-1017.75
-1273.51
-777.978
-3899.87
-1260.12
-1928.73
-228.405
-9969.45
-3008.84
-7476.7
-2319.02
-8499.3
-2563.28
-9631.11
-3186.77
-12244.5
-12154
-9545.83
-12074
-18520.3
-16727.2
-15182.2
-15932.1
-7113.49
-9380.89
-8293.75
-8648.77
-8950.77
-12026
-9420.99
-12155.3
-14506.6
-15650.2
-15042.5
-15779.8
-6299.91
-9534.26
-6112.04
-9670.03
-861.633
-1522.19
-7602.43
-4337.41
-836.626
-1293.58
-6651.52
-3671.71
-855.871
-1372.77
-8041.85
-4778.74
-1168.3
-1496.89
-8137.46
-5046.33
172.015
312.877
-486.626
-341.95
836.011
1359.42
-801.237
-551.165
-1215.26
-174.836
-2628.56
-2322.87
7688.22
3907.82
4500.32
2949.73
-104.609
7085.66
10388
4924.7
4940.93
-85.0739
-9352.87
-6870.65
-5692.77
-5911.99
-3547.65
526.909
423.194
-201.625
-318.026
1475.62
1649.33
-570.11
-788.727
1240.63
1860.8
-1513.77
-1853.78
3126.05
1651.55
8078.19
5752.5
4302.85
3104.22
3869.01
3226.06
-396.51
-1196.25
-4926.08
-3407.23
492.248
2237.29
645.032
1950.72
-469.71
632.877
-961.109
-1378.71
-4075.11
-4520.75
-9730.82
-6179.79
-8627.57
-8424.6
-12986.3
-10164.1
-7504.95
-4631.29
-2560.28
-3267.63
-11521.9
-4867.55
-12355.7
-4483.84
-14919.2
-9786.19
-15874.9
-9391.98
-9039.3
-3383.08
-9821.97
-2925.32
-5742.99
-4724.73
-4464.2
-7828
-2867.66
-3817.83
-2971.09
-6593.27
-6321.09
-4429.61
-5399.34
-8979.73
-7612.38
-4204.02
-6346.1
-8907.56
573.119
759.49
891.07
-203.334
143.438
199.648
2080.16
2531.15
2733.83
-300.021
601.979
735.412
2515.29
3609.2
4080.37
-993.689
1056.36
1484.7
917.164
1469.72
1326.82
4480.24
4821.18
4480.66
3505.61
4131.96
4006.13
3715.09
4703.07
4877.99
-588.516
1537.87
1476.56
-4001.21
-1950.04
-1111.84
1406.25
2632.95
3026.93
1640.18
2980.56
3320.99
975.887
2621.56
2968.72
-1857.78
1042.66
1246.79
-75.8743
7.55077
38.1689
79.4624
108.605
105.39
123.571
124.064
-206.364
8.50353
103.353
210.58
248.633
241.908
268.283
281.297
-416.229
-50.5361
109.629
323.919
43.7121
201.156
235.928
318.414
48.1777
131.424
93.7283
104.353
-162.044
-9.91347
48.3537
113.25
-1059.52
-316.907
-121.525
182.039
-1588.37
-504.315
-308.083
254.1
-887.9
-238.805
-44.3825
311.896
-1293.44
-402.628
-265.776
257.144
-979.194
-305.7
-117.055
153.141
-1752.27
-559.385
-327.958
315.602
-1041.5
-358.581
-114.334
206.291
-1839.09
-592.305
-344.845
346.43
-75.6413
-4.19128
14.4075
70.9859
-65.8396
-1.81088
0.511554
74.5977
-206.939
-17.0392
41.1895
188.566
-113.925
18.4696
16.0879
203.7
-723.439
-183.604
-38.3087
288.309
-562.602
-116.068
-37.8697
324.875
-362.106
-33.5546
50.8672
321.934
-243.789
-6.5981
0.872149
316.931
-1095.82
-311.611
-194.359
359.948
35.0716
30.4828
21.7892
59.5641
128.977
57.6126
34.2363
36.7525
19.794
59.0161
40.5411
156.443
313.851
148.835
84.9287
97.1367
-93.5025
42.5404
41.4694
244.739
420.473
213.64
127.217
148.813
-125.478
55.0859
52.4237
324.237
429.05
250.404
144.356
175.715
-347.796
9.16829
-22.0233
314.124
223.84
223.489
110.254
162.216
-1125.59
-137.663
-131.029
294.435
-338.517
72.2908
31.6714
116.765
-742.448
-41.07
-86.385
299.789
-121.56
149.736
68.6488
140.805
-1451.45
-271.162
-191.838
316.731
-484.375
-10.2103
-6.36147
103.821
-1682.6
-415.157
-262.474
312.499
-622.325
-113.889
-54.2722
87.089
31.7357
15.0842
7.93883
4.65917
3.35331
43.519
22.8724
12.6126
7.57872
5.49939
67.8539
32.0736
16.8074
9.89311
7.17796
114.667
62.2443
34.8955
21.2271
15.5084
96.6438
46.2248
24.6464
14.6933
10.7362
164.851
88.5275
50.0963
30.7432
22.5662
55.7638
29.0656
16.4876
10.1691
7.48017
31.4086
15.7866
8.74504
5.35663
3.92435
85.5288
38.5084
20.6404
12.4254
9.05196
19.693
5.74919
2.43442
1.30158
0.904838
126.209
63.4646
35.3026
21.5621
15.8132
35.1186
14.1731
7.2825
4.29249
3.0853
30.1524
8.29174
3.27482
1.70491
1.17981
20.4295
6.43189
2.91259
1.64436
1.17493
28.7344
7.54217
2.85003
1.46191
0.980516
14.6331
2.2371
0.357359
0.0355797
-0.0335375
25.7796
11.3815
5.73208
3.26754
2.32056
24.0879
10.7284
5.42504
3.09394
2.19714
59.3021
25.8098
13.034
7.4659
5.33784
55.9658
24.3598
12.3608
7.0804
5.03877
77.2605
31.5668
15.8087
9.03073
6.463
67.4953
29.9402
15.5407
8.99089
6.47014
91.0608
44.9082
24.753
14.991
10.9939
45.0454
21.8997
11.8126
6.9647
5.09012
52.5485
27.0769
15.232
9.35966
6.87982
-509.44
-614.839
-1403.38
-1746.4
-2146.96
-2793.32
-2607.98
-3698.33
-2600.4
-3683.94
-2348.15
-3105.61
-2183.06
-2634.48
-2665.85
-3612.16
-2761.8
-3769.24
-498.449
-109.133
-23.7435
-5.03573
-1.22205
-212.944
-76.5837
-8.44814
-2.39284
-0.95655
-1609.67
-355.008
-77.6894
-16.6043
-4.05895
-552.423
-117.592
-23.8248
-4.64212
-0.992258
-2835.28
-628.952
-138.445
-29.8585
-7.3634
-966.028
-229.064
-50.5121
-10.9925
-2.6525
-4066.44
-907.134
-201.639
-43.989
-10.9837
-1355.16
-350.791
-82.7616
-18.9536
-4.8005
-5668.9
-1300.86
-295.358
-65.6205
-16.6708
-1804.14
-528.575
-132.288
-31.3019
-8.14329
-7637.24
-1913.23
-458.621
-106.068
-27.7894
-2092.78
-650.51
-168.201
-40.5327
-10.7232
-6960.47
-1689.74
-395.263
-89.6354
-23.1196
-2026.07
-635.949
-164.2
-39.4772
-10.3551
-7958.06
-2020.61
-490.424
-114.686
-30.3123
-2138.31
-645.879
-164.409
-39.1707
-10.332
-8197.19
-2075.29
-505.92
-118.972
-31.609
-2138.38
-647.611
-164.709
-36.4306
-10.1863
-250.099
-6535.07
-6422.16
-3630.14
3697.8
5085.9
10249.6
13473.6
5821.18
11751.3
2261.71
7100.99
5750.41
9545.02
10478.6
14450.1
12629.5
14366.4
7212.61
8159.98
-18905.6
-14133.8
-4432.29
-3454.9
-2693.35
-4331.69
-3030.53
-12376.9
-12170.4
-10433.6
-11038.9
-9088.74
-6297
-8652.12
-5315.86
-4079.91
-5055.28
-3236.46
-20426.6
-10180.4
-3049.58
-5099.66
-7696.2
-5235.51
-6195.06
-4679.58
-2283.16
-3865.68
-3379.03
-3938.12
-18986.7
-11825.7
-11881.7
-7562.14
-8045.17
-8073.55
-4046.19
-5159.45
-5323.46
-12841.8
-12286.6
-10579.2
-10558
-9688.36
-10113.2
-7553.92
-6305
-5273.35
-2429.01
-3924.47
-3260.24
-2448.31
-1526.52
-519.478
-3089.41
-2589.78
-1951.72
-1214.2
-412.304
-2392.28
-1989.56
-1487.5
-919.722
-311.383
-3874.85
-3247.44
-2443.88
-1517.09
-514.416
-2693.02
-2242.31
-1680.39
-1042.01
-353.452
-8246.95
-7039.61
-5668.64
-5333.98
-5832.19
-6682.45
-5306.88
-3782.79
-3100.17
-2612.28
-7243.73
-4960.29
-3767.91
-2838.91
-1264.56
-5979.31
-4486.21
-3116.32
-2445.45
-1721.2
-4614.79
-3221.03
-2141.35
-1756.89
-1049.77
-5020
-3781.04
-2691.55
-1677.47
-594.969
-6207.84
-4304.83
-3064.07
-2026.07
-812.821
-3730.95
-2458.59
-1665.45
-1052.35
-400.742
-3374.44
-2618.96
-1876.72
-1150.7
-395.132
-4078.79
-3081.82
-2166.57
-1315.32
-451.382
-2707.25
-2119.94
-1521.09
-926.413
-314.821
-13940.6
-11565.3
-9664.98
-9046.49
-8532.48
-7844.22
-5869.32
-4495.83
-3240.17
-1382.33
-2540.96
-1991.4
-1444.84
-897.992
-311.287
-4328.78
-3462.85
-2562.48
-1618.29
-565.073
-6361.83
-4996.86
-3742.48
-2460.35
-898.39
-4479.95
-3613.16
-2698.13
-1714.71
-595.643
-5396.04
-4414.14
-3302.25
-2074.25
-707.887
-4083.76
-3344.59
-2488.59
-1548.8
-528.802
-1970.87
-1591.63
-1164.25
-712.664
-241.03
-3402.32
-2804.45
-2085.04
-1287.69
-436.456
-2877.25
-2297.14
-1675.54
-1032.23
-352.407
-3411.3
-2773.02
-2051.8
-1274.07
-435.58
-12806.4
-11511.1
-9908.75
-9616.26
-8592.88
-8792
-6602.59
-5370.65
-4258.31
-1933.02
-9569.15
-7805.32
-6243.07
-4922.23
-2210.78
-6198.54
-4706.68
-3616.74
-2495.66
-802.154
-6792.16
-5387.73
-4059.89
-2644.45
-898.438
-6590.51
-4970.96
-3803.91
-2618.16
-818.786
-3496.3
-2838.32
-2109.24
-1321.08
-453.398
-4546.61
-3756.72
-2805.67
-1742.24
-592.389
-4593.58
-3728.42
-2777.18
-1746.47
-601.296
-6273.85
-13765.7
-11033.4
-35869.4
-10411.3
-46850.5
-6971.28
-18424.9
-9091.62
-7648.26
-17839.4
-13929.6
-9260.38
-11142.1
-19526.4
-16220.6
-3937.15
-2681.9
-9057.68
-6358.62
-6906.74
-3606.58
-24963.5
-17583
-15129
-10528
-15688.4
-10211.9
1701.69
-1494.21
-43074.7
-52424.2
-21727.3
-29777.5
-54943.9
-67063.2
-24344.7
-30745.1
-32186.3
-41589.3
-24467.1
-34760.1
-15489.5
-18698.4
-2115.14
-403.79
-4612.49
-1484.7
-4003.81
-1885.46
-12918.5
-4611.9
-2018.34
-954.266
-5673.53
-1569.83
-14972.5
-4308.34
-19735.3
-6171.77
-18450.7
-11303.2
-19044.2
-13171.5
-17948
-12784.8
-17891.2
-14735.7
-14972.3
-10741.7
-13732.6
-9235.03
-19819.4
-14572.2
-21208.8
-15502.9
-19046.6
-16171.6
-20617.4
-17119.2
-16498.8
-12082.8
-18278.4
-12961.1
-17318
-7253.33
-9540.6
-11489.9
-16873.7
-7914.49
-8634.76
-11730.9
-18003.1
-6903.56
-10483.5
-11497.6
-18852.1
-7008.95
-11329.2
-11728.6
-651.605
-487.051
108.737
-663.318
-2418.98
-2985.62
-1701.25
-4417.74
-3599.18
-4807.59
-3741.37
-8118.33
-16744.8
-16052.6
-13342.5
-15659.5
-9428.98
-10799.9
-8622.67
-7405.63
-15490
-12651.8
-12520.2
-11873.2
-11279.2
-10617.5
-16164.4
-694.172
-882.63
-444.036
-664.977
-2985.46
-2672.13
-3377.39
-3349.75
-2864.89
-1493.52
-5605.45
-5351.13
-11765.3
-12648.5
-11016.9
-10980.7
-9929.42
-8271.5
-13371.2
-11513.6
-11866.7
-11239
-15160.1
-15651.3
-14278.8
-12867.4
-11697.2
-9680.87
-10502.3
-8273.64
-14054.9
-10466.9
-13159.5
-7887.38
-10783.2
-10929.4
-16170.5
-19155.8
-16135.3
-21208.1
-8787.78
-9134.28
-11266.5
-5698.08
-10636.7
-16964.8
-11085.3
-18127.2
-16347.3
-25872.3
-16802.4
-26220.1
-8855.77
-14771
-9332.21
-16112.4
-10639.3
-8197.16
-14016.6
-6409.5
-10787.1
-4441.85
-12948
-3410.06
-11380.1
-11830.4
-14843.2
-7692.79
-10397.4
-13737.3
-13718
-9817.41
-1075.97
-820.039
-605.844
-747.733
-2036.87
-967.607
-2808.31
-2798.08
-410.799
-254.017
-4985.45
-4846.74
-13649.7
-11754.9
-10768.5
-8328.55
-6954.51
-4735.3
-9223.41
-7027.3
-9760.78
-6559.07
-19918.7
-16983.9
-10426.1
-8458.35
-8068.25
-5960.96
-6999.79
-4862.48
-7851.84
-4019.17
-5877.94
-11193.8
-5424.18
-10922.5
-7338.53
-11974.4
-8633.39
-13403.5
-1657.03
-1574.32
-1486.31
-1504.67
-4641.39
-4881.23
-4353.02
-4534.04
-1976.16
-2316.67
-9153.68
-10051.7
-5612.4
-6340.34
-10538.5
-9921.51
-14546.9
-16390.6
570.43
5336.22
-7804.54
-5823.54
-6310.33
-3793.73
-1405.01
-1336.84
-1532.85
-1311.66
-3152.65
-2133.25
-2501.72
-1552.82
-8337.07
-4149.38
-7810.89
-3790.86
-8620.61
-3399.8
-9709.33
-3528.67
-6717.04
-9703.55
-7579.54
-10731.3
-11394.4
-12923.7
-12680.2
-14055.8
-6022.77
-8765.89
-5247.55
-7796.96
-8144.66
-11451.9
-9181.35
-11990.1
-13444.3
-14838.7
-14729.2
-15545.3
-5872.2
-9279.33
-5987.75
-9598.9
-1025.83
-2015.33
-7633.04
-4623.7
-1189
-2136.03
-6887.21
-4101.55
-1060.05
-1766.31
-8077.6
-4983.77
-1256.33
-1660.31
-8134.68
-5137.69
-1290.18
-1468.79
-1353.42
-1543.51
-3151.95
-3511.37
-2393.52
-2766.47
-7646.71
-8284.55
-4465.56
-4923.43
-4221.7
-9462.08
-2871.23
-629.182
-1685.1
-4176.97
-1218.79
-1994.46
1684.84
-1153.89
-13730
-10091.4
-7869.02
-7748.47
-4450.88
-1770.89
-1942.78
-1810.48
-2226.56
-4163.88
-4476.45
-3286.62
-4127.11
-8811.75
-9935.63
-4981.75
-6342.98
-6182.1
-7501.88
-2207.35
-4226.94
-3524.76
-4830.82
-1138.55
-2009.91
-2188.17
-3398.62
-11311.7
-8832.76
-6276.13
-4324.91
-4773.55
-3274.8
-4654.68
-3215.51
-2803.8
-3484.91
-7532.79
-8043.18
-11336.4
-7733.35
-11237.3
-11226.3
-13993.7
-11403.3
-9424.45
-6232.06
-5946.25
-6651.85
-12305.7
-5757.27
-12570.9
-4693
-15381.2
-10521.1
-15984.5
-9544.12
-10027.8
-4298.12
-10108.7
-3162.29
-7628.68
-6246.8
-6154.88
-9618.75
-5838.57
-6804.14
-5131.17
-9425.8
-7339.78
-5342.84
-6425.52
-10061.1
-7928.43
-4482.28
-6676.55
-9192.81
-1632.16
-1701.97
-1590.46
-1268.01
-4859.55
-5483.67
-2557.04
-1455.05
-10718
-8877.72
-3815.51
-468.327
-9365.37
-8101.3
-6044.35
-5014.92
-5118.95
-4054.56
-1982.21
-912.807
-2406.97
629.416
-8453.96
-6998.55
-4184.08
-2911.44
-2846.14
-1394.09
-2325.89
-665.506
-4092.12
426.139
-311.919
-131.3
-43.3868
34.3718
-332.787
-167.285
-45.2321
19.6715
-803.101
-342.22
-93.5507
116.322
-760.656
-390.91
-142.028
-3.31992
-1206.91
-519.154
-177.787
164.446
-1184.7
-590.59
-331.156
-122.544
-705.106
-370.675
-240.638
-88.6366
-489.083
-234.519
-102.148
22.0689
-1499.7
-599.05
-336.008
17.146
-1734.41
-567.526
-367.962
257.786
-1513.92
-600.8
-323.513
52.9482
-1481.74
-485.403
-342.733
260.868
-1317.47
-528.741
-256.593
101.951
-1864.16
-610.359
-383.442
288.739
-1186.99
-457.004
-178.819
174.789
-1888.16
-616.719
-366.788
339.707
-293.702
-111.719
-43.0315
49.8455
-294.494
-97.7686
-55.4428
56.2694
-760.786
-294.216
-108.33
134.434
-748.074
-258.408
-139.962
158.806
-1341.31
-506.53
-228.602
238.249
-1297.22
-454.889
-248.049
268.551
-1336.96
-544.615
-278.457
108.036
-982.728
-365.197
-202.462
272.421
-1502.79
-506.972
-356.944
312.362
-215.88
-71.3182
-29.3378
35.7626
-126.59
-50.5315
-17.4117
4.07118
-596.331
-198.633
-96.5646
92.7695
-354.243
-144.057
-60.5418
5.93444
-837.42
-290.397
-149.849
148.891
-504.769
-225.961
-96.1699
9.47606
-995.302
-369.136
-199.789
190.101
-665.611
-306.994
-138.255
5.35166
-1193.17
-415.316
-288.586
160.291
-902.236
-358.904
-198.058
-29.1749
-2056.43
-675.795
-466.461
104.745
-1102.42
-387.645
-232.474
-44.7757
-1774.16
-586.121
-426.352
105.999
-1146.39
-403.81
-239.305
-52.0141
-2057.35
-645.87
-426.271
188.076
-950.441
-316.487
-184.703
0.417196
-1885.79
-546.036
-344.48
268.53
-772.195
-217.866
-115.356
52.2962
-6.61415
-10.1857
-7.36421
-4.95993
-3.77133
-25.0485
-18.8467
-12.1582
-7.91185
-5.96061
-14.5449
-21.4451
-15.437
-10.338
-7.79791
-79.6965
-53.9624
-33.6739
-21.5749
-16.1431
-35.3437
-34.4488
-23.1233
-15.1343
-11.317
-122.502
-79.0957
-48.0893
-30.4239
-22.6457
-40.6879
-26.1305
-15.7807
-9.93716
-7.38674
-18.6711
-13.0801
-8.20425
-5.2341
-3.92701
-32.9466
-29.6058
-19.1199
-12.3203
-9.23519
7.14152
-1.80825
-2.02795
-1.48189
-1.15316
-83.3583
-55.2439
-33.5729
-21.2216
-15.7844
-6.48465
-9.98974
-6.77717
-4.44209
-3.36468
11.6447
-1.35128
-2.31343
-1.77866
-1.40171
3.49521
-2.74506
-2.4007
-1.66165
-1.27271
13.6458
-0.655068
-1.95305
-1.56853
-1.30466
13.2195
1.73132
0.0715076
-0.160322
-0.204682
-0.234006
-6.75715
-5.37545
-3.73144
-2.86576
-2.77881
-6.8591
-5.18221
-3.56156
-2.72895
-3.94506
-16.4727
-12.515
-8.56545
-6.52737
-8.55157
-16.6951
-12.1525
-8.2506
-6.29833
-3.7359
-21.2327
-15.7148
-10.6757
-8.10801
-22.9233
-24.2172
-16.1923
-10.7526
-8.11139
-60.3394
-39.9729
-24.2245
-15.375
-11.4184
-30.0719
-20.4674
-12.6106
-8.16748
-6.07474
-43.5053
-24.9039
-14.549
-9.0766
-6.72389
-183.503
-305.651
-618.087
-981.568
-1210.34
-1845.05
-1787.66
-2811.43
-2030.77
-3072.87
-2273.98
-3052.79
-1950.16
-2480.21
-2649.41
-3593.12
-2761.56
-3766.01
-492.898
-110.111
-24.1137
-5.12392
-1.24393
-149.489
-69.4584
-6.73332
-2.15986
-0.943365
-1610.15
-360.383
-79.2264
-16.9504
-4.14249
-392.573
-90.8481
-19.376
-3.90215
-0.851269
-2839.68
-637.159
-140.812
-30.4054
-7.49805
-772.021
-196.46
-45.082
-10.1049
-2.48731
-4056.62
-913.073
-203.739
-44.519
-11.1222
-1181.51
-320.828
-77.653
-18.1045
-4.64178
-5640.49
-1302.49
-296.658
-66.0185
-16.7872
-1692.35
-507.409
-128.496
-30.6583
-8.02353
-7605.4
-1908.15
-458.001
-106.04
-27.8068
-2076.39
-645.729
-167.112
-40.3169
-10.6779
-6925.41
-1686.84
-395.455
-89.8123
-23.1899
-1976.87
-624.254
-161.875
-39.0584
-10.2747
-7936.13
-2016.44
-489.744
-114.601
-30.3071
-2134.03
-644.435
-164.043
-39.0937
-10.3146
-8189.82
-2073.82
-505.662
-118.937
-31.6057
-2138.05
-647.435
-164.654
-36.42
-10.1835
-153.637
-6406.07
-5955.36
-2899.68
-1487.81
-874.048
-3182.06
-2492.55
-5462.75
-5948.3
-3114.58
-2929.3
-401.506
-609.872
-1025.64
-1586.84
-2242.22
-2890.19
-276.881
-576.399
-1169.91
-1983.6
-2917.82
-3853.88
-312.761
-136.016
-551.167
-341.997
-1020.33
-761.07
-1629.69
-1404
-2232.44
-2209.38
-2740.34
-2998.61
-3559.84
-4265.32
-5124.37
-7169.8
-7517.98
-9064.62
-4683.01
-5246.8
-5366.21
-5124.71
-4221.87
-3768.63
-362.843
-307.517
-233.667
-145.933
-49.6127
-550.825
-466.525
-354.261
-221.143
-75.1628
-925.718
-783.449
-594.515
-370.948
-126.053
-1430.87
-1209.73
-917.211
-572
-194.333
-2018.92
-1704.37
-1290.79
-804.544
-273.298
-2596.13
-2186.54
-1653.45
-1030.15
-349.963
-250.105
-211.884
-160.938
-100.48
-34.1517
-520.357
-440.51
-334.362
-208.657
-70.9069
-1055.51
-892.93
-677.378
-422.574
-143.586
-1787.93
-1511.05
-1145.42
-714.288
-242.683
-2626.09
-2216.16
-1678.24
-1046.2
-355.457
-3460.59
-2914.16
-2204.16
-1373.96
-466.985
-282.742
-239.682
-182.159
-113.785
-38.6917
-122.967
-104.243
-79.2259
-49.4882
-16.8284
-497.973
-421.889
-320.451
-200.076
-68.0137
-309.029
-261.851
-198.918
-124.205
-42.2237
-921.261
-779.957
-592.036
-369.464
-125.562
-687.298
-581.996
-441.843
-275.761
-93.7192
-1469.99
-1243.17
-942.719
-587.923
-199.739
-1266.51
-1071.14
-812.256
-506.523
-172.072
-2010.53
-1697.48
-1285.48
-801.041
-272.051
-1989.46
-1679.23
-1271.13
-791.744
-268.814
-2460.91
-2071.71
-1565.63
-974.787
-331.007
-2691.54
-2264.01
-1708.89
-1062.62
-360.542
-3184.56
-2672.05
-2016.78
-1256.84
-427.339
-3787.34
-3157.72
-2378.85
-1486.55
-506.988
-4486.12
-3698.42
-2784.89
-1757.73
-604.789
-6119.25
-4949.35
-3751.07
-2437.49
-856.37
-6102.13
-4817.72
-3740.37
-2610.53
-1009.77
-7065.91
-5487.09
-4363.87
-3231.76
-1315.78
-4190.42
-3518.08
-2657.68
-1657.88
-564.14
-4670.19
-3904.4
-2946.95
-1842.94
-628.898
-4737.19
-3936.36
-2971.39
-1869.61
-641.946
-4458.31
-3667.31
-2775.77
-1772.35
-616.986
-3571.27
-2892.45
-2212.38
-1463.97
-531.487
-3081.87
-2452.46
-1905.04
-1319.15
-500.46
-424.947
-681.258
-1147.3
-1758.33
-2461.85
-3140
-307.377
-669.22
-1326.61
-2200.46
-3178.75
-4123.41
-337.303
-154.987
-626.481
-401.24
-1151.37
-867.804
-1820.64
-1572.5
-2490.39
-2500.83
-3043.25
-3503.74
-3825.64
-4537.63
-5395.87
-7357.48
-7644.36
-9112.64
-4913
-5390.3
-5400.97
-5061.49
-4135.42
-3730.51
-384.13
-325.667
-247.546
-154.646
-52.5831
-615.694
-521.875
-396.619
-247.752
-84.2395
-1036.4
-878.04
-667.026
-416.563
-141.624
-1587.22
-1343.69
-1020.19
-636.934
-216.528
-2219.79
-1877.15
-1424.17
-888.939
-302.203
-2825.91
-2385.56
-1808.21
-1128.67
-383.824
-277.803
-235.495
-178.988
-111.809
-38.0147
-604.681
-512.442
-389.394
-243.22
-82.6945
-1198.05
-1014.73
-770.729
-481.293
-163.628
-1985.61
-1680.42
-1275.61
-796.38
-270.742
-2864.77
-2421.52
-1836.81
-1146.56
-389.835
-3708.59
-3129.07
-2371.37
-1480.47
-503.6
-305.004
-258.647
-196.647
-122.874
-41.7891
-140.172
-118.89
-90.408
-56.4992
-19.2177
-566.368
-480.204
-365.043
-228.071
-77.5597
-362.798
-307.665
-233.924
-146.169
-49.7104
-1040.44
-881.754
-670.03
-418.508
-142.299
-784.333
-664.849
-505.298
-315.649
-107.33
-1644.08
-1392.33
-1057.38
-660.221
-224.451
-1420.25
-1202.99
-913.704
-570.542
-193.965
-2246.42
-1900.36
-1442.06
-900.113
-305.983
-2256.25
-1908.97
-1448.7
-904.229
-307.368
-2739.48
-2312.99
-1753.25
-1094.23
-372.053
-3155.31
-2664.93
-2020.09
-1260.5
-428.51
-3431.58
-2888.65
-2187.35
-1366.6
-465.289
-4045.1
-3388.4
-2564.34
-1608.04
-549.409
-4751.62
-3943.9
-2988.84
-1895.23
-653.524
-6322.74
-5153.98
-3935.31
-2571.25
-905.166
-6252.36
-4975.42
-3890.13
-2728.35
-1057.64
-7128.18
-5555.24
-4431.96
-3289.33
-1339.57
-4404.5
-3706.16
-2806.11
-1753.57
-597.265
-4807.83
-4029.43
-3048.99
-1910.59
-652.685
-4777.81
-3980.26
-3012.87
-1900.26
-653.341
-4411.31
-3637.4
-2761.9
-1769.37
-617.156
-3501.68
-2841.12
-2180.79
-1449.97
-528.411
-3051.37
-2430
-1891.5
-1313.76
-499.491
-18826.3
-14192.6
-4835.47
-3865.23
-3253.82
-5025.03
-3542.75
-13139.4
-14245
-11868.7
-13649.3
-7337.45
-11465.2
-5354.37
-5622.32
-3960.92
-21165.3
-11054.5
-3578.83
-5731.2
-8339.27
-5625.23
-6864.11
-5238.39
-2560.37
-4583.62
-4017.62
-4456.79
-18874.9
-12053.1
-12414.3
-7956.34
-8417.19
-8533.27
-4715.14
-5855.29
-5776.6
-12824.1
-12331.1
-10677.3
-10732.2
-9865.31
-10208.8
-7662.23
-6420.86
-5385.08
-2478.29
-4308.36
-3605.78
-2727.65
-1710.25
-583.769
-3469.98
-2922.68
-2213.25
-1382.14
-470.302
-2916.63
-2452.9
-1855.48
-1158.35
-394.336
-4517.66
-3809.57
-2885.39
-1800.56
-612.329
-3172.8
-2666.64
-2017.47
-1260.51
-429.365
-9772.15
-8884.03
-7604.79
-7165.89
-7383.61
-10110.1
-9355.66
-7777.41
-6611.6
-5074.24
-9205.54
-6986.16
-5654.35
-4338.21
-1925.52
-10028.8
-8718.87
-7020.23
-5752.53
-3619.35
-6248.2
-5036.34
-3813.73
-2486.95
-904.02
-9309.86
-7177.51
-5529.25
-3834.92
-1557.59
-4653.67
-3814.58
-2876.92
-1833.35
-642.865
-4868.56
-3978.56
-3000.92
-1918.56
-675.868
-3465.54
-2855.85
-2152.34
-1362.61
-473.368
-15293.4
-13179.3
-11365.1
-10663.1
-9821.56
-8918.31
-6994.55
-5546.64
-4054.43
-1724.17
-3105.45
-2544.45
-1924.2
-1232.9
-434.391
-4985.44
-4099.92
-3113.04
-2002.36
-705.674
-7078.5
-5724.21
-4399.99
-2942.71
-1083.48
-4889.92
-4015.54
-3050.43
-1963.35
-686.898
-6047.43
-5012.83
-3796.47
-2405.52
-824.898
-4636.87
-3861.28
-2920.21
-1840.17
-632.558
-2267.85
-1887.98
-1424.13
-893.721
-306.615
-4088.61
-3424.63
-2588.06
-1619.46
-552.97
-3528.6
-2918.47
-2202.89
-1393.36
-482.664
-3934.65
-3269.81
-2472.17
-1560.74
-538.429
-12903.4
-11772.5
-10291.9
-10126.4
-9148.39
-9100.58
-6930.23
-5694.71
-4538.05
-2061.41
-10330
-8648.94
-7092.08
-5649.93
-2553.15
-6640.75
-5151.8
-4021.47
-2797.27
-902.84
-7210.19
-5812.58
-4447.04
-2928.68
-1002
-7130.65
-5517.4
-4309.7
-3000.01
-953.235
-4149.03
-3439.38
-2605.7
-1654.04
-571.604
-5213.23
-4360.49
-3296.36
-2066.27
-706.19
-5060
-4179.04
-3165.52
-2015.96
-698.959
-466.691
-1275.02
-1943.45
-2562.12
-3189.06
-3761.48
-2359.34
-6090.62
-5727.8
-2369.96
-6950.86
-6245.79
-7463.67
-9967.92
-1332.94
-174.124
-2522.62
1218.49
-9864.2
-8194.2
1916.35
-1723.94
-4826.09
-4641.39
-1826.43
-5305.03
-2958.97
-5953.92
-6123.95
-591.177
895.981
-1090.37
3344.91
-6962.39
-4462.56
3741.23
-1069.89
-3300.04
-3404.94
-1260.9
-3327.63
-512.886
-4455.59
-4476.76
-170.915
1087.63
74.0907
3518.69
-4297.52
-458.694
4268.6
-719.653
-2368.53
-2758.36
-973.511
-1809.94
802.961
-3771.05
-4232.68
29.6303
791.784
408.49
2961.87
-3277.02
1518.6
4082.73
-623.596
-2229.56
-2642.62
-895.692
-1692.45
523.855
-4008.82
-5464.91
106.026
609.041
516.488
2588.05
-3125.02
1538.1
2849.77
-602.341
-2198.78
-2579.71
-869.973
-2081.19
-224.513
-3938.13
-5374.7
152.547
954.059
424.552
2692.33
-3615.94
664.819
2137.8
-1320.51
-3142.41
-4178.46
-1701.01
-6451.43
-11527
-6965.45
-12309.4
-1624.2
-1449.49
-5226.62
-4410.2
-2374.87
-9509
-4759.25
-1294.39
-3064.22
-3737.63
-1475.94
-6111.79
-9856.92
-6266.32
-9029.42
-1695.78
-1343.44
-5106.18
-4219.27
-1739.62
-8804.13
-4651.08
-1200.87
-2864.07
-3126.06
-1199
-5541.87
-8609.07
-5294.46
-8020.63
-1463.46
-1725.54
-4506.63
-5016.13
-2023.72
-7811.11
-5226.12
-1208.6
-3125
-2894.87
-1064.78
-5883.78
-8440.86
-5228.18
-7871.96
-1532.71
-2134.23
-4659.73
-6169.29
-2561.2
-8572.3
-6331.37
-1219.6
-3105.27
-2848.41
-1028.63
-5799.04
-9082.46
-5239.27
-8647.2
-1662.62
-2728.02
-5013.01
-7853.76
-3633.15
-10151.3
-8225.44
-1234.8
-3102.41
-2815.85
-1016.82
-5888.77
-9316.76
-5125.78
-8546.56
-1868.51
-3397.58
-5528.47
-8979.83
-4832.77
-11199.1
-9214.87
7250.89
8779.92
18065
28171.8
27288
53226.5
18870.2
56776.4
19472.9
45532.7
23952
39353.8
18349.7
24205.5
8494.76
8596.11
12828
14503.1
17601.7
15950.1
12241.8
18424
18265.1
18284.4
4766.54
3467.4
6432.01
4602.53
11735.3
7594.56
21670.8
15094.9
18057.8
18308
18328.8
18510.7
4203.47
3754.87
42090.8
52053.8
22384
29880.8
54285.6
66805.5
25139.1
30936.6
31513.1
41204.7
25103.8
34782.3
14426.9
18273.8
2762.38
882.052
3535.84
1231.43
6573.33
2709.91
11410
4189.3
7485.31
2485.9
7570.54
2142.79
14915.8
4342.61
19557.7
6129.75
25217.5
14403
21336.9
14735.6
25864.4
16656.3
20528
16608.3
16516.8
11904.3
18107.6
11439.5
20738.1
15300.6
21436.9
15712
20127.1
17009.8
20916.3
17362
17065.5
12637.9
18406.6
13122.1
18189.3
7457.37
10359.3
11809.7
19551.4
8590.42
10249.9
12328
18257.6
6966.66
10870.4
11660.7
18884.6
7016.19
11443
11776.6
2667.75
2984.17
944.392
1844.96
8183.16
9588.55
3366.63
6373.33
13330.6
15825.3
5993.2
10731.5
17532.1
9251.5
17719.3
21218.4
10650.8
6787.09
10859.6
12382.5
21551.8
13664.8
10000.1
13094.2
14486.3
13995
17428.5
2910.4
2984.06
1777.52
1926.93
9343.39
8916.08
6023.83
6107.91
14018.5
12865.3
8879.69
8931.14
9706.74
10857.1
15344.5
16278
17048.1
16046.9
20210.4
18571.4
13900.3
13863.4
13048.1
14220
16824.1
15456.4
15816.2
13309.4
14132
11383.6
15659.1
12499.6
14238.2
7722.33
11169.2
10905.8
15704.1
18323.2
16035
20929.2
9409.53
9311.66
12889.6
5936.94
10774.3
17027.9
11126.9
18156.6
16263.5
25640
16794.5
26208.9
9102.9
14932.2
9401.36
16162
11205.6
8383.22
14322.7
6495.23
12157.9
4641.78
13559.4
3384.83
11616.8
11968.6
14986
7746.14
10463.7
13782.6
13754.1
9842.48
2768.06
2579.49
2246.8
1819.92
1785.32
1570.24
8227.15
7122.44
6246.36
5367.95
4508.44
3823.31
10794.4
9190.57
8428.66
7722.24
6246.54
5670.65
9777.91
7976.92
7595.77
15211.4
11389.9
9290.73
13661.1
10064.5
7840.92
15180.7
11947.8
10096.8
11707.4
7995.82
5985.5
18285
14934.7
13304.3
13386.2
10645.3
8855.85
11784
8892.56
7020.69
10498.9
7874.38
6271.23
11286.4
6786.69
4245.32
11433.6
18653.3
9689.98
13892.8
9268.36
19108.2
7753.89
15663.5
205.984
1601.46
-196.019
931.94
3522.83
6700.39
2191.4
4041.12
1835.43
3925.38
10975.8
16380.9
8712.78
6460.29
11624
10160.5
15579
16674.5
-559.331
-5494.5
8370.1
5880.08
6530.75
3765.33
1446.16
942.913
1152.26
711.696
3905.28
1253.16
1932.22
226.389
9968.07
3005.85
7475.62
2317.23
8498.8
2562.73
9631.17
3186.65
12245.7
12154.5
9546.67
12074.4
18521.8
16727.8
15183
15932.5
7113.27
9380.93
8293.3
8648.73
8951.26
12026.3
9421.39
12155.5
14507.1
15650.4
15042.8
15780
6299.94
9534.39
6112.25
9670.26
860.794
1521.35
7602.27
4337.09
835.511
1292.1
6651.25
3671.16
855.455
1372.36
8041.85
4778.61
1168.28
1496.74
8137.61
5046.34
-163.501
-290.215
456.838
321.015
-832.633
-1357.34
793.83
541.889
1215.25
175.157
2624.83
2319.6
-7688.01
-3907.67
-4500.28
-2949.93
103.143
-7085.57
-10387.8
-4924.56
-4940.62
83.8158
9353.04
6870.83
5692.69
5911.71
3546.74
-499.741
-395.069
170.952
278.436
-1467.51
-1646.99
574.903
792.369
-1237.97
-1857.82
1514.77
1856.29
-3125.89
-1651.38
-8077.82
-5752.03
-4302.39
-3103.54
-3867.64
-3224.07
396.64
1197.43
4926.22
3407.37
-491.932
-2236.9
-644.67
-1950.16
470.209
-632.056
961.142
1379.37
4075.45
4521.01
9731.06
6179.95
8627.8
8424.71
12986.4
10164.1
7505.12
4631.45
2560.54
3267.96
11522.1
4867.68
12355.9
4483.97
14919.3
9786.25
15875
9392.03
9039.44
3383.21
9822.15
2925.47
5743.07
4724.87
4464.16
7828.12
2867.87
3818.21
2971.1
6593.64
6321.17
4429.71
5399.33
8979.82
7612.52
4204.15
6346.18
8907.7
-547.784
-711.788
-833.065
162.4
-151.341
-200.083
-2066.12
-2520.01
-2726.03
313.819
-593.557
-730.039
-2509.49
-3604.28
-4076.81
998.229
-1052.83
-1482.21
-916.993
-1469.53
-1326.63
-4479.7
-4820.66
-4480.21
-3504.66
-4131.07
-4005.42
-3712.22
-4700.4
-4875.88
590.289
-1536.23
-1475.23
4001.34
1950.21
1112.03
-1405.82
-2632.5
-3026.5
-1639.49
-2979.88
-3320.37
-974.83
-2620.47
-2967.73
1858.72
-1041.78
-1246.09
72.3359
-6.01247
-34.2094
-72.6395
-101.653
-98.1121
-114.394
-114.322
204.886
-9.01886
-103.933
-210.867
-247.296
-241.388
-268.065
-280.991
415.256
50.1204
-110.031
-324.126
-43.8051
-201.226
-236.098
-318.477
-48.3535
-131.504
-93.8008