/*--------------------------------*- C++ -*----------------------------------*\
| =========                 |                                                 |
| \\      /  F ield         | OpenFOAM: The Open Source CFD Toolbox           |
|  \\    /   O peration     | Version:  2412                                  |
|   \\  /    A nd           | Website:  www.openfoam.com                      |
|    \\/     M anipulation  |                                                 |
\*---------------------------------------------------------------------------*/
FoamFile
{
    version     2.0;
    format      ascii;
    arch        "LSB;label=32;scalar=64";
    class       volScalarField;
    location    "2.2";
    object      gradTz;
}
// * * * * * * * * * * * * * * * * * * * * * * * * * * * * * * * * * * * * * //

dimensions      [0 -1 0 1 0 0 0];

internalField   nonuniform List<scalar> 
5712
(
7280.18
22120.7
5521.64
24201.9
3026.71
25640.4
5164.22
40627.1
8439.45
51020.5
8648.23
36188.5
9229.18
32158.7
9095.22
27623.7
4276.42
2322.81
12890.8
6085.95
3989.71
1832.08
13900.1
5593.58
5567.48
4100.73
16437.5
12007.9
3732.09
2933.48
16534.2
12508.9
8383.18
3047.43
6349.88
2304.45
2897.92
7773.44
39724.8
12139.9
11924.9
5510.51
48234.8
15122.4
11128.4
5230.17
26296.2
8766.61
13402.7
6109.74
21400.3
6804.82
4966.4
2692.89
8744.72
3536.51
4417.03
2791.86
9181.19
3463.84
5918.11
3760.08
5764.27
2418.98
10254.8
3703.35
4037.03
1491.37
12541.4
9446.68
7603.4
6823.67
14010.7
12280.7
7599.26
8107.54
7053.47
6061.21
9208.42
7888.29
5658.59
4871.19
3283.94
2823.92
5634.94
5621.4
3220.71
3225.14
5422.06
4258.33
3165.84
2237.08
6058.72
3411.06
6088.05
6712.68
8062.16
6137.74
8718.05
11486.9
4422.63
1893.69
3909.23
4032.6
2503.12
875.501
1793.12
1548.73
5690.77
11505.6
4150.6
13019.1
6153.91
11653.3
4947.54
13857.2
8108.4
11568.8
6859.51
14101.5
8971.91
10757.6
6937.24
6970.61
8508.18
7095.77
7837.57
10814.9
12633.3
18514.2
9595.36
7770.04
7423.39
9411.18
14969.2
14356
13915.8
16783.8
16925.8
14009.5
14046
16832.8
16776.6
12915.1
13423.1
16137.6
16323.7
8935.17
9492.19
8752.78
9255.65
10638.5
10675.8
12459.7
12155.1
15747.5
15959.3
8151.31
8959.87
9229.99
9882.1
10318.9
11177.6
11904.8
13099.5
15679.5
17084.6
9537.82
6509.46
7719.62
7781.7
10676.3
12146.1
8681.63
11479
7091.93
7209.62
9022.74
6478.44
3262.49
5617.74
1334.81
2092.44
5376.7
8509.47
2107.02
3186.85
2742.26
4932.06
1025.06
1798.09
6753.05
5766.27
6905.88
4327.18
9510.01
6789.45
10824.6
7239.57
3157.73
3676.16
3931.52
2238.44
2431.63
2650.32
2708.85
2056.54
12096.2
7964.67
2605.72
13102.3
8245.67
2850.87
11909.1
7787.34
2649.17
13081.6
8221.18
2786.23
11372.4
7323.95
2455.06
12853
8092.82
2783.04
6797.6
3883.88
1015.13
8080.62
5517.73
1794.27
9294.06
6545.42
2208.44
10290.9
6703.98
2198.01
12439.4
7826.29
2767.72
7492.91
4112.87
1348.6
7279.68
4713.83
1638.25
8197.22
5406.57
1850.94
9739.15
6255.36
2137.8
11802.1
6889.31
2386.31
-495.291
991.366
448.741
2644.94
1783.75
1802.06
4598.72
4026.78
602.881
973.549
638.857
1021.31
340.544
943.825
627.91
1383.5
1895.92
1136.52
3823.42
2706.89
1749.7
2879.5
2932.99
828.001
5890.23
1867.12
-4143.6
-608.747
668.311
699.735
22.5711
179.246
10316.2
4525.52
2737.65
1623.55
10163.1
4590.8
2986.93
1920.45
9829.2
5028.86
4025.07
2857.63
3092.26
2021.75
1733.68
1568.15
13123.5
11471.7
5751.14
7350.57
14718.2
13744.1
7165.62
8593.04
5232.05
6312.2
11139.5
9188.81
3659.86
4795.59
2108.38
2788.91
4790.34
5598.88
2764.84
3206.35
2975.32
4163.94
1670.36
2533.74
4668.02
3325.54
5296.29
3574.73
8023.45
4795.67
7122.38
4695.69
2777.56
2275.58
3676.5
2455.84
1561.26
1435.84
2328.09
1518.85
12034.8
8029.65
5902.63
6150.94
11929.2
7997.85
5836.52
6031.75
12054.5
7672.17
5944.87
5605.96
13229.1
12791.3
12336
9487.31
5481.59
7789.77
9376
9901.03
9289.16
6522.29
11069.5
9910.14
8211.89
6642.58
4348.34
6880.07
6833.84
6911.02
8386.66
6842.84
6608.45
6749.97
8201.22
6514.04
6231.79
6410.56
7841.74
8750.93
8274.82
8138.44
7001.94
6083.25
6098.42
5873.75
6133.54
5598.18
7387.69
6422.09
7278.33
5361.39
6099.33
4766.83
5454.47
4674.58
5618.7
4254.72
6780.26
4737.23
3798.11
3243.35
1731.39
7285.95
5537.21
5887.79
3720.53
2468.76
1415.44
3654.72
3296.94
4225.4
1835.65
1970.07
1084.78
5502.69
3147.61
2263.51
1559.75
3428.48
1462.14
1748.54
877.272
2086.47
2495.22
2590.23
4380.58
3148.75
3845.31
3121.8
5691.04
2512.16
1828.64
1903.07
3140.33
1136.87
453.137
415.9
792.976
5402.99
2479.04
713.948
5820
1552.86
410.605
5256.4
2580.36
805.8
5778
1598.03
443.078
4787.3
2368.77
612.321
5496.91
1479.91
335.004
5596.06
3060.83
807.668
4686.45
2518.15
702.199
4572.05
2300.71
657.332
4486.84
2129.89
495.99
5212.63
1307.1
222.893
6206.98
3266.74
1012.83
5334.99
2909.63
958.428
4802.94
2523.63
829.19
4601.66
1895.98
515.243
5427.72
1353.47
431.648
1748.71
671.04
324.225
18.0309
709.409
287.252
150.283
31.5101
1808
719.215
385.463
79.5233
859.975
386.115
249.888
116.747
2074.13
859.867
503.259
160.688
1482.06
762.021
431.84
199.502
1097.96
682.337
326.58
105.316
1145.21
776.307
448.914
247.788
1735.6
825.038
430.425
48.9549
1652.48
760.878
450.528
-30.6645
2180.48
918.825
545.302
126.284
1955.48
811.143
505.31
-54.9947
1320.32
720.597
374.335
51.4953
1287.52
671.76
411.14
68.7839
985.02
626.964
392.523
225.727
900.111
561.384
384.009
217.952
2237.02
818.211
399.274
-65.4442
2338.02
797.062
445.167
-229.142
2230.38
830.117
433.119
-34.8477
2244.7
769.568
444.004
-212.81
2245.94
853.762
500.978
15.2515
2011.93
697.112
440.76
-151.329
2088.39
823.681
550.724
147.453
2219.11
789.915
566.771
-144.743
1626.01
640.228
434.521
49.9639
1933.74
585.29
332.45
-217.059
760.316
207.98
101.627
-50.6067
1909.56
594.356
342.59
-193.562
774.995
219.329
112.607
-37.4331
1794.23
580.222
357.023
-149.629
746.956
222.022
126.005
-18.4766
1512.18
498.237
343.434
-100.691
658.649
196.998
135.22
5.99911
1327.14
466.316
333.998
-34.4767
594.016
200.025
151.822
40.663
1042.46
451.498
273.11
19.2562
546.339
277.85
171.665
90.2714
1110.6
410.591
278.664
-7.49901
541.144
223.681
157.723
68.4368
926.569
483.795
292.128
71.6954
553.963
328.325
198.881
122.581
723.362
466.525
311.607
185.267
513.531
353.634
235.964
174.051
15.8393
11.3901
7.24826
4.64116
3.45409
8.87577
5.86648
3.68233
2.36849
1.77653
36.0055
23.533
14.3596
9.05729
6.69691
37.2721
22.9902
13.6259
8.49968
6.26319
83.7743
53.4356
32.106
20.2176
14.9666
164.424
98.6174
58.4356
36.5602
26.9714
168.64
103.838
62.3539
39.2612
29.0774
182.48
109.154
64.8489
40.6867
30.1347
110.423
71.3196
43.3903
27.445
20.2672
86.9372
56.0818
34.1884
21.7049
16.0592
114.887
71.3353
42.6504
26.9037
19.9
88.7374
50.4667
29.6816
18.6848
13.7684
123.199
83.3115
51.2796
32.5707
24.1579
118.987
77.0102
46.9297
29.7553
22.0506
162.706
99.68
59.5103
37.3903
27.6866
156.147
96.1009
57.472
36.125
26.7157
7.64516
9.07551
6.02584
3.88897
2.90318
0.471804
3.40194
2.36932
1.55934
1.18328
19.585
15.7271
9.91162
6.32203
4.71663
2.99214
4.92288
3.26976
2.12325
1.61304
31.6437
24.0799
14.9184
9.5219
7.13669
18.0806
12.589
7.46658
4.64439
3.47653
96.3253
59.0132
34.8722
22.0268
16.3999
48.103
29.3439
17.1436
10.7743
8.03979
121.901
64.9175
37.1721
23.1507
17.0628
2454.74
4259.82
2313.72
4132.64
2153.31
3844.42
2097.94
3695.39
2292.5
4224.72
1341.8
1966.12
1866.43
2951.05
886.581
1176.88
345.022
470.655
7260.27
1747.87
400.738
88.7447
22.2174
1934.16
512.715
137.261
30.7347
6.84845
7205.83
1710.57
389.279
85.5743
21.3245
1998.41
581.587
142.921
33.1232
8.29242
6954.05
1622.34
365.172
79.65
19.7353
1940.11
562.689
137.209
31.4744
7.80468
6526.11
1492.37
332.805
72.3058
17.8995
1866.92
529.222
126.455
28.5397
6.97708
5724.98
1288.95
287.095
62.6051
15.6002
1738.92
470.428
109.851
24.4805
5.92958
3215.95
772.811
178.206
39.7533
10.0765
886.178
225.202
48.9662
10.1084
2.30601
4488.23
1048.44
237.479
52.3271
13.1573
1235.6
323.103
73.8755
16.2606
3.91765
2016.14
496.897
116.239
26.183
6.67423
566.98
147.406
31.5284
6.19894
1.34882
740.919
184.771
43.5656
9.88165
2.53275
275.564
65.1979
13.1338
3.54924
0.513275
-1251.63
624.558
4181.89
-3571.95
976.233
1041.26
2610.04
3183.66
2157.04
3481.17
2874.74
4343.19
2742.26
3582.42
1311.39
1911.84
1428.99
1664.11
998.264
1034.36
2876.37
2266.32
-350.087
-906.883
-986.516
-1320.51
-690.957
11970.7
3146.08
4077.85
3323.67
362.485
-30.0893
3311.48
-989.941
-432.222
-820.572
-281.22
5910.36
3046.52
1373.99
765.996
3295.67
1521.05
225.26
397.45
-1115.36
-1101.54
863.027
738.035
9311.78
4592.56
4504.87
2599.67
3437.51
3189.41
-11.4884
-1077.96
305.46
2023.33
1794.58
1585.62
1490.49
1147.2
1821.72
1483.17
1212.1
901.818
360.441
-314.81
-262.527
-192.955
-115.474
-38.0903
-809.997
-677.112
-507.814
-314.127
-106.245
-881.271
-736.434
-551.385
-340.248
-114.935
-1180.74
-988.103
-741.327
-458.434
-155.048
-611.188
-503.925
-370.946
-225.173
-75.3808
8940.94
8269.19
7137.99
6764.63
6391.43
2943.39
2429.75
2231.78
1899.37
874.282
3346.27
2694.36
2285.06
1832.4
860.199
2588.13
2047.41
1707.43
1294.46
496.102
308.974
220.481
232.943
191.283
101.608
42.2486
99.8744
125.6
107.35
42.3935
2760.19
2220.86
1740.32
1216.22
465.599
-627.757
-335.623
-170.598
-77.5336
-25.1043
-346.173
-246.894
-148.989
-70.5476
-18.7741
-596.618
-387.336
-228.286
-116.435
-36.0556
-262.614
-223.638
-163.529
-95.4862
-30.3671
4105.48
4066.04
3576.45
3571.55
3632.46
2528.45
2005.15
1688.38
1305.62
521.186
1262.5
1108.64
912.433
634.611
233.022
677.014
574.502
463.338
318.992
116.28
2765.96
2214.98
1698.02
1136.43
415.138
1365.92
1152.49
903.667
590.835
195.793
194.569
164.165
136.777
98.2052
35.8124
361.049
313.539
253.935
171.575
60.5089
-968.399
-783.041
-567.705
-341.48
-113.748
-970.892
-797.239
-584.549
-353.559
-117.995
766.1
648.172
509.2
337.422
120.322
654.217
552.655
434.228
287.599
102.06
6187.5
5031.71
4494.08
4393.28
3703.07
3606.81
2872.94
2321.97
1733.05
726.046
3596.18
3064.47
2605.14
2163.5
928.71
2082.37
1726.97
1397.48
1023.75
462.024
2954.59
2415.02
1857.03
1222.71
432.164
2676.89
1938.65
1601.15
1192.3
226.535
-5.95722
5.47379
23.1241
29.3791
12.3038
-957.464
-793.013
-586.017
-356.486
-119.36
286.311
258.079
223.99
161.59
56.8281
-28697.9
-44932.9
-21709.4
-38197.1
-23107.9
-53709.7
-30407.2
-65298.4
-16224.2
-10864.9
-18039.1
-9687.47
-15147.5
-9939.49
-18189.6
-8626.71
-23597
-16578.6
-32720.7
-23582.6
-18570.9
-13587.3
-28179.9
-21098.4
-14263.2
-14473.1
-9972.06
-9599.19
-12102.1
-12820.4
-42996.7
-13216.8
-13721.6
-6529.68
-50604.9
-16065.7
-12457.4
-5994.24
-30057.8
-9907.47
-15252
-7118.38
-25231.7
-7700.77
-11310.7
-4809.34
-15513.1
-5832.11
-9841.28
-4397.33
-14353
-5119.3
-10249.3
-4948.85
-8770.32
-3349.59
-12423.6
-4414.31
-4869.38
-1803.18
-10189.9
-7331.95
-8319.84
-6193.13
-8844.87
-7539.64
-7398.49
-6477
-8311.7
-6069.44
-9599.04
-7533.52
-6248.26
-4580.36
-3709.62
-2627.58
-5655.05
-4749.74
-3241.69
-2593.02
-6301.2
-4323.85
-3776.73
-2303.31
-7418.28
-3928.04
-6330.23
-6816.82
-9630.04
-6760.43
-8980.59
-11584
-5289.44
-2222.13
-4091.26
-4113.69
-3083.09
-1102.15
-1938.64
-1613.49
-9921.98
-12643.7
-5675.09
-14259.5
-9833.99
-12336.1
-6199.98
-14751
-10888
-11920.1
-7709.95
-14454.5
-6075.42
-3744.31
-7791.96
-9048.36
-9291.69
-5578.36
-7734.28
-11591.8
-13260
-18776.6
-5009.92
-5714.74
-6964.48
-9482.23
-15020.1
-13366.5
-11009.8
-16578
-13751.4
-12980.9
-11302.9
-16595.2
-13862.2
-11870.7
-10514.4
-15689.3
-13773.7
-8204.65
-7694.73
-8174.13
-7385.83
-9386.31
-8347.97
-10792.3
-9549.84
-15064.4
-13825.5
-6774.73
-7427.57
-7539.05
-7361.68
-8634.79
-8398.45
-10480.5
-10403.2
-15020.7
-14768.7
-7998.87
-5448.44
-6704.56
-6847.25
-8380.54
-10540.4
-7058.08
-9987.92
-6568.87
-6631.52
-8155.39
-5754
-2563.73
-4900.71
-724.56
-1491.6
-4183.28
-7405.95
-1115.06
-2284.35
-2388.02
-4494.85
-696.715
-1422.28
-6527.97
-5449.9
-6818.13
-4173.89
-9063.68
-6295.38
-10630.9
-6875.92
-3002.74
-3443.86
-3856.02
-2127.02
-2266.62
-2432.41
-2621.9
-1939.38
-8027.71
-3101.61
-8556.91
-2978.18
-8220.58
-3080.19
-8978.42
-3308.15
-7868.54
-2900.6
-9718.78
-3841.39
-4327.27
-1021.44
-5152.32
-1847.36
-5965.41
-2326.02
-7226.65
-2739.76
-9683.62
-3755.24
-5274.58
-860.801
-4541.44
-1523.58
-5227.96
-1926.39
-6795.83
-2520.28
-8781.65
-2874.05
-6186.74
-6021.13
-3971.29
-3851.48
-9841.96
-7813.45
-7595.97
-6010.4
-5379.11
-4998.95
-2061.16
-1698.93
-5031.21
-4893.87
-1756.97
-1677.78
-2434.78
-5709.4
-3682.42
-6904.43
-4733.95
-1981.97
-3068.24
-662.641
-6564.2
-2227.96
4106.43
1306.51
-149.867
45.1092
1099.32
1292.89
-2648.16
-1453.25
-1046.84
-424.562
-2638.95
-1602.62
-1132.82
-402.628
-2891.71
-1920.92
-1218.97
-234.024
-1009.26
337.675
367.795
1038.31
-5055.97
-4983.14
-3709.01
-4240.19
-7277.23
-7026.96
-5916.18
-5930.25
-2510.58
-3222.07
-4095.33
-3927.76
-2497.91
-2847.54
-1168.21
-1225.9
-4187.89
-4082.1
-2315.18
-2061.43
-1263.41
-2011.45
-251.287
-699.648
-1613.52
-979.869
-2579.51
-1526.53
-2746.31
-2055.95
-3205.84
-2351.2
-639.826
-192.92
-1565.86
-607.72
269.191
555.09
-409.454
258.702
-3001.36
-3069.1
-2550.27
-4077.57
-3091.83
-3224.3
-2689.17
-4180.57
-3655.01
-3351.53
-3052.49
-4097.69
-2191.66
-2619.01
-2803.04
-2763.23
-2575.34
-4364.34
-3503.58
-3335.99
-4157.95
-4506.29
-4460.92
-3419.18
-2940.38
-2771.33
-2179.48
-4126.85
-5256.4
-7084.66
-12270.1
-3939.15
-4449.13
-6653.11
-11403
-3985.82
-4858.79
-6106.15
-10197.7
-7511.93
-6487.6
-6052.72
-5321.05
-4290.87
-4751.54
-4569.98
-5563.16
-5248.42
-9126.33
-5086.34
-5908.95
-3718.92
-4805.36
-3105.41
-4345
-3364.79
-5008.38
-3145.08
-7252.12
-2300.38
-2455.59
-1231.71
-276.816
-4682.27
-4133.09
-3899.59
-2253.2
-606.516
-79.4715
-1605.65
-2133.04
-2523.25
-611.391
-467.387
11.5008
-3913.36
-1922.2
-937.076
-491.5
-1783.17
-340.652
-208.091
164.191
-570.305
-1515.51
-1496.14
-3940.25
-1606.17
-3100.69
-2199.01
-5705.56
-1076.83
-911.464
-638.317
-2465.69
320.755
491.842
901.635
7.07002
-4421.18
-1450.91
-9011.71
-1269.84
-3809.58
-1577.55
-8507.4
-1258.56
-3409.02
-1014.75
-7063.71
-650.878
-3513.23
-763.61
-3085.05
-733.547
-3519.28
-1058.49
-3363.29
-557.099
-6335.27
-554.863
-4297.69
-545.909
-3828.13
-575.622
-3866.67
-762.935
-3987.54
-410.086
-6284.59
-640.832
-669.739
-198.3
-74.3057
157.332
-207.723
-51.6329
-25.0069
43.9767
-643.794
-160.773
-68.0203
153.201
-84.1391
32.5885
1.61861
51.9756
-694.22
-130.698
-42.2021
227.225
191.394
268.392
306.431
401.258
697.883
518.176
524.593
517.122
1012.52
723.055
582.134
419.78
-277.447
89.3758
214.342
460.053
-272.5
133.205
157.713
509.971
-798.671
-125.975
-7.06527
375.378
-628.717
-16.4102
5.90043
512.987
200.857
306.069
346.491
479.025
97.8702
283.391
269.201
450.961
601.974
485.639
413.366
357.952
488.506
427.088
340.646
337.862
-1102.59
-334.872
-162.783
276.503
-1509.46
-411.584
-301.978
455.257
-1075.02
-304.415
-165.449
273.113
-1463.83
-389.412
-296.556
439.068
-1069.07
-267.737
-192.659
259.168
-1320.72
-337.62
-288.667
382.503
-729.592
-94.3414
-117.049
289.12
-1241.88
-257.429
-306.228
481.495
-539.008
-24.9531
-23.4022
439.692
-1492.19
-320.282
-243.15
395.269
-654.484
-117.996
-62.788
109.067
-1338.26
-272.15
-224.638
379.893
-606.483
-103.155
-59.7331
104.51
-1084.77
-185.981
-204.722
336.142
-504.652
-71.1785
-52.9003
98.8091
-843.822
-120.179
-178.427
286.802
-424.855
-53.1239
-53.334
87.1314
-562.689
-35.3903
-97.6637
276.491
-233.662
4.56339
-21.2987
90.945
-200.41
113.252
129.522
350.598
151.139
186.016
151.634
190.319
-475.106
-16.2861
-10.2382
293.31
-21.936
90.2785
56.065
131.041
122.803
263.851
239.071
368.292
273.164
271.183
224.865
228.289
425.939
383.994
291.389
294.945
382.513
329.451
246.973
216.783
47.6332
17.2289
8.05091
4.62607
3.34356
20.5489
7.99642
3.84525
2.21226
1.5875
67.9268
28.9052
14.9706
8.96992
6.58051
51.0392
24.9006
13.8171
8.48868
6.27314
125.624
58.5655
31.8598
19.3535
14.2314
189.048
101.743
57.9363
35.7774
26.4729
197.461
108.609
61.9877
38.21
28.1939
193.788
110.881
64.6371
40.201
29.7169
160.852
79.054
43.5552
26.5614
19.6362
131.616
62.2572
33.9735
20.6102
15.2099
156.437
74.617
41.0651
24.9682
18.395
100.187
49.9152
27.8142
16.9348
12.5308
183.049
93.2014
51.8645
31.6858
23.3575
163.461
84.0443
47.0386
28.7925
21.2699
181.071
102.373
59.4446
36.9108
27.271
175.301
99.2199
57.5224
35.6825
26.3754
51.4293
15.4798
6.81587
3.84457
2.76102
23.9759
6.08444
2.52046
1.3758
0.964656
59.7548
21.2998
10.3476
6.05437
4.38385
25.9834
7.4673
3.3673
1.90945
1.34793
75.0771
28.7896
14.6375
8.65416
6.25292
34.9726
14.1312
7.54929
4.60142
3.33543
127.929
58.3946
31.9409
19.2688
14.0607
61.243
28.0883
15.5498
9.42819
6.85917
111.012
59.8992
34.2578
21.0634
15.564
-2840.88
-4294.76
-2712.82
-4203.91
-2500.74
-3911.9
-2364
-3726.42
-2375.37
-4065.41
-1342.04
-1913.22
-1889.13
-2862.94
-852.559
-1122.06
-288.287
-407.582
-7942.22
-1885.95
-427.997
-94.0063
-23.361
-2094.3
-552.641
-146.962
-32.6483
-7.21296
-7794.43
-1830.13
-413.096
-90.199
-22.3359
-2172.29
-627.794
-152.929
-35.1627
-8.73953
-7368.01
-1709
-382.909
-83.1673
-20.5175
-2101.11
-603.711
-146.008
-33.2558
-8.19479
-6753.98
-1543.25
-343.807
-74.5802
-18.4227
-1987.34
-559.804
-133.088
-29.8945
-7.27707
-5805.11
-1310.72
-292.365
-63.7752
-15.8844
-1800.21
-487.894
-113.873
-25.3326
-6.1242
-3210.28
-773.34
-178.72
-39.9333
-10.1341
-886.217
-227.381
-49.7831
-10.3283
-2.36625
-4499.73
-1054.43
-239.378
-52.8168
-13.2896
-1252.5
-330.099
-75.735
-16.6867
-4.02164
-2005.5
-495.495
-116.176
-26.2203
-6.69485
-555.872
-146.166
-31.5447
-6.25638
-1.37409
-728.821
-182.689
-43.2661
-9.85475
-2.53564
-258.035
-62.0096
-12.6578
-3.50078
-0.514846
725.408
-1503.38
-5403.33
1833
-6607.44
-2900.82
-6475.66
-2938.57
-10980.8
-5977.29
-12869.5
-7031.89
-121.545
-490.637
-761.13
-878.447
-771.936
-413.035
-193.62
-746.246
-1133.67
-1255.04
-1023.5
-379.922
-95.8914
-93.6984
-356.678
-334.497
-459.11
-442.256
-322.927
-331.891
-208.301
-245.656
-357.698
-272.633
483.124
1755.82
3418.66
2728.08
2479.23
1199.81
743.209
2226.51
3699.57
4095.4
3490.73
1608.33
-109.604
-92.6449
-70.1995
-43.7422
-14.8523
-443.064
-375.187
-284.838
-177.768
-60.4125
-687.254
-581.884
-441.711
-275.659
-93.6805
-792.829
-670.927
-509.052
-317.567
-107.901
-696.306
-588.801
-446.343
-278.221
-94.4845
-373.073
-315.581
-238.844
-148.427
-50.2774
-174.512
-147.426
-111.652
-69.5495
-23.6118
-673.571
-570.069
-432.585
-269.897
-91.7098
-1023.03
-865.616
-656.753
-409.745
-139.235
-1131.81
-957.022
-725.725
-452.654
-153.803
-922.253
-779.153
-590.439
-368.135
-125.07
-343.001
-290.169
-219.874
-136.909
-46.4523
-86.5258
-73.1987
-55.5107
-34.6108
-11.7549
-84.5996
-71.6208
-54.3546
-33.9105
-11.5212
-322.201
-272.954
-207.305
-129.414
-43.9837
-302.228
-256.09
-194.54
-121.465
-41.2862
-414.673
-351.234
-266.716
-166.482
-56.5785
-399.465
-338.359
-256.944
-160.388
-54.5091
-291.68
-247.06
-187.583
-117.058
-39.7713
-299.62
-253.631
-192.481
-120.087
-40.7996
-188.035
-159.078
-120.53
-75.0311
-25.4481
-221.355
-186.946
-141.526
-88.1167
-29.9026
-321.969
-271.318
-204.634
-126.863
-42.9228
-245.133
-206.407
-155.693
-96.6119
-32.7197
429.829
359.831
272.69
171.468
58.7491
1556.71
1299.18
983.464
619.116
212.438
2997.66
2485.12
1889.07
1205.76
419
2379.56
1994.34
1536.5
1001.06
366.052
2175.34
1826.28
1408.29
912.452
319.675
1083.99
926.276
718.77
460.941
157.501
662.464
554.688
419.14
262.234
89.4955
1979.54
1654.64
1250.71
784.274
268.278
3271.61
2726.21
2064.15
1302.24
448.268
3607.52
3005.14
2283.47
1451.36
504.724
3071.26
2559.39
1950.82
1245.6
433.361
1428.58
1201.47
922.38
590.835
205.367
280.617
646.956
911.447
1019.62
902.386
553.636
413.297
959.814
1331.99
1424.56
1150.9
464.909
216.676
190.526
469.643
425.994
553.829
519.976
386.111
381.389
257.793
234.861
485.17
304.042
-321.689
-1524.69
-3002.71
-2181.46
-1804.52
-446.19
-680.937
-2125.74
-3462.77
-3668.6
-2862.21
-848.692
253.841
215.409
163.898
102.472
34.8577
584.908
495.998
377.114
235.645
80.1374
823.778
698.317
530.771
331.584
112.751
921.285
780.733
593.249
370.548
125.989
815.345
690.91
524.927
327.821
111.449
501.615
426.087
324.094
202.344
68.7416
373.789
317.121
241.239
150.808
51.298
867.447
735.294
558.865
349.142
118.725
1203.25
1019.43
774.499
483.732
164.475
1286.15
1089.04
827.033
516.442
175.589
1038.51
878.887
667.204
416.593
141.644
420.609
356.788
271.185
169.316
57.5411
196.019
166.358
126.586
79.146
26.9227
172.363
146.277
111.302
69.5864
23.6701
424.669
360.195
273.913
171.176
58.2132
385.218
326.745
248.482
155.286
52.8097
500.676
424.555
322.776
201.674
68.5766
470.055
398.562
302.994
189.304
64.3699
349.145
296.153
225.203
140.717
47.8461
344.688
292.186
222.069
138.717
47.1623
233.382
198.174
150.779
94.2069
32.0222
212.216
179.844
136.637
85.3205
29.0005
438.918
372.311
282.927
176.588
59.9922
274.679
232.681
176.664
110.238
37.456
-282.514
-233.414
-175.353
-110.019
-37.7355
-1346.41
-1119.37
-845.635
-532.515
-182.902
-2617.26
-2157.78
-1636.72
-1046.76
-364.682
-1867.45
-1542.19
-1177.94
-769.1
-286.668
-1535.96
-1256.15
-950.036
-609.976
-212.733
-366.861
-283.3
-198.278
-114.308
-34.2903
-606.133
-506.907
-382.822
-239.563
-81.7905
-1889.03
-1578.55
-1193.47
-748.924
-256.346
-3056.57
-2542.84
-1924.09
-1214.6
-418.484
-3214.2
-2663.92
-2017.76
-1282.05
-446.671
-2487.12
-2047.79
-1547.94
-985.684
-343.181
-719.743
-577.63
-428.32
-270.209
-93.6717
-1942.84
-1404.68
750.681
1245.58
1312.02
1818.65
1186.84
-10018.3
-1570.15
-3038.54
-1337.65
668.122
-4049.1
984.92
2399.2
841.677
-4925.32
-1999.19
-535.388
-266.001
-2926.86
-739.797
209.887
170.186
1869.45
1811.96
-466.04
-271.554
-8333.09
-3826.54
-3553.33
-1814.47
-2903.4
-2196.56
686.455
1831
334.533
-1044.73
-871.345
-779.169
-890.876
-898.399
-978.417
-710.405
-569.751
-458.887
-198.027
683.913
582.92
442.635
274.72
92.8915
1121.7
947.345
718.202
448.247
152.378
1182.41
999.053
757.031
471.954
160.373
1638.08
1383.51
1048.42
653.887
222.247
1070.85
905.678
686.304
427.609
145.337
-7238.05
-6966.81
-6312.48
-6566.28
-7019.81
-1089.8
-695.573
-801.52
-926.929
-464.137
-2304.42
-1749.02
-1526.91
-1348.23
-698.984
-904.145
-631.391
-614.557
-567.209
-195.898
593.211
490.622
362.167
219.817
74.3766
-3360.21
-2698.41
-2112.47
-1475.76
-563.887
880.96
737.109
551.711
339.776
114.28
2084.93
1707.24
1284.29
815.649
285.445
759.398
640.816
482.178
297.165
99.657
-3180.83
-3253.13
-2963.58
-3276.76
-3790.85
-1482.68
-1033.77
-891.663
-778.48
-334.537
-426.644
-336.587
-280.156
-215.311
-84.415
-198.104
-143.812
-118.087
-94.515
-38.1247
-2445.02
-1951.95
-1510.25
-1031.68
-384.136
-617.857
-477.592
-358.529
-231.691
-68.0564
211.004
192.532
144.592
82.8943
26.9344
171.38
157.346
119.433
69.9335
23.427
1670.3
1399.66
1055.45
657.709
223.948
1629.42
1373.19
1037.65
645.438
219.166
-389.951
-312.511
-241.387
-163.508
-59.8179
-216.358
-165.542
-127.905
-90.12
-33.6722
-5273.63
-4230.49
-3867.84
-4040.53
-3699.95
-2883.62
-2227.91
-1805.94
-1398.34
-611.788
-2645.53
-2217.39
-1908.21
-1704.65
-750.891
-1338.85
-1062.83
-865.825
-679.317
-348.413
-2456.4
-1977.85
-1513.45
-1002.7
-355.285
-1730.06
-1061.98
-891.148
-726.931
-41.6554
637.263
551.571
417.747
255.335
86.5373
1650.48
1394.19
1054.94
656.295
222.773
325.471
293.02
220.159
129.574
45.4815
-91.346
-191.274
-229.863
-282.535
-414.298
-580.051
-20157.8
-16593.1
-15598.6
-18682.6
-14198.7
-10885.3
-13051.2
-9919.52
-17756.3
-14123.7
-14931.6
-12708.9
-12836.4
-9761.72
-12152.7
-16992.5
-14890.4
-13240.8
-15038.3
-12630.4
-9799.86
-11247
-8450.7
-16446
-13871.6
-14816
-12983.6
-12809.6
-10693.3
-12426.3
-13254.5
-12144.5
-10631
-11573
-10573.2
-8744.31
-9454.23
-8103.86
-13676.4
-12510.8
-12979.9
-12069.3
-11840.2
-10265.5
-11541.6
-9116.53
-8743.83
-7570.68
-7873.9
-8096.31
-7585.54
-7221.28
-7202.93
-9875.98
-10939.6
-9560.66
-10493.4
-9126.04
-8317.21
-9950.66
-5870.2
-5779.4
-4874.12
-4953.03
-5703.87
-5776.78
-4813.85
-4981.48
-6912.71
-8435.84
-6794.02
-7861.74
-6685.71
-6482.23
-7478.78
-2145.22
-2131.51
-1754.31
-1771.27
-2146.52
-2252.91
-1728.37
-1721.14
-2828.99
-3546.3
-2762.59
-3124.06
-2744.47
-2719.1
-2974.83
-7547.96
-7598.31
-10645.3
-11729
-7619.72
-7215.95
-9901.94
-8249.11
-7145.07
-4614.6
-7280.71
-4537.33
-7372.4
-7403.89
-4631.2
-7177.28
-7018.67
-9819.11
-10609.3
-6781.89
-5975.4
-8932
-7327.91
-5029.12
-1889.73
-4981.08
-2129.12
-4242.41
-4046.01
-2479.8
-6036.17
-5931.56
-8274.94
-8727.02
-5964.67
-5501.82
-7754.63
-6960.86
-2659.03
-1810.56
-2633.11
-2420.49
-2573.01
-2839.61
-3112.71
-4448.04
-4465.43
-6075.14
-6215.02
-4602.85
-4545.97
-5976.29
-5879.14
-2747.64
-1681.82
-2961.37
-2650.38
-3244.34
-3806.41
-3596.02
-2762.24
-2780.64
-3871.57
-3907.82
-2725.15
-2736.25
-3846.88
-3799.68
-1531.58
-1240.85
-1736.99
-2096.95
-2220.73
-2718.49
-2823.71
-931.03
-940.608
-1369.56
-1377.4
-937.866
-985.805
-1355.18
-1315.03
-265.104
-513.657
-434.956
-949.467
-757.932
-986.054
-1182.12
7194.7
21665
5511.7
24214.1
3022.5
25645.3
5162.1
40625.7
8435.91
51016.1
8640.51
36186
9215.73
32155
8974
26978.3
4274.54
2322.43
12892.1
6086.22
3988.41
1831.66
13899.1
5593.22
5499.33
4050.13
16130.5
11784.3
3723.27
2929.63
16548.5
12526
8388.38
3045.78
6351.06
2304.24
2897.8
7780.86
39727.7
12140.2
11925.6
5510.4
48234.3
15121.9
11128.3
5229.84
26303
8767.89
13404.3
6110.09
21410
6806.46
4927.52
2658.73
8569.53
3459.93
4420.5
2791.81
9196.81
3467.45
5920.36
3760.46
5769.31
2420.55
10260.5
3705.24
4038.44
1491.89
12541.3
9446.7
7603.49
6823.71
14010.8
12280.8
7599.14
8107.51
7053.96
6061.36
9208.45
7888.37
5658.79
4871.23
3283.79
2823.83
5634.86
5621.36
3220.53
3225.06
5422.66
4258.48
3165.87
2237.04
6059.83
3411.52
6088.29
6712.8
8062.84
6137.94
8718.25
11486.9
4423.66
1894.11
3909.44
4032.72
2503.37
875.622
1793.13
1548.75
5698.06
11532.4
4133.87
13044
6159.1
11645.5
4949.63
13849.3
8109.09
11565.8
6859.27
14098.7
8971.94
10757.8
6937.33
6971.45
8508.01
7095.82
7837.45
10814.4
12632.3
18512.8
9595.47
7770.05
7423.38
9411.21
14969
14379.1
13926.2
16812.5
16905.7
14003.1
14043.1
16826.2
16779.3
12912.4
13421.5
16135.4
16324
8935.12
9492.03
8752.52
9255.34
10637.8
10675.2
12458.1
12154.2
15746.5
15959.1
8151.24
8959.73
9229.76
9881.85
10318.5
11177.2
11904.3
13099.1
15679.3
17084.4
9537.69
6509.4
7719.56
7781.65
10676.2
12145.9
8681.59
11478.9
7091.92
7209.62
9022.6
6478.41
3262.49
5617.72
1334.78
2092.42
5376.68
8509.43
2107.01
3186.83
2742.28
4932.07
1025.04
1798.08
6753.08
5766.3
6905.92
4327.18
9509.93
6789.46
10824.6
7239.56
3157.78
3676.19
3931.56
2238.45
2431.63
2650.32
2708.86
2056.53
12093.8
7956.55
2607.64
13088.5
8232.82
2845.41
11905.7
7785.04
2647.87
13081.9
8220.25
2785.39
11371
7322.94
2454.61
12853.1
8092.35
2782.71
6797.43
3883.75
1015.08
8080.33
5517.51
1794.18
9293.59
6545.06
2208.3
10290.3
6703.51
2197.82
12439.3
7825.99
2767.54
7492.76
4112.76
1348.55
7279.46
4713.65
1638.17
8196.92
5406.34
1850.84
9738.86
6255.12
2137.69
11801.9
6889.04
2386.16
-497.203
990.716
444.048
2644.03
1782.36
1801.47
4595.91
4025.97
592.804
969.935
626.845
1013.61
343.048
945.861
630.639
1385.29
1898.91
1138.08
3823.82
2707.13
1751.51
2882.6
2932.57
828.22
5889.81
1866.95
-4142.33
-607.45
668.62
700.472
24.6949
180.857
10301
4521.32
2731.94
1618.07
10161.7
4592.36
2986.61
1922.32
9828.34
5029.17
4025.66
2858.92
3093.38
2022.88
1735.04
1569.09
13123.7
11471.7
5750.97
7350.55
14718.4
13744.3
7165.4
8592.99
5232.11
6312.19
11139.3
9188.6
3659.82
4795.64
2108.62
2789.07
4790.17
5598.84
2764.82
3206.38
2975.6
4164.07
1670.85
2534
4668.16
3325.87
5296.27
3574.75
8022.93
4795.43
7122.03
4695.36
2778.02
2276.07
3676.67
2456.03
1561.9
1436.35
2328.4
1519.12
12035.5
8043.72
5907.82
6160.68
11927
7994.06
5834.98
6024.92
12052.4
7669.99
5943.43
5602.97
13229.4
12791.7
12335.5
9486.16
5480.72
7789.88
9375.96
9900.35
9287.65
6520.55
11069.6
9910.15
8211.57
6642.04
4347.78
6889.88
6837.31
6916.14
8380.59
6839.71
6605.29
6742.96
8197.92
6512.24
6230.51
6407.62
7840.36
8750.96
8274.74
8138.34
7001.78
6082.85
6098.08
5872.91
6132.91
5596.79
7387.02
6422.1
7278.26
5361.37
6099.23
4766.64
5454.29
4674.21
5618.43
4254.08
6779.91
4737.28
3798.1
3243.36
1731.39
7286.02
5537.2
5887.8
3720.52
2468.73
1415.41
3654.62
3296.88
4225.42
1835.66
1970.14
1084.82
5502.69
3147.61
2263.53
1559.76
3428.52
1462.16
1748.64
877.323
2086.4
2495.18
2590.17
4380.55
3148.55
3845.2
3121.55
5690.93
2512.2
1828.66
1903.13
3140.37
1137
453.197
416.036
793.054
5401.16
2477.29
714.987
5819.38
1555.76
411.172
5254.2
2581.89
806.547
5776.83
1599.64
443.87
4786.65
2369.18
612.58
5496.42
1480.2
335.204
5595.95
3060.75
807.638
4686.33
2518.1
702.179
4571.87
2300.72
657.346
4486.46
2129.88
495.979
5212.4
1307.17
222.933
6206.89
3266.67
1012.8
5334.89
2909.56
958.399
4802.82
2523.56
829.165
4601.5
1895.87
515.185
5427.61
1353.47
431.669
1742.94
667.242
320.495
15.2951
703.152
283.766
147.563
29.8459
1808.81
719.534
385.716
79.6899
860.812
386.47
250.178
116.926
2074.28
859.941
503.361
160.787
1482.43
762.193
432.02
199.596
1098.29
682.503
326.724
105.385
1145.64
776.534
449.05
247.845
1735.75
825.125
430.511
49.0202
1652.51
760.924
450.585
-30.6053
2180.38
918.809
545.354
126.372
1955.32
811.107
505.339
-54.9257
1320.56
720.727
374.425
51.55
1287.66
671.855
411.215
68.8408
985.302
627.126
392.623
225.781
900.304
561.513
384.096
218.008
2238.88
818.085
397.716
-67.5339
2342.85
798.347
445.021
-230.571
2229.65
829.827
433.017
-34.8602
2241.6
768.514
443.533
-212.677
2245.27
853.526
500.924
15.3249
2010.54
696.618
440.589
-151.235
2087.97
823.539
550.737
147.558
2218.32
789.634
566.712
-144.654
1625.76
640.149
434.544
50.0603
1941.19
587.875
333.641
-218.287
765.016
209.477
102.2
-51.0062
1906.11
593.266
342.158
-193.385
774.605
219.268
112.64
-37.3957
1792.67
579.715
356.899
-149.511
746.449
221.878
125.996
-18.4159
1511.49
497.999
343.389
-100.63
658.35
196.901
135.208
6.03917
1326.82
466.208
333.993
-34.426
593.858
199.973
151.822
40.6959
1042.45
451.512
273.142
19.3029
546.317
277.86
171.691
90.3079
1110.48
410.556
278.674
-7.45476
541.06
223.66
157.735
68.4707
926.635
483.856
292.181
71.7447
554.005
328.371
198.923
122.621
723.495
466.626
311.676
185.317
513.628
353.714
236.019
174.093
14.9673
10.8706
6.91643
4.41215
3.26953
8.35429
5.53885
3.46057
2.20612
1.64108