/*--------------------------------*- C++ -*----------------------------------*\
| =========                 |                                                 |
| \\      /  F ield         | OpenFOAM: The Open Source CFD Toolbox           |
|  \\    /   O peration     | Version:  2412                                  |
|   \\  /    A nd           | Website:  www.openfoam.com                      |
|    \\/     M anipulation  |                                                 |
\*---------------------------------------------------------------------------*/
FoamFile
{
    version     2.0;
    format      ascii;
    arch        "LSB;label=32;scalar=64";
    class       volScalarField;
    location    "2.2";
    object      T;
}
// * * * * * * * * * * * * * * * * * * * * * * * * * * * * * * * * * * * * * //

dimensions      [0 0 0 1 0 0 0];

internalField   nonuniform List<scalar> 
5712
(
540.714
557.001
528.033
547.553
511.082
533.626
484.819
509.333
488.266
513.029
512.591
536.982
523.761
546.039
534.25
553.494
502.351
486.491
519.352
494.793
476.536
459.323
492.487
466.465
548.345
554.888
561.126
564.393
538.731
547.316
553.832
558.917
537.594
525.04
512.639
505.701
538.78
549.09
538.95
544.439
502.662
509.622
515.644
521.357
474.318
480.385
550.246
555.116
521.716
530.942
560.418
565.969
559.553
567.393
566.916
570.64
552.727
564.845
562.104
568.882
543.382
560.492
552.18
565.004
558.551
567.202
562.4
568.576
473.225
458.962
480.424
462.001
440.077
427.305
447.652
431.083
507.268
489.699
501.056
486.614
485.39
464.072
488.287
465.18
452.985
433.596
456.038
434.944
511.957
491.796
514.659
492.851
532.274
558.527
517.087
548.093
526.649
554.803
513.328
544.834
536.227
560.382
519.309
549.978
538.338
561.156
520.289
551.143
555.369
545.84
564.538
557.401
547.859
538.292
561.389
553.342
536.89
526.67
555.907
546.669
458.728
420.374
492.624
519.043
547.909
419.096
456.784
488.595
513.667
539.738
418.376
453.704
482.928
508.26
538.258
526.778
509.184
530.571
513.819
521.578
503.972
528.55
511.39
512.933
495.726
524.932
507.561
412.256
399.539
449.733
437.31
479.463
464.586
501.841
485.558
521.37
503.841
411.055
396.968
445.342
432.075
473.424
459.045
497.176
481.168
518.607
500.413
444.047
433.392
442.996
432.317
410.002
389.968
408.711
386.619
472.33
464.021
472.868
463.73
442.377
431.188
442.985
431.922
408.604
385.233
409.67
386.743
471.719
463.122
472.336
463.82
498.867
490.981
521.471
514.331
498.463
489.479
520.7
511.524
498.394
490.271
521.519
514.811
498.545
490.528
521.428
514.267
488.813
471.922
462.683
491.837
474.242
464.86
484.188
466.968
457.739
489.137
470.843
461.194
475.206
457.515
447.937
484.691
465.361
455.237
383.104
371.218
365.152
420.276
404.59
396.117
446.567
428.846
418.894
465.375
447.263
437.536
479.57
458.983
448.102
379.29
366.763
359.937
416.479
402.216
394.755
441.746
425.42
416.719
460.397
441.592
431.515
473.833
453.124
442.44
415.596
402.374
419.44
406.671
444.586
428.737
452.949
434.914
387.656
367.482
388.896
369.471
388.494
367.946
390.279
370.538
388.403
385.177
387.835
381.375
366.904
371.138
409.441
412.344
439.231
443.067
390.006
392.408
390.399
392.176
373.545
375.207
345.875
326.972
351.456
330.323
347.378
326.7
352.912
330.532
348.457
326.182
355.255
331.208
358.365
333.468
360.524
335.315
381.061
369.39
388.285
374.321
407.801
394.801
415.88
399.762
367.578
354.182
360.146
349.529
392.374
377.267
394.848
378.894
420.694
402.735
423.501
404.264
371.386
357.011
373.534
358.644
350.196
328.444
338.417
322.6
343.597
324.232
334.558
319.808
353.995
331.293
340.937
324.506
356.233
333.288
342.548
325.772
328.401
317.369
320.199
312.931
329.532
318.975
319.905
313.057
330.988
322.511
319.416
313.86
361.185
385.358
344.024
332.777
318.495
383.408
357.735
338.057
326.179
314.256
383.659
359.675
342.003
329.285
316.515
308.389
299.798
305.271
296.908
310.854
302.208
306.288
298.12
315.146
306.982
308.01
300.173
376.671
364.276
350.909
339.796
332.85
324.32
320.912
312.811
310.245
302.855
376.433
363.643
353.253
342.359
336.203
326.985
323.706
314.94
313.004
305.563
356.318
342.851
357.395
342.172
377.769
361.348
378.631
359.064
340.468
328.321
339.279
328.215
358.333
341.686
359.743
343.094
379.874
357.303
381.361
358.75
341.389
328.47
342.622
329.629
326.218
316.313
315.476
306.129
325.919
315.657
314.77
305.926
326.461
317.008
315.869
306.153
328.017
317.762
316.559
307.355
289.161
283.315
281.04
282.313
278.229
276.872
292.253
286.07
283.499
283.597
279.343
277.803
297.178
290.7
288.114
285.582
280.97
279.341
350.681
341.221
336.744
329.097
321.664
318.443
314.35
307.754
305.186
302.475
295.853
293.166
287.486
282.758
280.896
349.075
338.882
333.97
330.335
321.603
317.353
315.995
308.397
304.886
303.113
296.837
294.401
288.686
284.145
281.884
312.054
302.739
296.796
291.916
313.526
303.327
297.077
291.962
311.94
302.77
296.904
292.075
313.766
303.537
297.319
292.191
311.666
302.778
297.077
292.333
314.079
303.835
297.644
292.488
315.296
304.558
297.966
292.615
316.511
305.36
298.344
292.771
313.064
303.602
297.635
292.703
310.831
302.864
297.253
292.877
311.064
302.682
297.18
292.621
309.487
302.191
296.907
292.833
314.584
304.404
297.98
292.768
311.96
303.503
297.573
292.994
315.789
305.134
298.371
292.974
312.913
304.111
297.955
293.254
309.615
301.828
296.41
291.933
306.74
300.796
295.932
292.031
309.457
301.818
296.465
292.059
306.768
300.845
295.98
292.136
309.184
301.792
296.549
292.279
307.056
301.022
296.116
292.332
308.732
301.729
296.616
292.563
307.207
301.153
296.258
292.576
308.175
301.617
296.589
292.789
304.108
299.946
295.387
292.465
302.598
299.538
295.149
292.64
304.515
300.114
295.494
292.55
303.068
299.723
295.253
292.719
305.183
300.405
295.671
292.697
303.852
300.046
295.431
292.858
305.993
300.761
295.935
292.915
304.823
300.46
295.684
293.047
307.023
301.231
296.253
293.147
305.765
300.9
295.948
293.247
308.476
302.145
296.726
293.505
307.067
301.813
296.497
293.676
307.803
301.67
296.481
293.33
306.509
301.364
296.22
293.461
309.101
302.642
296.976
293.667
307.634
302.301
296.771
293.89
309.857
303.2
297.323
293.914
308.391
302.853
297.12
294.158
287.028
283.66
281.208
279.621
278.843
287.041
283.668
281.213
279.624
278.846
287.094
283.692
281.225
279.631
278.851
287.12
283.71
281.237
279.638
278.856
287.166
283.728
281.245
279.643
278.859
287.236
283.776
281.274
279.661
278.873
287.4
283.871
281.33
279.696
278.899
287.56
283.968
281.388
279.733
278.926
287.323
283.815
281.295
279.674
278.882
287.356
283.821
281.296
279.674
278.882
287.243
283.767
281.267
279.656
278.869
287.307
283.792
281.279
279.663
278.874
287.418
283.873
281.33
279.696
278.898
287.449
283.877
281.33
279.695
278.898
287.588
283.979
281.393
279.736
278.928
287.614
283.98
281.392
279.735
278.927
287.017
283.651
281.202
279.617
278.841
287.017
283.646
281.199
279.615
278.839
287.069
283.675
281.215
279.624
278.846
287.063
283.667
281.21
279.621
278.843
287.137
283.707
281.231
279.634
278.853
287.128
283.696
281.225
279.63
278.85
287.214
283.743
281.251
279.646
278.861
287.193
283.728
281.242
279.64
278.857
287.265
283.769
281.265
279.655
278.868
538.861
534.394
538.157
533.646
536.821
532.294
535.207
530.484
533.838
528.79
534.424
531.463
534.023
530.351
534.605
531.795
534.844
532.014
565.793
571.414
572.641
572.92
572.98
559.825
569.809
572.278
572.843
572.962
565.895
571.464
572.656
572.924
572.981
559.773
569.841
572.291
572.847
572.963
565.886
571.5
572.668
572.927
572.982
559.578
569.851
572.301
572.85
572.964
565.904
571.539
572.68
572.93
572.982
559.307
569.835
572.303
572.851
572.964
565.921
571.551
572.681
572.93
572.982
559.064
569.782
572.287
572.846
572.963
564.756
571.134
572.563
572.899
572.974
558.451
569.381
572.152
572.809
572.951
565.219
571.319
572.619
572.914
572.978
558.67
569.567
572.22
572.828
572.957
564.448
571.009
572.525
572.889
572.97
558.32
569.272
572.11
572.796
572.947
564.564
571.027
572.525
572.888
572.97
558.402
569.273
572.103
572.792
572.946
422.934
461.019
458.06
420.583
402.221
404.061
409.342
412.501
422.185
425.411
448.461
455.458
452.798
459.479
430.586
433.126
421.446
423.859
412.954
414.929
363.157
345.442
301.199
295.668
299.792
296.256
300.794
362.924
357.07
339.169
346.369
340.675
319.203
329.293
324.23
313.919
317.105
312.401
357.264
331.821
316.478
314.166
320.525
316.338
308.845
308.996
307.139
304.266
311.138
309.436
357.459
336.657
343.267
326.449
320.246
332.003
309.752
303.569
312.803
347.531
332.879
319.863
305.737
286.195
335.108
323.996
312.133
298.762
282.324
298.372
294.407
289.212
283.109
276.435
293.439
290.281
286.106
281.176
275.778
297.127
293.367
288.421
282.608
276.263
293.966
290.721
286.434
281.377
275.846
298.016
294.109
288.982
282.96
276.383
347.226
331.233
317.402
303.08
285.175
341.005
325.601
312.143
298.359
282.176
329.607
318.81
307.214
294.675
280.602
332.594
318.915
306.605
294.12
280.593
328.37
315.522
303.904
292.188
279.704
313.752
306.725
298.2
288.629
278.315
321.68
312.626
302.397
291.269
279.265
317.577
309.403
299.949
289.629
278.649
309.386
303.324
295.737
287.095
277.781
311.972
305.28
297.099
287.909
278.056
308.106
302.306
294.989
286.627
277.619
343.615
329.063
316.085
302.225
284.681
324.293
315.151
304.702
293.046
279.959
311.609
305.161
297.149
288.017
278.108
309.686
303.667
296.089
287.378
277.892
315.054
307.953
299.289
289.437
278.622
311.594
305.253
297.315
288.179
278.169
305.113
299.987
293.399
285.725
277.327
305.243
300.081
293.444
285.732
277.326
303.605
298.712
292.388
285.048
277.087
301.088
296.651
290.87
284.12
276.775
307.062
301.515
294.455
286.327
277.523
305.613
300.366
293.634
285.836
277.359
343.514
329.475
316.893
303.199
285.053
328.275
318.591
307.745
295.449
280.97
334.002
322.139
310.339
297.153
281.003
320.189
312.185
302.64
291.712
279.407
314.96
307.988
299.403
289.538
278.634
324.663
315.469
305.027
293.268
279.877
305.904
300.629
293.865
286.006
277.421
300.47
296.141
290.498
283.898
276.701
308.537
302.759
295.435
286.979
277.754
504.271
543.972
496.471
534.071
472.81
514.269
480.027
525.316
487.318
476.496
514.391
490.626
463.219
451.033
488.686
463.301
521.719
535.978
552.291
558.113
515.852
530.296
545.869
553.084
531.642
509.751
508.261
495.684
525.588
543.904
537.313
544.092
500.876
509.188
514.243
521.012
472.999
480.047
548.468
554.774
519.942
530.525
559.042
565.756
548.562
563.626
563.135
569.358
542.22
561.382
558.31
567.627
534.919
557.728
548.417
563.741
557.181
566.699
562.127
568.466
470.294
459.615
478.657
462.393
439.91
430.703
447.346
432.936
504.83
489.246
496.742
485.666
484.584
464.341
488.081
465.288
452.876
434.599
456.026
435.288
510.843
491.633
514.364
492.818
529.958
557.663
516.418
547.805
522.332
553.185
511.969
544.254
535.183
559.982
519.024
549.855
538.062
561.046
520.213
551.11
537.354
524.877
558.524
550.039
530.884
518.975
556.093
546.945
523.292
512.108
551.82
542.115
461.279
431.723
488.648
512.874
545.51
431.938
459.462
483.263
505.733
536.72
428.322
456.561
481.573
505.811
537.244
505.8
490.771
521.241
507.803
502.432
487.274
520.942
506.84
498.496
483.844
520.052
505.401
424.837
414.484
452.358
441.604
474.94
462.215
495.225
481.486
518.783
503.645
421.161
408.342
449.273
438.49
473.533
462.263
496.055
483.04
518.088
502.018
447.126
437.811
445.15
435.234
416.287
397.688
412.628
391.535
473.294
465.668
473.854
466.051
443.612
432.807
443.385
432.428
410.641
387.708
410.308
387.506
472.366
464.117
472.557
464.141
499.212
491.816
521.625
514.762
498.52
490.629
520.689
512.169
498.701
490.817
521.672
515.095
498.666
490.724
521.485
514.363
479.449
473.468
495.501
489.754
475.654
469.109
494.022
487.008
472.115
465.268
491.486
482.54
403.756
397.885
431.477
424.419
451.945
444.047
469.727
461.532
487.799
476.879
393.87
389.092
428.462
422.444
451.409
443.923
469.125
459.534
482.6
471.747
408.001
400.073
416.285
406.416
434.74
423.582
449.989
433.176
389.529
371.345
393.966
374.852
387.666
371.247
392.65
374.933
389.668
384.428
389.552
382.901
370.765
374.728
409.673
412.478
438.596
442.919
391.123
392.867
391.615
392.628
375.886
376.078
357.623
338.981
359.708
339.89
358.21
337.926
360.043
338.932
358.24
336.193
360.892
337.891
361.757
337.625
361.689
336.751
387.016
378.081
391.246
379.216
410.92
401.391
417.238
403.338
372.143
359.855
368.686
359.115
393.93
379.868
395.327
379.757
421.397
404.611
423.721
404.888
373.789
360.092
374.277
359.67
356.027
334.262
344.205
327.797
353.733
332.979
343.869
327.561
357.122
334.667
344.17
327.522
357.202
334.382
343.641
326.779
353.894
350.478
336.636
332.878
354.21
350.88
335.366
331.654
353.561
350.43
333.395
329.932
381.495
403.866
363.764
350.332
330.548
404.786
382.211
363.236
348.57
328.345
399.879
377.228
358.417
343.499
326.919
346.302
339.917
326.846
316.485
347.045
341.149
326.183
316.326
346.718
340.784
325.086
315.862
398.168
388.876
376.792
369.086
359.466
353.595
344.741
338.067
324.691
316.317
392.6
380.381
371.498
361.231
353.614
344.778
338.731
329.839
323.919
316.226
366.957
353.514
363.562
348.375
387.204
371.465
384.141
365.133
346.672
334.152
349.786
338.22
361.46
344.729
360.715
344.022
382.627
360.279
382.211
359.656
344.594
331.356
343.634
330.52
331.825
321.296
320.345
310.136
335.34
324.108
322.355
312.431
329.474
319.581
318.568
308.258
329.041
318.599
317.376
307.984
333.091
330.293
297.507
294.633
336.102
332.75
298.27
295.179
334.617
329.899
298.852
295.129
379.836
374.56
361.656
357.378
346.555
342.453
329.825
324.833
299.087
294.677
368.065
364.14
350.694
346.901
334.678
330.968
318.129
315.065
297.126
293.698
320.365
308.047
300.298
294.193
320.841
308.176
300.351
294.119
319.747
307.786
300.218
294.222
320.249
307.875
300.273
294.142
318.673
307.322
300.12
294.329
319.333
307.397
300.093
294.096
318.695
306.914
299.567
293.625
317.718
306.208
298.929
293.153
317.402
306.557
299.693
294.102
314.727
305.558
299.163
294.273
317.054
306.621
299.86
294.422
314.972
305.856
299.391
294.546
317.246
306.264
299.318
293.728
314.301
305.163
298.793
293.936
316.696
305.777
298.833
293.299
313.699
304.675
298.374
293.58
319.341
307.731
300.198
294.388
317.733
307.248
299.943
294.674
318.74
307.504
300.122
294.431
317.255
307.08
299.866
294.704
317.755
307.118
300
294.541
316.5
306.78
299.751
294.775
316.275
306.512
299.761
294.675
315.701
306.439
299.623
294.852
314.963
306.008
299.466
294.739
315.826
306.773
299.505
295.409
314.469
306.522
299.348
295.766
315.598
306.669
299.483
295.411
314.285
306.42
299.317
295.753
315.144
306.452
299.406
295.389
313.922
306.215
299.23
295.716
314.682
306.171
299.345
295.381
313.548
305.94
299.138
295.673
314.078
305.787
299.232
295.352
312.977
305.58
298.993
295.604
312.328
304.874
298.618
294.974
310.861
304.566
298.398
295.189
313.289
305.383
298.979
295.217
311.965
305.117
298.741
295.443
311.384
304.318
298.163
294.614
309.852
303.98
297.951
294.84
310.603
303.761
297.725
294.237
309.108
303.408
297.514
294.478
288.307
284.4
281.642
279.891
279.043
288.276
284.389
281.636
279.888
279.041
288.279
284.375
281.625
279.88
279.035
288.224
284.353
281.613
279.873
279.03
288.242
284.347
281.606
279.868
279.026
288.126
284.293
281.577
279.85
279.013
287.958
284.197
281.522
279.816
278.987
287.779
284.097
281.464
279.78
278.961
288.097
284.264
281.558
279.838
279.003
288.129
284.268
281.558
279.837
279.003
288.197
284.314
281.586
279.855
279.016
288.191
284.298
281.575
279.848
279.01
287.979
284.202
281.523
279.816
278.988
288.011
284.207
281.524
279.817
278.988
287.779
284.092
281.46
279.777
278.959
287.814
284.099
281.462
279.778
278.959
288.348
284.415
281.648
279.895
279.046
288.385
284.424
281.652
279.897
279.047
288.334
284.398
281.636
279.887
279.04
288.374
284.409
281.642
279.89
279.042
288.312
284.374
281.62
279.876
279.031
288.354
284.387
281.626
279.88
279.034
288.275
284.343
281.601
279.864
279.022
288.308
284.357
281.608
279.868
279.025
288.233
284.319
281.587
279.855
279.016
534.216
530.341
534.295
530.394
534.223
530.303
533.831
529.688
533.454
528.923
534.539
531.688
534.026
530.594
534.715
531.957
534.886
532.07
565.064
571.287
572.617
572.916
572.979
558.62
569.559
572.229
572.833
572.96
565.29
571.358
572.635
572.92
572.98
558.773
569.63
572.249
572.839
572.961
565.471
571.424
572.653
572.924
572.981
558.901
569.7
572.27
572.844
572.963
565.681
571.496
572.671
572.928
572.982
558.96
569.747
572.283
572.847
572.963
565.847
571.533
572.676
572.929
572.982
558.965
569.744
572.277
572.844
572.962
564.777
571.136
572.563
572.899
572.973
558.501
569.386
572.152
572.809
572.951
565.215
571.315
572.617
572.914
572.978
558.686
569.559
572.216
572.827
572.957
564.47
571.013
572.525
572.889
572.97
558.365
569.28
572.111
572.796
572.947
564.572
571.029
572.525
572.888
572.97
558.418
569.276
572.103
572.792
572.946
422.814
460.653
456.679
419.709
413.324
419.603
411.15
418.843
440.406
456.472
444.32
459.543
280.473
281.063
282.378
284.469
287.35
291.032
280.974
281.556
282.845
284.868
287.648
291.213
280.063
279.857
280.664
280.458
282.023
281.826
284.249
284.132
287.333
287.444
291.343
291.899
295.451
300.999
308.258
318.062
326.352
332.382
295.609
300.961
307.337
314.355
320.421
324.298
279.762
278.74
277.368
275.731
273.929
280.295
279.191
277.71
275.945
274.002
281.482
280.197
278.474
276.422
274.164
283.37
281.794
279.686
277.178
274.421
285.967
283.989
281.35
278.216
274.773
289.28
286.784
283.466
279.534
275.221
280.215
279.124
277.66
275.913
273.991
280.74
279.568
277.997
276.124
274.063
281.903
280.553
278.744
276.59
274.221
283.729
282.097
279.915
277.321
274.469
286.234
284.213
281.519
278.321
274.809
289.44
286.917
283.566
279.596
275.242
279.391
278.425
277.129
275.582
273.878
279.205
278.267
277.009
275.507
273.853
279.935
278.886
277.479
275.8
273.953
279.748
278.728
277.359
275.725
273.927
281.162
279.925
278.268
276.293
274.12
280.984
279.775
278.154
276.222
274.096
283.172
281.627
279.56
277.099
274.394
283.067
281.538
279.492
277.057
274.38
285.952
283.977
281.341
278.21
274.771
286.052
284.062
281.405
278.249
274.785
289.561
287.021
283.645
279.645
275.258
290.06
287.442
283.962
279.841
275.325
293.245
290.119
285.986
281.103
275.754
298.196
294.265
289.113
283.053
276.418
304.614
299.6
293.133
285.575
277.281
313.142
306.61
298.438
288.962
278.458
320.169
312.334
302.84
291.888
279.53
325.182
316.395
306.011
294.067
280.347
293.382
290.233
286.073
281.159
275.774
298.162
294.239
289.097
283.047
276.417
303.82
298.959
292.66
285.28
277.181
309.993
304.08
296.534
287.73
278.026
315.275
308.443
299.853
289.862
278.775
318.629
311.211
301.975
291.245
279.266
280.583
281.399
282.964
285.341
288.552
292.605
281.087
281.899
283.436
285.731
288.805
292.671
280.17
279.962
280.995
280.784
282.606
282.404
285.136
285.023
288.588
288.721
293.082
293.781
297.391
303.245
310.651
320.203
327.859
332.929
297.338
302.871
309.26
316.026
321.569
324.708
279.862
278.825
277.433
275.772
273.943
280.6
279.45
277.909
276.069
274.044
282.014
280.649
278.82
276.639
274.238
284.162
282.469
280.203
277.502
274.531
287.06
284.922
282.065
278.665
274.927
290.713
288.011
284.408
280.127
275.424
280.317
279.21
277.726
275.955
274.005
281.051
279.833
278.199
276.251
274.106
282.44
281.01
279.094
276.809
274.296
284.513
282.765
280.427
277.642
274.579
287.286
285.111
282.208
278.754
274.957
290.768
288.054
284.439
280.146
275.43
279.488
278.508
277.192
275.621
273.892
279.3
278.348
277.071
275.546
273.866
280.234
279.141
277.673
275.922
273.994
280.043
278.979
277.55
275.845
273.968
281.691
280.376
278.612
276.509
274.194
281.508
280.221
278.495
276.435
274.169
283.977
282.313
280.085
277.428
274.506
283.875
282.227
280.019
277.388
274.492
287.094
284.952
282.088
278.679
274.932
287.214
285.055
282.166
278.728
274.948
291.146
288.378
284.688
280.302
275.483
291.777
288.914
285.094
280.555
275.569
295.016
291.64
287.157
281.843
276.007
300.255
296.041
290.488
283.926
276.717
306.823
301.521
294.633
286.534
277.611
315.143
308.374
299.837
289.869
278.773
321.595
313.606
303.862
292.562
279.768
325.705
316.866
306.394
294.324
280.439
294.961
291.588
287.116
281.818
275.999
299.911
295.746
290.263
283.786
276.67
305.589
300.491
293.852
286.04
277.442
311.54
305.429
297.592
288.41
278.261
316.344
309.382
300.595
290.342
278.942
319.012
311.549
302.243
291.42
279.327
364.008
346.198
303.953
297.895
303.186
298.953
304.005
371.683
369.844
348.104
360.703
326.355
338.035
320.438
325.003
318.565
363.134
338.089
322.441
319.305
326.084
320.717
312.077
313.143
312.55
308.86
316.683
314.26
360.092
338.796
347.65
329.535
324.025
336.933
313.539
307.399
317.372
348.436
333.741
320.629
306.329
286.439
335.858
324.69
312.719
299.175
282.478
300.901
296.592
290.906
284.186
276.805
295.474
292.029
287.453
282.028
276.07
300.239
296.054
290.503
283.93
276.717
296.431
292.841
288.07
282.412
276.2
300.964
296.656
290.957
284.215
276.814
356.959
340.745
325.802
309.301
287.758
355.487
339.464
324.225
307.183
285.728
338.727
327.402
314.474
299.705
282.465
348.791
334.017
319.465
303.251
284.168
320.666
312.999
303.297
292
279.506
330.529
320.896
309.292
295.953
280.965
315.563
308.841
300.155
289.979
278.789
319.537
312.102
302.611
291.539
279.334
313.935
307.506
299.147
289.337
278.564
349.854
335.089
321.373
306.114
286.287
330.442
320.812
309.387
296.215
281.102
317.274
310.231
301.219
290.681
279.041
314.52
307.956
299.504
289.598
278.665
320.354
312.719
303.138
291.972
279.515
315.712
308.906
300.226
290.073
278.829
308.11
302.605
295.453
287.043
277.782
309.095
303.454
296.096
287.437
277.916
308.615
303.084
295.816
287.247
277.847
305.318
300.32
293.729
285.944
277.403
312.261
306.11
298.1
288.686
278.342
310.106
304.312
296.745
287.839
278.052
346.288
332.083
319.169
304.894
285.761
330.357
320.49
309.314
296.521
281.362
338.402
326.215
313.773
299.531
281.818
323.127
314.823
304.772
293.121
279.898
318.527
311.164
301.945
291.199
279.213
329.466
319.857
308.64
295.699
280.735
309.423
303.713
296.291
287.566
277.961
303.997
299.202
292.882
285.419
277.224
312.813
306.534
298.427
288.916
278.427
279.928
293.209
305.205
315.538
323.765
329.917
485.457
480.235
456.785
462.021
472.329
465.757
449.14
440.329
505.21
522.503
501.193
517.895
495.784
486.717
512.957
475.414
471.609
449.018
453.048
465.047
460.203
442.619
435.749
494.65
508.358
492.073
505.17
487.668
480.17
501.375
461.395
459.043
438
440.781
454.332
451.569
433.137
428.033
478.772
492.516
477.179
490.566
474.427
469.275
488.049
447.293
445.714
426.358
428.508
442.222
440.498
422.319
417.875
463.807
477.535
462.749
475.996
460.548
456.247
473.913
437.122
435.753
417.84
419.82
432.371
430.439
413.895
408.896
452.463
464.983
451.708
464.39
449.833
445.761
462.768
430.076
428.752
412.077
414.002
425.401
423.385
408.217
403.309
443.911
456.672
443.187
456.508
441.644
437.83
454.898
406.858
403.941
430.03
433.778
400.062
392.864
424.383
415.394
383.856
364.586
381.442
363.978
376.304
374.92
362.965
402.725
399.857
424.401
427.654
396.095
389.236
419.255
411.163
378.857
362.288
376.334
361.97
371.734
370.773
360.896
396.628
393.962
416.018
418.664
390.433
384.37
411.642
404.897
376.677
360.629
374.386
359.736
370.084
369.06
358.104
389.782
387.094
406.671
409.026
383.03
376.543
402.527
395.638
372.577
357.768
370.05
356.026
365.435
363.595
353.343
384.782
382.07
399.84
402.117
378.081
371.546
395.724
388.795
369.354
356.219
366.489
353.215
361.443
358.747
349.231
381.725
378.981
395.342
397.593
375.037
368.46
391.273
384.527
368.266
354.707
365.149
350.82
359.222
355.925
346.218
541.344
557.422
528.031
547.525
511.083
533.616
484.824
509.333
488.276
513.03
512.602
536.976
523.778
546.027
535.092
554.063
502.349
486.49
519.346
494.79
476.539
459.324
492.488
466.465
548.793
555.218
561.406
564.597
538.723
547.3
553.801
558.889
537.582
525.032
512.634
505.696
538.768
549.076
538.949
544.438
502.66
509.621
515.644
521.357
474.318
480.385
550.242
555.115
521.714
530.941
560.415
565.968
559.811
567.509
567.076
570.705
552.706
564.84
562.081
568.875
543.37
560.489
552.169
565.001
558.547
567.201
562.399
568.576
473.223
458.961
480.422
462
440.077
427.305
447.651
431.083
507.265
489.697
501.052
486.612
485.388
464.071
488.285
465.179
452.985
433.595
456.037
434.944
511.955
491.795
514.657
492.85
532.269
558.525
517.085
548.092
526.644
554.801
513.326
544.833
536.224
560.381
519.308
549.978
538.336
561.155
520.288
551.142
555.619
546.075
564.676
557.553
547.831
538.259
561.382
553.332
536.876
526.657
555.902
546.665
458.726
420.374
492.62
519.036
547.907
419.096
456.782
488.592
513.66
539.736
418.375
453.702
482.925
508.256
538.257
526.979
509.351
530.709
513.927
521.563
503.954
528.56
511.396
512.925
495.719
524.934
507.564
412.255
399.538
449.731
437.308
479.46
464.584
501.837
485.555
521.37
503.842
411.055
396.968
445.34
432.074
473.422
459.043
497.174
481.167
518.606
500.412
444.046
433.391
442.995
432.317
410.002
389.968
408.711
386.619
472.328
464.02
472.867
463.729
442.377
431.187
442.984
431.921
408.604
385.233
409.669
386.743
471.718
463.121
472.335
463.82
498.866
490.98
521.47
514.33
498.461
489.478
520.699
511.524
498.393
490.27
521.518
514.811
498.544
490.528
521.427
514.266
488.984
472.107
462.886
491.953
474.382
465.017
484.178
466.96
457.736
489.142
470.848
461.202
475.202
457.513
447.937
484.693
465.364
455.241
383.104
371.218
365.152
420.275
404.59
396.117
446.566
428.846
418.894
465.373
447.262
437.537
479.571
458.984
448.104
379.29
366.763
359.937
416.478
402.216
394.755
441.745
425.42
416.719
460.396
441.592
431.515
473.833
453.125
442.442
415.605
402.377
419.448
406.674
444.593
428.74
452.955
434.916
387.532
367.429
388.742
369.396
388.481
367.935
390.265
370.528
388.401
385.174
387.836
381.375
366.9
371.135
409.442
412.346
439.232
443.068
390.007
392.409
390.4
392.178
373.545
375.208
345.825
326.965
351.392
330.306
347.377
326.692
352.911
330.528
348.455
326.179
355.254
331.206
358.364
333.467
360.525
335.315
381.062
369.391
388.287
374.322
407.802
394.802
415.881
399.763
367.579
354.183
360.147
349.53
392.375
377.268
394.85
378.895
420.695
402.735
423.501
404.264
371.387
357.012
373.536
358.645
350.196
328.443
338.417
322.6
343.597
324.231
334.559
319.808
353.995
331.293
340.938
324.507
356.234
333.288
342.549
325.772
328.36
317.305
320.193
312.907
329.533
318.979
319.898
313.053
330.988
322.514
319.414
313.86
361.186
385.358
344.026
332.778
318.495
383.409
357.736
338.058
326.181
314.257
383.659
359.676
342.004
329.286
316.515
308.308
299.706
305.245
296.875
310.864
302.22
306.295
298.13
315.151
306.989
308.013
300.179
376.671
364.276
350.91
339.797
332.852
324.322
320.915
312.815
310.247
302.858
376.433
363.643
353.253
342.36
336.204
326.986
323.707
314.942
313.005
305.564
356.319
342.852
357.396
342.172
377.77
361.348
378.631
359.064
340.469
328.321
339.28
328.216
358.333
341.686
359.743
343.095
379.874
357.303
381.362
358.75
341.389
328.47
342.623
329.629
326.219
316.313
315.476
306.13
325.92
315.657
314.77
305.927
326.461
317.008
315.869
306.153
328.017
317.762
316.56
307.356
289.073
283.233
280.96
282.308
278.215
276.855
292.272
286.088
283.514
283.612
279.355
277.812
297.187
290.708
288.121
285.589
280.976
279.346
350.681
341.222
336.745
329.099
321.666
318.444
314.353
307.757
305.189
302.48
295.858
293.17
287.489
282.761
280.899
349.075
338.883
333.971
330.336
321.604
317.354
315.996
308.399
304.888
303.115
296.84
294.404
288.687
284.146
281.885
312.055
302.736
296.79
291.907
313.517
303.318
297.066
291.951
311.937
302.769
296.903
292.075
313.766
303.536
297.319
292.191
311.665
302.778
297.077
292.333
314.079
303.835
297.643
292.488
315.296
304.558
297.966
292.615
316.511
305.36
298.344
292.771
313.064
303.602
297.635
292.703
310.831
302.864
297.253
292.877
311.064
302.682
297.18
292.621
309.488
302.191
296.907
292.833
314.584
304.405
297.98
292.768
311.96
303.503
297.574
292.994
315.789
305.135
298.372
292.974
312.914
304.111
297.955
293.254
309.619
301.827
296.406
291.927
306.734
300.793
295.929
292.027
309.455
301.817
296.464
292.059
306.767
300.845
295.98
292.136
309.183
301.792
296.549
292.279
307.056
301.022
296.115
292.332
308.732
301.729
296.616
292.563
307.208
301.153
296.258
292.576
308.175
301.617
296.589
292.789
304.104
299.943
295.385
292.46
302.587
299.533
295.145
292.636
304.519
300.115
295.494
292.55
303.072
299.724
295.253
292.718
305.185
300.406
295.671
292.697
303.854
300.047
295.431
292.858
305.994
300.762
295.935
292.915
304.824
300.46
295.684
293.047
307.024
301.231
296.253
293.147
305.765
300.901
295.948
293.247
308.477
302.146
296.726
293.505
307.067
301.814
296.497
293.676
307.803
301.67
296.481
293.33
306.51
301.364
296.22
293.461
309.102
302.642
296.976
293.667
307.634
302.302
296.771
293.89
309.857
303.201
297.323
293.914
308.392
302.853
297.12
294.159
287.025
283.658
281.207
279.62
278.843
287.037
283.666
281.212
279.623
278.845
287.094
283.692
281.226
279.631
278.851
287.12
283.71
281.237
279.638
278.856
287.166
283.729
281.245
279.643
278.86
287.236
283.776
281.274
279.661
278.873
287.401
283.871
281.33
279.696
278.899
287.56
283.968
281.388
279.733
278.926
287.323
283.815
281.295
279.674
278.882
287.356
283.821
281.296
279.674
278.882
287.243
283.767
281.267
279.656
278.869
287.307
283.792
281.279
279.663
278.874
287.419
283.873
281.33
279.696
278.898
287.449
283.877
281.33
279.696
278.898
287.588
283.979
281.394
279.736
278.928
287.614
283.981
281.392
279.735
278.927
287.014
283.65
281.202
279.617
278.84
287.015
283.645
281.198
279.615
278.839
287.068
283.675
281.215
279.625
278.846
287.063
283.667
281.21
279.621
278.843
287.137
283.707
281.232
279.634
278.853
287.128
283.696
281.225
279.63
278.85
287.214
283.743
281.251
279.646
278.861
287.193
283.729
281.242
279.64
278.857
287.265
283.769
281.266
279.655
278.868
538.918
534.457
538.173
533.662
536.829
532.301
535.21
530.487
533.839
528.791
534.423
531.463
534.023
530.351
534.605
531.795
534.844
532.013
565.829
571.422
572.643
572.921
572.98
559.851
569.815
572.279
572.843
572.962
565.908
571.468
572.657
572.924
572.981
559.787
569.847
572.292
572.847
572.963
565.891
571.501
572.669
572.927
572.982
559.585