/*--------------------------------*- C++ -*----------------------------------*\
| =========                 |                                                 |
| \\      /  F ield         | OpenFOAM: The Open Source CFD Toolbox           |
|  \\    /   O peration     | Version:  2412                                  |
|   \\  /    A nd           | Website:  www.openfoam.com                      |
|    \\/     M anipulation  |                                                 |
\*---------------------------------------------------------------------------*/
FoamFile
{
    version     2.0;
    format      ascii;
    arch        "LSB;label=32;scalar=64";
    class       surfaceScalarField;
    location    "90/topAir";
    object      phi;
}
// * * * * * * * * * * * * * * * * * * * * * * * * * * * * * * * * * * * * * //

dimensions      [1 0 -1 0 0 0 0];

oriented        oriented;

internalField   nonuniform List<scalar> 
3140
(
9.0704004e-06
1.163026e-07
8.2266484e-08
8.8428282e-06
1.234213e-07
1.0415098e-07
8.618021e-06
1.1474599e-07
1.1006128e-07
8.3942556e-06
1.1067239e-07
1.1309319e-07
8.1731486e-06
1.069308e-07
1.1417642e-07
7.9587011e-06
1.0141733e-07
1.1303046e-07
7.7537244e-06
9.47564e-08
1.1022065e-07
7.5601032e-06
8.72034e-08
1.0641817e-07
7.3799669e-06
7.8096597e-08
1.020403e-07
7.2169377e-06
6.5714008e-08
9.7315754e-08
7.0784118e-06
4.6147579e-08
9.2379064e-08
6.9767531e-06
1.4405162e-08
8.7254293e-08
6.9345285e-06
-4.0417514e-08
8.2644468e-08
6.8996567e-06
-4.3980546e-08
7.8888934e-08
6.8630139e-06
-4.2099548e-08
7.8809028e-08
6.8181547e-06
-3.6782127e-08
8.1734395e-08
6.7610123e-06
-2.9213301e-08
8.647203e-08
6.6901026e-06
-2.0949062e-08
9.1995881e-08
6.605756e-06
-1.2889898e-08
9.7391985e-08
6.5095909e-06
-5.4883237e-09
1.0182479e-07
6.4037787e-06
1.4628495e-09
1.0453309e-07
6.2881612e-06
1.0940001e-08
1.048708e-07
6.1639369e-06
2.1797572e-08
1.026274e-07
6.0290866e-06
3.780465e-08
9.7251327e-08
5.8776779e-06
6.3467864e-08
8.8149696e-08
5.6968868e-06
1.0591357e-07
7.5087649e-08
5.458842e-06
1.7913501e-07
5.9119816e-08
5.1035871e-06
3.1217582e-07
4.3287788e-08
4.5071777e-06
5.6873129e-07
2.7884511e-08
1.1085763e-06
-1.3397702e-09
9.3011018e-06
-1.2718501e-10
8.4288973e-08
9.3177948e-06
-2.7044731e-10
1.0699878e-07
9.3192312e-06
-4.9445605e-10
1.1380406e-07
9.312584e-06
-8.7211498e-10
1.1819166e-07
9.3002259e-06
-1.5156513e-09
1.2080461e-07
9.2829746e-06
-2.6150771e-09
1.2128376e-07
9.2620213e-06
-4.4876347e-09
1.2019735e-07
9.2386973e-06
-7.651825e-09
1.1817923e-07
9.2141347e-06
-1.2930078e-08
1.1558935e-07
9.1887964e-06
-2.1545745e-08
1.1259814e-07
9.1606235e-06
-3.5000113e-08
1.0932071e-07
9.1229316e-06
-5.3855098e-08
1.0595223e-07
9.0574921e-06
-7.7156092e-08
1.021783e-07
9.0061005e-06
-9.1327515e-08
9.8739597e-08
8.9608984e-06
-9.1789482e-08
9.4894644e-08
8.9218832e-06
-8.8393334e-08
9.063095e-08
8.8894502e-06
-8.2802994e-08
8.6029782e-08
8.8628439e-06
-7.555744e-08
8.1224598e-08
8.8408758e-06
-6.7257047e-08
7.6348333e-08
8.8219806e-06
-5.8027235e-08
7.1450864e-08
8.8039795e-06
-4.7056774e-08
6.6542934e-08
8.7858948e-06
-3.2509454e-08
6.156233e-08
8.7646781e-06
-1.294984e-08
5.5999211e-08
8.7361491e-06
1.6919021e-08
4.945716e-08
8.6924062e-06
6.5366397e-08
4.1895161e-08
8.6226133e-06
1.4242157e-07
3.3345304e-08
8.5099773e-06
2.6820172e-07
2.3641011e-08
8.3351481e-06
4.729684e-07
1.4122563e-08
8.0901918e-06
8.0413948e-07
9.6535764e-09
1.2981464e-06
3.0708684e-08
9.301016e-06
-1.1648021e-07
8.4289612e-08
9.3175274e-06
-1.2378244e-07
1.0700051e-07
9.3186131e-06
-1.1538788e-07
1.1380776e-07
9.3113234e-06
-1.1178035e-07
1.1819795e-07
9.2978168e-06
-1.0882306e-07
1.2081395e-07
9.2785458e-06
-1.046398e-07
1.2129578e-07
9.2540926e-06
-1.0024397e-07
1.2020949e-07
9.224819e-06
-9.65624e-08
1.181842e-07
9.1904393e-06
-9.4121887e-08
1.1557146e-07
9.1497928e-06
-9.3426562e-08
1.1252734e-07
9.1006465e-06
-9.4972417e-08
1.0911859e-07
9.0402573e-06
-9.8844672e-08
1.0537885e-07
8.9658988e-06
-1.0408822e-07
1.0129073e-07
8.8848247e-06
-1.0717376e-07
9.6920366e-08
8.8055787e-06
-1.0469084e-07
9.2147529e-08
8.7299488e-06
-9.9700865e-08
8.6937704e-08
8.6596526e-06
-9.3814465e-08
8.1308071e-08
8.5961838e-06
-8.7361854e-08
7.5273728e-08
8.5406268e-06
-8.0513903e-08
6.8814729e-08
8.4939973e-06
-7.3251117e-08
6.1854666e-08
8.4579084e-06
-6.5004962e-08
5.4038735e-08
8.4348034e-06
-5.4404142e-08
4.500204e-08
8.4264703e-06
-3.9023025e-08
3.4409361e-08
8.4351117e-06
-1.4304036e-08
2.2586645e-08
8.4646135e-06
2.6292155e-08
9.5797502e-09
8.5211275e-06
8.992051e-08
-4.0019944e-09
8.6153119e-06
1.8730784e-07
-1.3274283e-08
8.771534e-06
3.3722538e-07
-2.0454259e-08
9.0344726e-06
5.6124801e-07
-2.0008259e-08
8.6911296e-07
-8.1944204e-09
9.0701968e-06
8.2267183e-08
8.8422612e-06
1.0415314e-07
8.6168069e-06
1.1006638e-07
8.3919243e-06
1.1310222e-07
8.1689114e-06
1.1418985e-07
7.9512246e-06
1.1304705e-07
7.7407465e-06
1.1023407e-07
7.5377734e-06
1.0641073e-07
7.3416808e-06
1.0197078e-07
7.1511565e-06
9.7097727e-08
6.9643167e-06
9.1867355e-08
6.7791863e-06
8.6285729e-08
6.5947982e-06
8.0299977e-08
6.4137916e-06
7.3832847e-08
6.2422695e-06
6.6831361e-08
6.0832861e-06
5.9282595e-08
5.9382369e-06
5.1234819e-08
5.8081482e-06
4.2726828e-08
5.6941052e-06
3.3529165e-08
5.5974638e-06
2.3390433e-08
5.5208385e-06
1.1620589e-08
5.4693019e-06
-2.8672494e-09
5.4475017e-06
-1.7222444e-08
5.4687722e-06
-3.5573887e-08
5.5516723e-06
-5.6606765e-08
5.7193027e-06
-7.7707995e-08
6.0005616e-06
-9.3947807e-08
6.4395134e-06
-1.0172058e-07
7.0999483e-06
-9.9175766e-08
-9.3645273e-08
9.1965707e-06
1.1824643e-07
3.6418776e-08
9.1099803e-06
1.2545673e-07
6.5284797e-08
9.0239471e-06
1.1652716e-07
7.9567418e-08
8.9372712e-06
1.1271322e-07
8.7055975e-08
8.8504161e-06
1.0939475e-07
9.163705e-08
8.7651967e-06
1.0429648e-07
9.3953613e-08
8.6829833e-06
9.8103179e-08
9.433116e-08
8.6049663e-06
9.1129392e-08
9.3306271e-08
8.5328578e-06
8.2785407e-08
9.1363818e-08
8.4697468e-06
7.1548886e-08
8.8878446e-08
8.4216505e-06
5.4221345e-08
8.6254685e-08
8.3991751e-06
2.5582571e-08
8.4147959e-08
8.4189934e-06
-2.0515619e-08
8.3343681e-08
8.4431349e-06
-3.331441e-08
8.8092577e-08
8.4652505e-06
-4.4537852e-08
1.0128745e-07
8.4809037e-06
-5.550076e-08
1.2166074e-07
8.4865721e-06
-6.5870054e-08
1.4677204e-07
8.4810204e-06
-7.661348e-08
1.7427646e-07
8.4647806e-06
-8.8326303e-08
2.0208826e-07
8.4391764e-06
-1.0091933e-07
2.2849084e-07
8.4054419e-06
-1.1385814e-07
2.5227819e-07
8.3640738e-06
-1.2607194e-07
2.7247123e-07
8.314452e-06
-1.3570329e-07
2.8811863e-07
8.2536581e-06
-1.3993976e-07
2.9815513e-07
8.1748634e-06
-1.3398822e-07
3.0110541e-07
8.0658633e-06
-1.1091419e-07
2.9517689e-07
7.9075109e-06
-6.0644166e-08
2.7829341e-07
7.6658337e-06
3.8093767e-08
2.4704984e-07
7.2590628e-06
2.4094656e-07
1.9388835e-07
7.0536787e-07
1.1494223e-07
9.4339682e-06
-1.2764822e-10
3.7655812e-08
9.5986931e-06
-2.7078998e-10
6.8001328e-08
9.745907e-06
-4.9195601e-10
8.3609309e-08
9.8851959e-06
-8.6071474e-10
9.2476745e-08
1.0018324e-05
-1.4821067e-09
9.8553586e-08
1.0143976e-05
-2.5321136e-09
1.0245983e-07
1.0262078e-05
-4.3017278e-09
1.0450022e-07
1.0373483e-05
-7.2620405e-09
1.0516633e-07
1.0479149e-05
-1.2152538e-08
1.0486121e-07
1.0579558e-05
-2.0061403e-08
1.0379892e-07
1.0673426e-05
-3.2336397e-08
1.0201102e-07
1.0755402e-05
-4.9709189e-08
9.9267863e-08
1.0812986e-05
-7.1057403e-08
9.5136179e-08
1.0877539e-05
-8.6946399e-08
8.7819162e-08
1.0943151e-05
-9.357095e-08
7.8317649e-08
1.1009895e-05
-9.9244192e-08
6.7633899e-08
1.1078604e-05
-1.0495058e-07
5.6406334e-08
1.1148859e-05
-1.1093655e-07
4.5299881e-08
1.1219857e-05
-1.176224e-07
3.4656256e-08
1.1290764e-05
-1.2508079e-07
2.4716415e-08
1.1360987e-05
-1.329362e-07
1.5412138e-08
1.1430064e-05
-1.400355e-07
6.4655208e-09
1.149774e-05
-1.4427316e-07
-3.0872638e-09
1.1564774e-05
-1.4198083e-07
-1.5514661e-08
1.163077e-05
-1.2755471e-07
-3.0509164e-08
1.1695571e-05
-9.2127323e-08
-5.0215446e-08
1.1760484e-05
-2.5225811e-08
-7.6659817e-08
1.1815397e-05
1.0974121e-07
-1.1240259e-07
1.1879355e-05
3.4210839e-07
-1.5542069e-07
6.8668066e-07
-1.9718405e-07
9.4338839e-06
-1.1842459e-07
3.7655215e-08
9.5984313e-06
-1.2581781e-07
6.8000097e-08
9.745306e-06
-1.1716578e-07
8.3606909e-08
9.8839801e-06
-1.1380829e-07
9.2471417e-08
1.0016021e-05
-1.112499e-07
9.8541104e-08
1.0139782e-05
-1.0742817e-07
1.0243099e-07
1.0254641e-05
-1.0338753e-07
1.0443596e-07
1.0360591e-05
-1.0005752e-07
1.0502935e-07
1.0457352e-05
-9.7925485e-08
1.045833e-07
1.0543981e-05
-9.743112e-08
1.0326884e-07
1.0618703e-05
-9.902855e-08
1.0108882e-07
1.067932e-05
-1.0284e-07
9.7892095e-08
1.0724235e-05
-1.0807159e-07
9.3389968e-08
1.0759271e-05
-1.1198953e-07
8.6927468e-08
1.0791678e-05
-1.120596e-07
7.8230013e-08
1.0822751e-05
-1.1084561e-07
6.7466139e-08
1.0853881e-05
-1.0962448e-07
5.4851949e-08
1.0886202e-05
-1.0854113e-07
4.0557874e-08
1.0920564e-05
-1.0787974e-07
2.4709845e-08
1.0957599e-05
-1.0772239e-07
7.4623481e-09
1.0998998e-05
-1.0764877e-07
-1.2647026e-08
1.1046897e-05
-1.0740729e-07
-3.552343e-08
1.1104719e-05
-1.062464e-07
-6.1437877e-08
1.1178115e-05
-1.0121599e-07
-9.1572083e-08
1.1275641e-05
-8.8358046e-08
-1.271401e-07
1.1409748e-05
-6.0851416e-08
-1.6938219e-07
1.159672e-05
-5.9721105e-09
-2.1949579e-07
1.1872385e-05
9.1093351e-08
-2.7746601e-07
1.2303569e-05
2.3264673e-07
-3.4172232e-07
4.1182067e-07
-4.0385605e-07
9.1963703e-06
3.6416447e-08
9.1094262e-06
6.5279444e-08
9.0227699e-06
7.9556903e-08
8.9350286e-06
8.703516e-08
8.8463739e-06
9.1594713e-08
8.7581266e-06
9.386615e-08
8.6708234e-06
9.4149738e-08
8.5842454e-06
9.2931156e-08
8.497697e-06
9.059369e-08
8.4100551e-06
8.7308519e-08
8.3198241e-06
8.3069815e-08
8.225547e-06
7.7722769e-08
8.126805e-06
7.0970489e-08
8.0262526e-06
6.2395678e-08
7.929351e-06
5.1673405e-08
7.8389999e-06
3.8788116e-08
7.7566738e-06
2.3936574e-08
7.6831902e-06
7.6692917e-09
7.6202729e-06
-1.1433208e-08
7.5691784e-06
-3.3237416e-08
7.5306207e-06
-5.7470426e-08
7.5054548e-06
-8.5108475e-08
7.4990681e-06
-1.1708191e-07
7.517562e-06
-1.5528343e-07
7.5738331e-06
-2.0123547e-07
7.6916907e-06
-2.5641644e-07
7.9141943e-06
-3.2242285e-07
8.3035433e-06
-3.999754e-07
8.9235206e-06
-4.8650464e-07
-5.7349987e-07
9.1677784e-06
1.1806406e-07
1.9545774e-08
9.0712672e-06
1.2504529e-07
3.6750749e-08
8.9874511e-06
1.155951e-07
4.7788562e-08
8.9087889e-06
1.1139847e-07
5.4319887e-08
8.8341954e-06
1.0783899e-07
5.8391776e-08
8.7647754e-06
1.0253074e-07
6.0843134e-08
8.7010031e-06
9.6146488e-08
6.1957319e-08
8.6432873e-06
8.9004155e-08
6.2018261e-08
8.5928467e-06
8.0446536e-08
6.1358414e-08
8.5525954e-06
6.8799317e-08
6.0331029e-08
8.5288564e-06
5.0561494e-08
5.9432916e-08
8.5329157e-06
2.0491044e-08
5.9598523e-08
8.5852656e-06
-3.0921391e-08
6.191702e-08
8.6374789e-06
-3.7375059e-08
7.3283326e-08
8.6839115e-06
-4.2747831e-08
9.7655605e-08
8.7206194e-06
-4.808309e-08
1.3310995e-07
8.7443343e-06
-5.349939e-08
1.7664914e-07
8.7541501e-06
-6.0546207e-08
2.2511599e-07
8.7516807e-06
-7.000602e-08
2.7468729e-07
8.7388056e-06
-8.1937336e-08
3.2343919e-07
8.7168119e-06
-9.5917455e-08
3.7033555e-07
8.6858964e-06
-1.1087684e-07
4.1441778e-07
8.6443246e-06
-1.2468896e-07
4.545396e-07
8.5873353e-06
-1.3375195e-07
4.8906075e-07
8.5060108e-06
-1.3284662e-07
5.1544392e-07
8.3856168e-06
-1.137856e-07
5.2952573e-07
8.2049923e-06
-6.4821498e-08
5.2391081e-07
7.9309851e-06
3.6196073e-08
4.8503426e-07
7.4821302e-06
2.4924354e-07
3.9367405e-07
7.4102691e-07
2.427256e-07
9.4046441e-06
-1.2890528e-10
2.0165591e-08
9.5598664e-06
-2.7387682e-10
3.8098202e-08
9.7096638e-06
-4.9805702e-10
4.9905055e-08
9.8571089e-06
-8.7258637e-10
5.7302773e-08
1.0002641e-05
-1.5053702e-09
6.2365342e-08
1.0144295e-05
-2.577815e-09
6.5914479e-08
1.0281131e-05
-4.3912289e-09
6.8202086e-08
1.0413279e-05
-7.4355983e-09
6.945835e-08
1.054116e-05
-1.2482925e-08
6.9909448e-08
1.0664758e-05
-2.066828e-08
6.9669101e-08
1.0782077e-05
-3.3372101e-08
6.8625737e-08
1.0886793e-05
-5.1177418e-08
6.6220124e-08
1.0962814e-05
-7.3337765e-08
6.1531337e-08
1.1049532e-05
-8.7666915e-08
5.1394124e-08
1.1138574e-05
-9.0585256e-08
3.7114923e-08
1.1230052e-05
-9.2176724e-08
2.0252441e-08
1.1325121e-05
-9.4075694e-08
1.9184202e-09
1.1422393e-05
-9.714929e-08
-1.5362493e-08
1.1520333e-05
-1.0225443e-07
-3.1027011e-08
1.1617324e-05
-1.0978476e-07
-4.4416374e-08
1.1711816e-05
-1.1921464e-07
-5.5770541e-08
1.1802628e-05
-1.2927952e-07
-6.5928452e-08
1.188856e-05
-1.3774784e-07
-7.5943675e-08
1.1967557e-05
-1.4070255e-07
-8.7541464e-08
1.2038395e-05
-1.3109074e-07
-1.0308148e-07
1.2098792e-05
-9.8233645e-08
-1.2614108e-07
1.2146494e-05
-2.7768511e-08
-1.6138778e-07
1.2169646e-05
1.1690127e-07
-2.1622961e-07
1.2189469e-05
3.7426381e-07
-3.0022471e-07
7.6356991e-07
-4.2052842e-07
9.4045589e-06
-1.1824439e-07
2.0164318e-08
9.5596007e-06
-1.2541088e-07
3.8095311e-08
9.7090525e-06
-1.1624206e-07
4.9899099e-08
9.8558703e-06
-1.1250941e-07
5.7290475e-08
1.0000291e-05
-1.0972492e-07
6.2339762e-08
1.0140006e-05
-1.0572334e-07
6.5861503e-08
1.027351e-05
-1.0155326e-07
6.8093857e-08
1.0400042e-05
-9.818006e-08
6.9242227e-08
1.0518745e-05
-9.6094971e-08
6.9492553e-08
1.0628175e-05
-9.5739505e-08
6.8910212e-08
1.0726061e-05
-9.7558073e-08
6.7388122e-08
1.0809792e-05
-1.0162163e-07
6.4605275e-08
1.0876856e-05
-1.0703231e-07
6.0020484e-08
1.0934232e-05
-1.105327e-07
5.2417665e-08
1.0989838e-05
-1.092126e-07
4.1251312e-08
1.1044796e-05
-1.0626878e-07
2.6600436e-08
1.1100535e-05
-1.0329369e-07
8.3315992e-09
1.1157626e-05
-1.0079599e-07
-1.2886002e-08
1.1216e-05
-9.8913601e-08
-3.7004831e-08
1.1275785e-05
-9.7778077e-08
-6.4328665e-08
1.1336772e-05
-9.7581246e-08
-9.5266835e-08
1.1399802e-05
-9.7753589e-08
-1.3007834e-07
1.1467352e-05
-9.6875019e-08
-1.6985909e-07
1.1544094e-05
-9.2223259e-08
-2.1679221e-07
1.1638283e-05
-7.9261926e-08
-2.731555e-07
1.1762455e-05
-4.9469114e-08
-3.423159e-07
1.1932154e-05
1.0746961e-08
-4.27707e-07
1.2181579e-05
1.2298164e-07
-5.3296659e-07
1.2583363e-05
2.9247588e-07
-6.6171082e-07
5.1472956e-07
-8.0513894e-07
9.1675743e-06
1.9541908e-08
9.0707011e-06
3.6741709e-08
8.9862459e-06
4.7770112e-08
8.9064883e-06
5.4283346e-08
8.8300385e-06
5.8319548e-08
8.7574815e-06
6.0699793e-08
8.6884062e-06
6.1671754e-08
8.6217096e-06
6.1447728e-08
8.5559924e-06
6.0215905e-08
8.4895265e-06
5.8034912e-08
8.4202486e-06
5.478968e-08
8.3461748e-06
5.0174972e-08
8.2664263e-06
4.3686642e-08
8.1836531e-06
3.4636242e-08
8.1036373e-06
2.2476589e-08
8.0292722e-06
6.8845809e-09
7.9616083e-06
-1.1693183e-08
7.9015772e-06
-3.3095588e-08
7.8487287e-06
-5.7498256e-08
7.8029265e-06
-8.5213212e-08
7.7649769e-06
-1.1710195e-07
7.7366839e-06
-1.5456893e-07
7.7221041e-06
-1.9937693e-07
7.7281219e-06
-2.5352416e-07
7.768996e-06
-3.2137116e-07
7.8722337e-06
-4.0912272e-07
8.0853505e-06
-5.2479208e-07
8.4795921e-06
-6.712343e-07
9.1288975e-06
-8.4333182e-07
-1.0143457e-06
9.1619571e-06
1.1821079e-07
8.3473098e-09
9.0570875e-06
1.2541765e-07
1.6202795e-08
8.9668398e-06
1.1607074e-07
2.196565e-08
8.8835398e-06
1.1189452e-07
2.572545e-08
8.8054908e-06
1.0832274e-07
2.8118304e-08
8.7337917e-06
1.0295084e-07
2.9591682e-08
8.6689717e-06
9.6429562e-08
3.0348008e-08
8.6114046e-06
8.9049841e-08
3.0536046e-08
8.5623717e-06
8.0060744e-08
3.0331065e-08
8.5252131e-06
6.7534413e-08
2.9955809e-08
8.5074514e-06
4.7415629e-08
2.9779743e-08
8.5219581e-06
1.4522768e-08
3.0569992e-08
8.5968701e-06
-4.618104e-08
3.3187967e-08
8.6638587e-06
-3.9756623e-08
4.6078303e-08
8.7177629e-06
-2.7867329e-08
7.1667759e-08
8.7551476e-06
-1.3294586e-08
1.0908855e-07
8.7756597e-06
2.0144254e-09
1.5420994e-07
8.7779019e-06
2.0885966e-08
2.0209226e-07
8.7654331e-06
3.6422933e-08
2.508532e-07
8.7393902e-06
4.9783087e-08
2.9983296e-07
8.6999883e-06
6.1256079e-08
3.4862734e-07
8.6465168e-06
7.142947e-08
3.966159e-07
8.5763255e-06
8.22455e-08
4.4264966e-07
8.4839468e-06
9.6797139e-08
4.8481265e-07
8.3597489e-06
1.1985692e-07
5.1995993e-07
8.1872207e-06
1.5940324e-07
5.4282868e-07
7.9375987e-06
2.2927212e-07
5.4444044e-07
7.5567597e-06
3.5677858e-07
5.0927527e-07
6.9359222e-06
6.0197944e-07
4.1271306e-07
1.1309128e-06
2.4994113e-07
9.3988482e-06
-1.307267e-10
8.6197991e-09
9.5457971e-06
-2.7820617e-10
1.684523e-08
9.6892529e-06
-5.0722348e-10
2.302718e-08
9.8320649e-06
-8.9162073e-10
2.7276907e-08
9.9740648e-06
-1.5445386e-09
3.0232783e-08
1.0113263e-05
-2.6576141e-09
3.2324776e-08
1.0248716e-05
-4.5516913e-09
3.373041e-08
1.0380418e-05
-7.752567e-09
3.4559042e-08
1.0508577e-05
-1.3093645e-08
3.4904805e-08
1.0632791e-05
-2.1797158e-08
3.4786942e-08
1.0750109e-05
-3.5291282e-08
3.4014538e-08
1.0852826e-05
-5.3889387e-08
3.1915216e-08
1.0918148e-05
-7.7374441e-08
2.7402448e-08
1.1000607e-05
-8.767884e-08
1.6858145e-08
1.1087145e-05
-8.116023e-08
3.8720958e-09
1.1178761e-05
-7.016687e-08
-1.4488445e-08
1.1272995e-05
-5.7641611e-08
-3.2656832e-08
1.1369314e-05
-4.328062e-08
-4.750952e-08
1.1463796e-05
-2.9735724e-08
-5.9344051e-08
1.1554494e-05
-1.7153319e-08
-6.8170445e-08
1.1638247e-05
-4.2042013e-09
-7.4052276e-08
1.1712735e-05
8.2952448e-09
-7.7270179e-08
1.1773675e-05
2.4203744e-08
-7.882572e-08
1.1814526e-05
4.8683847e-08
-8.0259578e-08
1.1825062e-05
9.0138762e-08
-8.3875963e-08
1.1789654e-05
1.6194723e-07
-9.3247874e-08
1.1686672e-05
2.8505682e-07
-1.1415583e-07
1.1490087e-05
4.9397863e-07
-1.5680044e-07
1.1190577e-05
8.4268434e-07
-2.413622e-07
1.3818008e-06
-4.0191932e-07
9.3987612e-06
-1.1839389e-07
8.6188411e-09
9.5455244e-06
-1.2578922e-07
1.6843008e-08
9.6886235e-06
-1.1672976e-07
2.3022571e-08
9.8307847e-06
-1.1302981e-07
2.7267413e-08
9.9716249e-06
-1.1025813e-07
3.0213248e-08
1.0108788e-05
-1.0624438e-07
3.2284773e-08
1.0240724e-05
-1.020431e-07
3.3649526e-08
1.0366465e-05
-9.8650722e-08
3.4399069e-08
1.0484857e-05
-9.6592177e-08
3.4599953e-08
1.0594062e-05
-9.633829e-08
3.4245903e-08
1.0691294e-05
-9.83295e-08
3.3194702e-08
1.077344e-05
-1.0252965e-07
3.1098929e-08
1.0836516e-05
-1.0776702e-07
2.7337424e-08
1.0890281e-05
-1.0956393e-07
2.0538246e-08
1.09441e-05
-1.0417772e-07
1.0449297e-08
1.0998443e-05
-9.6027046e-08
-1.8825017e-09
1.1056323e-05
-8.6421809e-08
-2.0767215e-08
1.1117962e-05
-7.6347166e-08
-4.1458436e-08
1.1182845e-05
-6.6129993e-08
-6.5493029e-08
1.1250464e-05
-5.6197278e-08
-9.2903601e-08
1.1321191e-05
-4.6482717e-08
-1.2371453e-07
1.1394239e-05
-3.6306873e-08
-1.5852343e-07
1.1469461e-05
-2.2896273e-08
-1.979799e-07
1.1546131e-05
-1.8862604e-09
-2.4289074e-07
1.1620407e-05
3.8048818e-08
-2.9534008e-07
1.1695347e-05
1.0277092e-07
-3.5807567e-07
1.1778912e-05
2.0895825e-07
-4.3516732e-07
1.1892662e-05
3.7974999e-07
-5.32477e-07
1.2088109e-05
6.4563301e-07
-6.6008739e-07
1.0232317e-06
-8.284405e-07
9.1617476e-06
8.3445654e-09
9.0565038e-06
1.6196232e-08
8.9655921e-06
2.1952114e-08
8.8811471e-06
2.5698495e-08
8.8011436e-06
2.8064948e-08
8.7261132e-06
2.9485769e-08
8.6556051e-06
3.013675e-08
8.5882897e-06
3.0112365e-08
8.5224376e-06
2.9475849e-08
8.4559211e-06
2.8213103e-08
8.3862018e-06
2.6179554e-08
8.3107904e-06
2.3056647e-08
8.2283845e-06
1.8325582e-08
8.1421113e-06
1.1345495e-08
8.0581241e-06
2.2861162e-09
7.9802535e-06
-1.1271816e-08
7.9094876e-06
-2.7349059e-08
7.8458119e-06
-4.5766972e-08
7.7886254e-06
-6.6441694e-08
7.737635e-06
-9.042e-08
7.6935412e-06
-1.1949083e-07
7.6582102e-06
-1.5554464e-07
7.6368989e-06
-2.0096174e-07
7.6408977e-06
-2.5940884e-07
7.6921577e-06
-3.3458198e-07
7.8167949e-06
-4.3098809e-07
8.0544982e-06
-5.5353557e-07
8.4682192e-06
-7.0520166e-07
9.1529012e-06
-8.8237323e-07
-1.0523838e-06
9.1590845e-06
1.1823223e-07
5.4242228e-15
9.0498067e-06
1.2548067e-07
1.4780664e-15
8.9556715e-06
1.1610101e-07
-2.6588081e-15
8.8695544e-06
1.1184264e-07
-2.7947014e-15
8.7894974e-06
1.081756e-07
-5.9155697e-16
8.7163967e-06
1.0269259e-07
-1.3049972e-15
8.6507145e-06
9.6030568e-08
-1.6847781e-15
8.5927978e-06
8.8453245e-08
-4.0128518e-15
8.5440095e-06
7.9119848e-08
-7.8164684e-15
8.5080998e-06
6.5866205e-08
-1.5608238e-14
8.4937543e-06
4.4126044e-08
-2.9295256e-14
8.5151053e-06
9.2200723e-09
-3.9077822e-14
8.6088173e-06
-6.052213e-08
-4.4063016e-14
8.6835251e-06
-2.8605527e-08
-3.5846619e-14
8.7474304e-06
7.8064209e-09
-2.6243462e-14
8.7918186e-06
6.47622e-08
-1.811105e-14
8.8144907e-06
1.3161629e-07
-6.9653164e-15
8.8197133e-06
1.9696486e-07
-2.5235821e-15
8.80886e-06
2.618174e-07
1.4901928e-14
8.7822512e-06
3.2656718e-07
1.0345538e-14
8.7390864e-06
3.9193046e-07
6.1232699e-15
8.6768402e-06
4.5901179e-07
-1.7570253e-13
8.59034e-06
5.2930891e-07
-1.8024298e-13
8.4703803e-06
6.0493902e-07
-2.4018666e-13
8.301322e-06
6.8919082e-07
-2.844677e-13
8.0566427e-06
7.8768518e-07
-3.3379353e-13
7.6904001e-06
9.1086334e-07
-3.65136e-13
7.1203584e-06
1.0794994e-06
-3.3998147e-13
6.199783e-06
1.3334722e-06
-2.2988307e-13
1.7791812e-06
-3.3231306e-14
9.3959452e-06
-1.3219192e-10
5.1848397e-15
9.5385527e-06
-2.8160811e-10
4.5325427e-15
9.6781952e-06
-5.1428663e-10
3.0705025e-15
9.8182208e-06
-9.0608963e-10
1.2101149e-15
9.9582032e-06
-1.5739698e-09
-1.8430673e-16
1.0095938e-05
-2.7171492e-09
-1.6989942e-15
1.023037e-05
-4.6710745e-09
-4.1354235e-15
1.0361371e-05
-7.9884847e-09
-2.8367821e-15
1.0488944e-05
-1.3548404e-08
-6.4248202e-15
1.0612228e-05
-2.2631112e-08
-1.2576313e-14
1.0727013e-05
-3.6644174e-08
-1.1361731e-14
1.0823732e-05
-5.558334e-08
-1.8764374e-14
1.0870008e-05
-7.939587e-08
-1.7370907e-14
1.0939679e-05
-8.1417199e-08
-1.0695562e-14
1.1008453e-05
-5.7095752e-08
-1.4681243e-14
1.1077664e-05
-1.8935877e-08
-1.1027561e-14
1.1146041e-05
3.0585026e-08
-1.433369e-14
1.1207446e-05
8.8054128e-08
-1.6320251e-14
1.1258457e-05
1.5146856e-07
-1.7514995e-14
1.1295356e-05
2.215092e-07
-1.6470547e-14
1.1313841e-05
2.9940848e-07
-1.132629e-14
1.1309027e-05
3.8657706e-07
6.3861515e-14
1.1274315e-05
4.8522473e-07
2.111868e-14
1.1199977e-05
5.9905551e-07
4.043692e-14
1.1071078e-05
7.3426054e-07
8.7696227e-14
1.0864335e-05
9.0123919e-07
1.3466432e-13
1.0543086e-05
1.1180264e-06
1.8566745e-13
1.0049502e-05
1.4163674e-06
2.5614299e-13
9.2902186e-06
1.8514926e-06
3.8813832e-13
2.4983838e-06
5.435511e-13
9.3958567e-06
-1.1841752e-07
4.189352e-15
9.5382749e-06
-1.2585688e-07
6.5553277e-16
9.6775525e-06
-1.1676928e-07
-8.0811192e-16
9.8169102e-06
-1.1299643e-07
3.2759616e-16
9.9556978e-06
-1.1014826e-07
2.2411365e-16
1.0091327e-05
-1.0606184e-07
-1.1464626e-15
1.0222105e-05
-1.0179938e-07
-4.4430053e-15
1.0346892e-05
-9.837635e-08
-5.3298083e-15
1.0464278e-05
-9.6334033e-08
-6.6678841e-15
1.0572047e-05
-9.6154937e-08
-1.1234733e-14
1.0666845e-05
-9.8247265e-08
-1.2069769e-14
1.0744776e-05
-1.0241572e-07
-1.1469391e-14
1.0799753e-05
-1.0703501e-07
-1.0244088e-14
1.0844698e-05
-1.0582411e-07
-7.9770451e-15
1.0891394e-05
-9.3341917e-08
-1.5187879e-14
1.0944481e-05
-7.390523e-08
-2.3548573e-14
1.1004249e-05
-4.9950647e-08
-3.0753676e-14
1.1070804e-05
-1.9959281e-08
-3.064317e-14
1.1139919e-05
1.6860874e-08
-4.2644661e-14
1.1207409e-05
6.1115441e-08
-5.3949531e-14
1.1270959e-05
1.1214433e-07
-3.9644265e-14
1.132755e-05
1.7146408e-07
-5.0280921e-15
1.1372878e-05
2.4191964e-07
2.2870058e-14
1.1401184e-05
3.2786403e-07
7.5253948e-14
1.1404489e-05
4.3562388e-07
1.0477756e-13
1.137242e-05
5.7524667e-07
1.8589522e-13
1.1291952e-05
7.6334856e-07
2.4190894e-13
1.1147764e-05
1.0281109e-06
3.8040374e-13
1.0920652e-05
1.4185643e-06
5.2702383e-13
2.0052664e-06
7.1161548e-13
9.1588711e-06
7.9034118e-15
9.0492105e-06
3.0218616e-15
8.9543933e-06
9.2412341e-16
8.8670954e-06
1.5823893e-15
8.7850121e-06
-2.1980243e-15
8.708436e-06
-5.7051618e-15
8.6367734e-06
-1.5806018e-15
8.5685094e-06
-9.8296559e-15
8.5016512e-06
-6.5981911e-15
8.4337094e-06
-1.287369e-14
8.3616417e-06
-1.602172e-14
8.2822827e-06
-2.0774652e-14
8.1935733e-06
-2.5728849e-14
8.0990947e-06
-3.4287042e-14
8.008039e-06
-3.8463019e-14
7.922862e-06
-5.0491227e-14
7.8455624e-06
-6.0872373e-14
7.7798363e-06
-7.3946124e-14
7.7302556e-06
-9.8453591e-14
7.7009512e-06
-1.1976485e-13
7.6936049e-06
-1.3613474e-13
7.7095246e-06
-1.3941634e-13
7.7504828e-06
-1.2866353e-13
7.8189388e-06
-9.4289913e-14
7.9199822e-06
-8.0181736e-14
8.0642438e-06
-3.4780387e-14
8.2740628e-06
5.756831e-14
8.5969829e-06
1.9167896e-13
9.1331936e-06
3.9549352e-13
6.0900176e-13
9.1590845e-06
1.1823223e-07
-8.3473007e-09
9.0498067e-06
1.2548068e-07
-1.620279e-08
8.9556715e-06
1.1610102e-07
-2.1965648e-08
8.8695544e-06
1.1184264e-07
-2.5725453e-08
8.7894974e-06
1.081756e-07
-2.8118302e-08
8.7163967e-06
1.026926e-07
-2.9591682e-08
8.6507145e-06
9.6030572e-08
-3.0348011e-08
8.5927978e-06
8.8453246e-08
-3.053605e-08
8.5440095e-06
7.9119853e-08
-3.0331081e-08
8.5080998e-06
6.5866206e-08
-2.9955842e-08
8.4937543e-06
4.4126055e-08
-2.9779795e-08
8.5151053e-06
9.2200801e-09
-3.0570058e-08
8.6088173e-06
-6.0522126e-08
-3.3188044e-08
8.6835251e-06
-2.8605511e-08
-4.6078377e-08
8.7474304e-06
7.8064546e-09
-7.1667828e-08
8.7918186e-06
6.4762251e-08
-1.0908861e-07
8.8144907e-06
1.3161633e-07
-1.5421e-07
8.8197133e-06
1.9696489e-07
-2.0209231e-07
8.80886e-06
2.618174e-07
-2.5085322e-07
8.7822511e-06
3.2656723e-07
-2.9983294e-07
8.7390861e-06
3.9193054e-07
-3.4862732e-07
8.6768403e-06
4.5901109e-07
-3.9661596e-07
8.5903398e-06
5.2930875e-07
-4.4264984e-07
8.4703802e-06
6.0493883e-07
-4.8481302e-07
8.3013221e-06
6.8919057e-07
-5.1996035e-07
8.0566428e-06
7.876849e-07
-5.4282917e-07
7.6904004e-06
9.1086297e-07
-5.4444093e-07
7.120359e-06
1.0794989e-06
-5.0927576e-07
6.1997841e-06
1.3334716e-06
-4.1271346e-07
1.7791806e-06
-2.4994129e-07
9.3959452e-06
-1.3219445e-10
-8.6197877e-09
9.5385527e-06
-2.8161137e-10
-1.6845227e-08
9.6781952e-06
-5.1428764e-10
-2.3027178e-08
9.8182208e-06
-9.0608963e-10
-2.7276904e-08
9.9582032e-06
-1.5739737e-09
-3.0232789e-08
1.0095938e-05
-2.7171482e-09
-3.2324781e-08
1.023037e-05
-4.6710803e-09
-3.3730416e-08
1.0361371e-05
-7.9884869e-09
-3.4559048e-08
1.0488944e-05
-1.3548409e-08
-3.4904816e-08
1.0612228e-05
-2.2631114e-08
-3.4786962e-08
1.0727013e-05
-3.6644175e-08
-3.4014565e-08
1.0823732e-05
-5.558333e-08
-3.1915239e-08
1.0870008e-05
-7.9395854e-08
-2.7402468e-08
1.0939678e-05
-8.1417182e-08
-1.6858154e-08
1.1008453e-05
-5.7095732e-08
-3.8720975e-09
1.1077664e-05
-1.893586e-08
1.4488432e-08
1.1146041e-05
3.0585049e-08
3.2656819e-08
1.1207446e-05
8.8054157e-08
4.7509498e-08
1.1258457e-05
1.5146857e-07
5.9343999e-08
1.1295356e-05
2.215092e-07
6.8170376e-08
1.1313841e-05
2.9940845e-07
7.4052188e-08
1.1309027e-05
3.8657675e-07
7.7270156e-08
1.1274315e-05
4.852244e-07
7.8825745e-08
1.1199977e-05
5.990553e-07
8.0259656e-08
1.1071079e-05
7.3426028e-07
8.3876056e-08
1.0864335e-05
9.012389e-07
9.3247996e-08
1.0543087e-05
1.118026e-06
1.1415602e-07
1.0049503e-05
1.4163669e-06
1.568007e-07
9.2902201e-06
1.851492e-06
2.4136261e-07
2.498383e-06
4.0191993e-07
9.3958567e-06
-1.1841751e-07
-8.6188292e-09
9.5382749e-06
-1.2585688e-07
-1.6843004e-08
9.6775525e-06
-1.1676928e-07
-2.3022568e-08
9.8169102e-06
-1.1299642e-07
-2.7267414e-08
9.9556978e-06
-1.1014826e-07
-3.0213249e-08
1.0091327e-05
-1.0606184e-07
-3.2284777e-08
1.0222105e-05
-1.0179938e-07
-3.364953e-08
1.0346892e-05
-9.8376352e-08
-3.4399074e-08
1.0464278e-05
-9.6334025e-08
-3.4599959e-08
1.0572047e-05
-9.6154932e-08
-3.4245915e-08
1.0666845e-05
-9.824726e-08
-3.3194717e-08
1.0744776e-05
-1.0241571e-07
-3.1098946e-08
1.0799753e-05
-1.07035e-07
-2.7337441e-08
1.0844698e-05
-1.058241e-07
-2.0538254e-08
1.0891394e-05
-9.3341898e-08
-1.0449306e-08
1.0944481e-05
-7.3905214e-08
1.8824686e-09
1.1004249e-05
-4.995063e-08
2.0767177e-08
1.1070804e-05
-1.995928e-08
4.1458378e-08
1.1139919e-05
1.6860868e-08
6.5492951e-08
1.1207409e-05
6.1115428e-08
9.2903488e-08
1.127096e-05
1.1214431e-07
1.2371441e-07
1.132755e-05
1.7146394e-07
1.5852333e-07
1.1372878e-05
2.4191947e-07
1.9797986e-07
1.1401184e-05
3.2786387e-07
2.4289079e-07
1.1404489e-05
4.3562375e-07
2.9534013e-07
1.137242e-05
5.7524645e-07
3.580758e-07
1.1291952e-05
7.6334833e-07
4.3516754e-07
1.1147764e-05
1.0281106e-06
5.3247735e-07
1.0920653e-05
1.4185639e-06
6.6008792e-07
2.0052657e-06
8.2844122e-07
9.1588711e-06
-8.3445531e-09
9.0492105e-06
-1.6196231e-08
8.9543933e-06
-2.1952107e-08
8.8670954e-06
-2.5698492e-08
8.7850121e-06
-2.8064948e-08
8.708436e-06
-2.948577e-08
8.6367734e-06
-3.0136753e-08
8.5685094e-06
-3.011237e-08
8.5016512e-06
-2.9475862e-08
8.4337094e-06
-2.8213121e-08
8.3616417e-06
-2.6179576e-08
8.2822827e-06
-2.3056684e-08
8.1935733e-06
-1.8325626e-08
8.0990947e-06
-1.1345542e-08
8.008039e-06
-2.2861698e-09
7.922862e-06
1.1271737e-08
7.8455624e-06
2.7348958e-08
7.7798362e-06
4.5766846e-08
7.7302555e-06
6.6441522e-08
7.7009511e-06
9.0419773e-08
7.6936049e-06
1.1949056e-07
7.7095245e-06
1.5554435e-07
7.7504828e-06
2.0096144e-07
7.8189387e-06
2.5940854e-07
7.9199821e-06
3.3458164e-07
8.0642438e-06
4.3098779e-07
8.2740628e-06
5.5353534e-07
8.5969832e-06
7.0520158e-07
9.133194e-06
8.8237335e-07
1.0523842e-06
9.1619571e-06
1.1821079e-07
-1.9545768e-08
9.0570875e-06
1.2541766e-07
-3.6750744e-08
8.9668398e-06
1.1607075e-07
-4.7788552e-08
8.8835398e-06
1.1189454e-07
-5.4319881e-08
8.8054908e-06
1.0832274e-07
-5.8391773e-08
8.7337917e-06
1.0295084e-07
-6.0843131e-08
8.6689718e-06
9.6429562e-08
-6.1957315e-08
8.6114045e-06
8.9049842e-08
-6.2018268e-08
8.5623716e-06
8.0060755e-08
-6.135842e-08
8.5252131e-06
6.7534418e-08
-6.0331048e-08
8.5074514e-06
4.7415641e-08
-5.9432945e-08
8.5219581e-06
1.4522779e-08
-5.9598564e-08
8.5968701e-06
-4.6181036e-08
-6.191707e-08
8.6638587e-06
-3.9756615e-08
-7.3283379e-08
8.7177629e-06
-2.7867319e-08
-9.7655673e-08
8.7551476e-06
-1.3294594e-08
-1.3311002e-07
8.7756597e-06
2.0143817e-09
-1.766492e-07
8.7779019e-06
2.0885903e-08
-2.2511604e-07
8.7654331e-06
3.6422826e-08
-2.7468731e-07
8.7393901e-06
4.9783031e-08
-3.2343917e-07
8.6999879e-06
6.1256127e-08
-3.7033549e-07
8.6465167e-06
7.1428877e-08
-4.1441771e-07
8.5763251e-06
8.2245205e-08
-4.5453948e-07
8.4839468e-06
9.6796494e-08
-4.890606e-07
8.359749e-06
1.1985617e-07
-5.1544373e-07
8.1872209e-06
1.5940237e-07
-5.2952551e-07
7.9375992e-06
2.2927109e-07
-5.239106e-07
7.5567608e-06
3.5677738e-07
-4.8503411e-07
6.9359243e-06
6.0197809e-07
-3.9367405e-07
1.1309114e-06
-2.4272585e-07
9.3988482e-06