/*--------------------------------*- C++ -*----------------------------------*\
| =========                 |                                                 |
| \\      /  F ield         | OpenFOAM: The Open Source CFD Toolbox           |
|  \\    /   O peration     | Version:  2412                                  |
|   \\  /    A nd           | Website:  www.openfoam.com                      |
|    \\/     M anipulation  |                                                 |
\*---------------------------------------------------------------------------*/
FoamFile
{
    version     2.0;
    format      ascii;
    arch        "LSB;label=32;scalar=64";
    class       volScalarField;
    location    "90/topAir";
    object      rho;
}
// * * * * * * * * * * * * * * * * * * * * * * * * * * * * * * * * * * * * * //

dimensions      [1 -3 0 0 0 0 0];

internalField   nonuniform List<scalar> 
1200
(
1.1586195
1.1586177
1.1586156
1.1586131
1.1586101
1.1586063
1.1586016
1.1585958
1.1585888
1.1585804
1.1585706
1.1585505
1.1582856
1.151701
1.1459034
1.1409429
1.136841
1.1335913
1.1311607
1.1294917
1.1285122
1.1281492
1.1283033
1.1288749
1.1297676
1.130891
1.1321621
1.1335087
1.1348725
1.1361567
1.1586201
1.1586199
1.1586198
1.1586195
1.1586192
1.1586188
1.1586182
1.1586175
1.1586167
1.1586157
1.1586146
1.1586129
1.1586011
1.1584429
1.1581613
1.1577802
1.1573231
1.1568126
1.1562697
1.1557128
1.155153
1.1545801
1.1540014
1.1534173
1.1528219
1.1521905
1.1514782
1.1506059
1.1494414
1.1478409
1.1586191
1.1586191
1.158619
1.158619
1.158619
1.158619
1.1586189
1.1586189
1.1586188
1.1586187
1.1586186
1.1586184
1.1586179
1.1586138
1.1586034
1.1585848
1.1585565
1.1585177
1.158468
1.1584075
1.1583366
1.1582552
1.1581632
1.1580514
1.1579013
1.157693
1.1573896
1.1569275
1.1562011
1.1551145
1.158618
1.158618
1.158618
1.158618
1.158618
1.158618
1.158618
1.158618
1.1586179
1.1586179
1.1586179
1.1586179
1.1586178
1.1586177
1.1586171
1.158616
1.1586139
1.1586105
1.1586054
1.1585983
1.1585888
1.1585766
1.1585616
1.1585429
1.1585168
1.1584755
1.1584067
1.158286
1.1580689
1.1577102
1.1586194
1.1586176
1.1586155
1.1586131
1.15861
1.1586063
1.1586015
1.1585957
1.1585885
1.1585799
1.1585697
1.1585516
1.1583322
1.1520831
1.1465234
1.1417433
1.1377994
1.1347071
1.1324372
1.1309235
1.1300768
1.1297959
1.1299741
1.1305033
1.1312742
1.1321761
1.1330959
1.133979
1.1349132
1.1358172
1.1586201
1.1586199
1.1586198
1.1586195
1.1586192
1.1586188
1.1586183
1.1586177
1.1586169
1.1586159
1.1586149
1.1586134
1.1586048
1.1584774
1.1582493
1.1579402
1.15757
1.1571582
1.156723
1.1562804
1.1558438
1.1554231
1.1550249
1.1546516
1.1543016
1.1539669
1.1536317
1.15324
1.1525679
1.1513984
1.1586191
1.1586191
1.158619
1.158619
1.158619
1.158619
1.1586189
1.1586189
1.1586188
1.1586187
1.1586186
1.1586185
1.1586182
1.1586153
1.1586082
1.1585954
1.158576
1.1585495
1.1585158
1.158475
1.1584275
1.1583738
1.1583147
1.1582503
1.1581806
1.1581045
1.1580178
1.1578759
1.1576153
1.1571693
1.158618
1.158618
1.158618
1.158618
1.158618
1.158618
1.158618
1.158618
1.1586179
1.1586179
1.1586179
1.1586179
1.1586179
1.1586178
1.1586175
1.1586168
1.1586156
1.1586137
1.1586108
1.1586069
1.1586016
1.1585948
1.1585864
1.1585761
1.1585636
1.1585482
1.158528
1.158492
1.1584244
1.1583077
1.1586194
1.1586174
1.1586152
1.1586126
1.1586093
1.1586052
1.1585999
1.1585932
1.1585847
1.1585741
1.158561
1.1585379
1.1582769
1.1507639
1.1441383
1.13851
1.1339626
1.1305282
1.1281397
1.1266742
1.1259886
1.1259384
1.1263844
1.1271936
1.1282388
1.1293943
1.1305339
1.1315924
1.1326742
1.1336942
1.1586201
1.1586199
1.1586198
1.1586195
1.1586192
1.1586187
1.1586182
1.1586175
1.1586166
1.1586156
1.1586143
1.1586126
1.1586027
1.1584525
1.1581855
1.157826
1.1573988
1.156927
1.1564315
1.1559301
1.1554372
1.1549633
1.154515
1.1540943
1.1536964
1.1533077
1.1529016
1.1524113
1.1515719
1.150141
1.1586191
1.1586191
1.158619
1.158619
1.158619
1.158619
1.1586189
1.1586189
1.1586188
1.1586187
1.1586186
1.1586185
1.1586181
1.1586148
1.1586067
1.1585923
1.1585705
1.1585409
1.1585033
1.1584577
1.1584043
1.1583431
1.1582736
1.1581947
1.1581033
1.1579931
1.1578516
1.1576144
1.1571861
1.1564717
1.158618
1.158618
1.158618
1.158618
1.158618
1.158618
1.158618
1.158618
1.1586179
1.1586179
1.1586179
1.1586179
1.1586179
1.1586178
1.1586174
1.1586167
1.1586154
1.1586134
1.1586103
1.1586061
1.1586003
1.1585926
1.1585825
1.1585691
1.1585502
1.1585218
1.1584742
1.1583814
1.1582045
1.1579069
1.1586193
1.1586173
1.158615
1.1586121
1.1586086
1.158604
1.158598
1.1585902
1.15858
1.1585668
1.1585494
1.1585174
1.1581738
1.1484116
1.1398235
1.1325422
1.1267457
1.1226261
1.1199688
1.1184959
1.1179532
1.1181273
1.1188432
1.119957
1.1213482
1.1229136
1.1245613
1.1262102
1.127797
1.1292271
1.1586201
1.1586199
1.1586197
1.1586195
1.1586191
1.1586186
1.158618
1.1586173
1.1586163
1.1586151
1.1586136
1.1586115
1.1585984
1.1584022
1.1580522
1.1575764
1.1569965
1.1562956
1.1555077
1.1546636
1.1537904
1.1529132
1.152047
1.1511934
1.1503406
1.1494591
1.1484954
1.147357
1.1458863
1.1438773
1.1586191
1.1586191
1.158619
1.158619
1.158619
1.158619
1.1586189
1.1586189
1.1586188
1.1586187
1.1586186
1.1586184
1.1586179
1.1586137
1.158603
1.1585838
1.1585543
1.158512
1.1584547
1.15838
1.1582848
1.1581618
1.158001
1.1577889
1.1575051
1.1571148
1.1565623
1.1557594
1.1545705
1.1528737
1.158618
1.158618
1.158618
1.158618
1.158618
1.158618
1.158618
1.158618
1.1586179
1.1586179
1.1586179
1.1586179
1.1586179
1.1586177
1.1586173
1.1586164
1.1586146
1.1586118
1.1586072
1.1586003
1.1585898
1.1585739
1.1585494
1.1585106
1.1584443
1.1583293
1.1581297
1.1577855
1.157207
1.1563285
1.1586192
1.1586172
1.1586148
1.1586119
1.1586081
1.1586033
1.1585968
1.1585883
1.1585768
1.1585614
1.1585401
1.1584979
1.1580387
1.1450606
1.1336194
1.1239317
1.1163902
1.1119192
1.1094885
1.1084723
1.1084625
1.1091766
1.1104095
1.1120071
1.11385
1.1158441
1.1179123
1.1199903
1.1220239
1.1239261
1.1586201
1.1586199
1.1586197
1.1586194
1.1586191
1.1586186
1.1586179
1.1586171
1.1586161
1.1586147
1.1586131
1.1586105
1.1585933
1.1583309
1.1578402
1.157006
1.1557898
1.1542638
1.1525044
1.150588
1.1485855
1.146558
1.144556
1.1426186
1.1407732
1.1390348
1.137404
1.1358641
1.1343822
1.1329282
1.1586191
1.1586191
1.158619
1.158619
1.158619
1.158619
1.1586189
1.1586189
1.1586188
1.1586187
1.1586186
1.1586184
1.1586178
1.1586121
1.1585973
1.1585673
1.158508
1.1583978
1.1582158
1.1579406
1.1575503
1.1570239
1.1563415
1.1554835
1.154429
1.1531519
1.1516149
1.1497614
1.1475109
1.1448493
1.158618
1.158618
1.158618
1.158618
1.158618
1.158618
1.158618
1.158618
1.1586179
1.1586179
1.1586179
1.1586179
1.1586179
1.1586177
1.1586171
1.1586157
1.1586128
1.1586069
1.1585953
1.1585725
1.1585307
1.1584588
1.1583412
1.1581562
1.1578736
1.1574509
1.1568276
1.1559149
1.1545875
1.1527663
1.1586193
1.1586172
1.1586148
1.1586119
1.1586081
1.1586033
1.1585968
1.1585883
1.1585768
1.1585614
1.1585401
1.1584979
1.1580387
1.1450605
1.1336194
1.1239317
1.1163902
1.1119192
1.1094885
1.1084723
1.1084625
1.1091766
1.1104095
1.1120071
1.11385
1.1158441
1.1179123
1.1199904
1.1220239
1.1239261
1.1586201
1.1586199
1.1586197
1.1586194
1.1586191
1.1586186
1.1586179
1.1586171
1.1586161
1.1586147
1.1586131
1.1586105
1.1585933
1.1583309
1.1578402
1.157006
1.1557898
1.1542638
1.1525044
1.150588
1.1485855
1.146558
1.144556
1.1426186
1.1407732
1.1390348
1.137404
1.1358641
1.1343822
1.1329283
1.1586191
1.1586191
1.158619
1.158619
1.158619
1.158619
1.1586189
1.1586189
1.1586188
1.1586187
1.1586186
1.1586184
1.1586178
1.1586121
1.1585973
1.1585673
1.158508
1.1583978
1.1582158
1.1579406
1.1575503
1.1570239
1.1563415
1.1554835
1.154429
1.1531519
1.1516149
1.1497614
1.1475109
1.1448493
1.158618
1.158618
1.158618
1.158618
1.158618
1.158618
1.158618
1.158618
1.1586179
1.1586179
1.1586179
1.1586179
1.1586179
1.1586177
1.1586171
1.1586157
1.1586128
1.1586069
1.1585953
1.1585725
1.1585307
1.1584588
1.1583412
1.1581562
1.1578736
1.1574509
1.1568276
1.1559149
1.1545875
1.1527663
1.1586193
1.1586173
1.158615
1.1586121
1.1586086
1.158604
1.158598
1.1585902
1.15858
1.1585668
1.1585494
1.1585174
1.1581738
1.1484116
1.1398235
1.1325422
1.1267457
1.1226261
1.1199688
1.1184959
1.1179532
1.1181273
1.1188432
1.119957
1.1213482
1.1229137
1.1245613
1.1262103
1.127797
1.1292271
1.1586201
1.1586199
1.1586197
1.1586195
1.1586191
1.1586186
1.158618
1.1586173
1.1586163
1.1586151
1.1586136
1.1586115
1.1585984
1.1584022
1.1580522
1.1575764
1.1569965
1.1562956
1.1555077
1.1546636
1.1537904
1.1529132
1.152047
1.1511934
1.1503406
1.1494591
1.1484954
1.1473571
1.1458863
1.1438773
1.1586191
1.1586191
1.158619
1.158619
1.158619
1.158619
1.1586189
1.1586189
1.1586188
1.1586187
1.1586186
1.1586184
1.1586179
1.1586137
1.158603
1.1585838
1.1585543
1.158512
1.1584547
1.15838
1.1582848
1.1581618
1.158001
1.1577889
1.1575051
1.1571148
1.1565623
1.1557594
1.1545705
1.1528737
1.158618
1.158618
1.158618
1.158618
1.158618
1.158618
1.158618
1.158618
1.1586179
1.1586179
1.1586179
1.1586179
1.1586179
1.1586177
1.1586173
1.1586164
1.1586146
1.1586118
1.1586072
1.1586003
1.1585898
1.1585739
1.1585494
1.1585106
1.1584443
1.1583293
1.1581297
1.1577855
1.157207
1.1563285
1.1586194
1.1586174
1.1586152
1.1586126
1.1586093
1.1586052
1.1585999
1.1585932
1.1585847
1.1585741
1.158561
1.1585379
1.1582769
1.1507639
1.1441383
1.13851
1.1339626
1.1305282
1.1281397
1.1266742
1.1259886
1.1259384
1.1263844
1.1271936
1.1282388
1.1293943
1.1305339
1.1315924
1.1326742
1.1336942
1.1586201
1.1586199
1.1586198
1.1586195
1.1586192
1.1586187
1.1586182
1.1586175
1.1586166
1.1586156
1.1586143
1.1586126
1.1586027
1.1584525
1.1581855
1.157826
1.1573988
1.156927
1.1564315
1.1559301
1.1554372
1.1549633
1.154515
1.1540943
1.1536964
1.1533077
1.1529016
1.1524113
1.1515719
1.150141
1.1586191
1.1586191
1.158619
1.158619
1.158619
1.158619
1.1586189
1.1586189
1.1586188
1.1586187
1.1586186
1.1586185
1.1586181
1.1586148
1.1586067
1.1585923
1.1585705
1.1585409
1.1585033
1.1584577
1.1584043
1.1583431
1.1582736
1.1581947
1.1581033
1.1579931
1.1578516
1.1576144
1.1571861
1.1564717
1.158618
1.158618
1.158618
1.158618
1.158618
1.158618
1.158618
1.158618
1.1586179
1.1586179
1.1586179
1.1586179
1.1586179
1.1586178
1.1586174
1.1586167
1.1586154
1.1586134
1.1586103
1.1586061
1.1586003
1.1585926
1.1585825
1.1585691
1.1585502
1.1585218
1.1584742
1.1583814
1.1582045
1.1579069
1.1586194
1.1586176
1.1586155
1.1586131
1.15861
1.1586063
1.1586015
1.1585957
1.1585885
1.1585799
1.1585697
1.1585516
1.1583322
1.1520831
1.1465234
1.1417433
1.1377994
1.1347071
1.1324372
1.1309235
1.1300768
1.1297959
1.1299741
1.1305033
1.1312742
1.1321761
1.1330959
1.1339789
1.1349132
1.1358172
1.1586201
1.1586199
1.1586198
1.1586195
1.1586192
1.1586188
1.1586183
1.1586177
1.1586169
1.1586159
1.1586149
1.1586134
1.1586048
1.1584774
1.1582493
1.1579402
1.15757
1.1571582
1.156723
1.1562804
1.1558438
1.1554231
1.1550249
1.1546516
1.1543016
1.1539669
1.1536317
1.15324
1.1525679
1.1513984
1.1586191
1.1586191
1.158619
1.158619
1.158619
1.158619
1.1586189
1.1586189
1.1586188
1.1586187
1.1586186
1.1586185
1.1586182
1.1586153
1.1586082
1.1585954
1.158576
1.1585495
1.1585158
1.158475
1.1584275
1.1583738
1.1583147
1.1582503
1.1581806
1.1581045
1.1580178
1.1578759
1.1576153
1.1571693
1.158618
1.158618
1.158618
1.158618
1.158618
1.158618
1.158618
1.158618
1.1586179
1.1586179
1.1586179
1.1586179
1.1586179
1.1586178
1.1586175
1.1586168
1.1586156
1.1586137
1.1586108
1.1586069
1.1586016
1.1585948
1.1585864
1.1585761
1.1585636
1.1585482
1.158528
1.158492
1.1584244
1.1583077
1.1586195
1.1586177
1.1586156
1.1586131
1.1586101
1.1586063
1.1586016
1.1585958
1.1585888
1.1585804
1.1585706
1.1585505
1.1582856
1.151701
1.1459034
1.1409429
1.136841
1.1335913
1.1311607
1.1294917
1.1285122
1.1281492
1.1283033
1.1288748
1.1297676
1.130891
1.1321621
1.1335086
1.1348725
1.1361567
1.1586201
1.1586199
1.1586198
1.1586195
1.1586192
1.1586188
1.1586182
1.1586175
1.1586167
1.1586157
1.1586146
1.1586129
1.1586011
1.1584429
1.1581613
1.1577802
1.1573231
1.1568126
1.1562697
1.1557128
1.155153
1.1545801
1.1540014
1.1534173
1.1528219
1.1521905
1.1514781
1.1506058
1.1494413
1.1478409
1.1586191
1.1586191
1.158619
1.158619
1.158619
1.158619
1.1586189
1.1586189
1.1586188
1.1586187
1.1586186
1.1586184
1.1586179
1.1586138
1.1586034
1.1585848
1.1585565
1.1585177
1.158468
1.1584075
1.1583366
1.1582552
1.1581632
1.1580514
1.1579013
1.157693
1.1573896
1.1569275
1.1562011
1.1551145
1.158618
1.158618
1.158618
1.158618
1.158618
1.158618
1.158618
1.158618
1.1586179
1.1586179
1.1586179
1.1586179
1.1586178
1.1586177
1.1586171
1.158616
1.1586139
1.1586105
1.1586054
1.1585983
1.1585888
1.1585766
1.1585616
1.1585429
1.1585168
1.1584755
1.1584067
1.158286
1.1580689
1.1577102
)
;

boundaryField
{
    maxY
    {
        type            calculated;
        value           nonuniform List<scalar> 
300
(
1.1586175
1.1586175
1.1586175
1.1586175
1.1586175
1.1586175
1.1586175
1.1586175
1.1586175
1.1586175
1.1586175
1.1586175
1.1586175
1.1586175
1.1586175
1.1586175
1.1586175
1.1586175
1.1586175
1.1586175
1.1586175
1.1586175
1.1586175
1.1586175
1.1586175
1.1586175
1.1586175
1.1586175
1.1586175
1.1586175
1.1586175
1.1586175
1.1586175
1.1586175
1.1586175
1.1586175
1.1586175
1.1586175
1.1586175
1.1586175
1.1586175
1.1586175
1.1586175
1.1586175
1.1586175
1.1586175
1.1586175
1.1586175
1.1586175
1.1586175
1.1586174
1.1586174
1.1586174
1.1586174
1.1586174
1.1586174
1.1586174
1.1586174
1.1586174
1.1586174
1.1586174
1.1586174
1.1586174
1.1586174
1.1586174
1.1586174
1.1586174
1.1586174
1.1586174
1.1586174
1.1586174
1.1586174
1.1586174
1.1586174
1.1586174
1.1586174
1.1586174
1.1586174
1.1586174
1.1586174
1.1586174
1.1586174
1.1586174
1.1586174
1.1586174
1.1586174
1.1586174
1.1586174
1.1586174
1.1586174
1.1586174
1.1586174
1.1586174
1.1586174
1.1586174
1.1586174
1.1586174
1.1586174
1.1586174
1.1586174
1.1586174
1.1586174
1.1586174
1.1586174
1.1586174
1.1586174
1.1586174
1.1586174
1.1586174
1.1586174
1.1586174
1.1586174
1.1586174
1.1586174
1.1586174
1.1586174
1.1586174
1.1586174
1.1586174
1.1586174
1.1586173
1.1586173
1.1586173
1.1586173
1.1586173
1.1586173
1.1586173
1.1586173
1.1586173
1.1586173
1.1586171
1.1586172
1.1586172
1.1586172
1.1586171
1.1586171
1.1586172
1.1586172
1.1586172
1.1586171
1.1586166
1.1586169
1.1586169
1.1586168
1.1586166
1.1586166
1.1586168
1.1586169
1.1586169
1.1586166
1.1586155
1.1586163
1.1586162
1.1586158
1.1586152
1.1586152
1.1586158
1.1586162
1.1586163
1.1586155
1.1586134
1.1586151
1.1586149
1.1586141
1.1586122
1.1586122
1.1586141
1.1586149
1.1586151
1.1586134
1.15861
1.1586132
1.1586129
1.1586112
1.1586063
1.1586063
1.1586112
1.1586129
1.1586132
1.15861
1.1586049
1.1586103
1.1586098
1.1586067
1.1585948
1.1585948
1.1586067
1.1586098
1.1586103
1.1586049
1.1585978
1.1586063
1.1586055
1.1585997
1.158572
1.158572
1.1585997
1.1586055
1.1586063
1.1585978
1.1585883
1.158601
1.1585997
1.1585893
1.1585302
1.1585302
1.1585893
1.1585997
1.158601
1.1585883
1.1585761
1.1585943
1.1585921
1.1585734
1.1584583
1.1584583
1.1585734
1.1585921
1.1585943
1.1585761
1.158561
1.1585858
1.158582
1.1585488
1.1583407
1.1583407
1.1585488
1.158582
1.1585858
1.158561
1.1585424
1.1585756
1.1585685
1.1585101
1.1581557
1.1581557
1.1585101
1.1585685
1.1585756
1.1585424
1.1585163
1.1585631
1.1585497
1.1584437
1.157873
1.157873
1.1584437
1.1585497
1.1585631
1.1585163
1.158475
1.1585477
1.1585213
1.1583288
1.1574504
1.1574504
1.1583288
1.1585213
1.1585477
1.158475
1.1584062
1.1585275
1.1584737
1.1581291
1.1568271
1.1568271
1.1581291
1.1584737
1.1585275
1.1584062
1.1582855
1.1584915
1.1583809
1.157785
1.1559143
1.1559143
1.157785
1.1583809
1.1584915
1.1582855
1.1580684
1.1584239
1.158204
1.1572065
1.154587
1.154587
1.1572065
1.158204
1.1584239
1.1580684
1.1577097
1.1583072
1.1579064
1.156328
1.1527658
1.1527658
1.156328
1.1579064
1.1583072
1.1577097
)
;
    }
    minX
    {
        type            calculated;
        value           nonuniform List<scalar> 
40
(
1.1586212
1.1586201
1.1586191
1.158618
1.1586212
1.1586201
1.1586191
1.158618
1.1586212
1.1586201
1.1586191
1.158618
1.1586212
1.1586201
1.1586191
1.158618
1.1586212
1.1586201
1.1586191
1.158618
1.1586212
1.1586201
1.1586191
1.158618
1.1586212
1.1586201
1.1586191
1.158618
1.1586212
1.1586201
1.1586191
1.158618
1.1586212
1.1586201
1.1586191
1.158618
1.1586212
1.1586201
1.1586191
1.158618
)
;
    }
    maxX
    {
        type            calculated;
        value           nonuniform List<scalar> 
40
(
1.1361666
1.1478473
1.1551174
1.1577112
1.1358259
1.1514014
1.15717
1.1583079
1.1337027
1.1501437
1.1564724
1.1579071
1.1292359
1.1438812
1.1528753
1.1563292
1.1239351
1.132934
1.1448526
1.152768
1.1239351
1.132934
1.1448526
1.152768
1.1292359
1.1438812
1.1528753
1.1563292
1.1337027
1.1501437
1.1564724
1.1579071
1.1358259
1.1514014
1.15717
1.1583079
1.1361665
1.1478472
1.1551174
1.1577112
)
;
    }
    minZ
    {
        type            calculated;
        value           nonuniform List<scalar> 
120
(
1.1586195
1.1586201
1.1586191
1.158618
1.1586177
1.1586199
1.1586191
1.158618
1.1586156
1.1586198
1.158619
1.158618
1.1586131
1.1586195
1.158619
1.158618
1.1586101
1.1586192
1.158619
1.158618
1.1586063
1.1586188
1.158619
1.158618
1.1586016
1.1586182
1.1586189
1.158618
1.1585958
1.1586175
1.1586189
1.158618
1.1585888
1.1586167
1.1586188
1.1586179
1.1585804
1.1586157
1.1586187
1.1586179
1.1585706
1.1586146
1.1586186
1.1586179
1.1585505
1.1586129
1.1586184
1.1586179
1.1582856
1.1586011
1.1586179
1.1586178
1.151701
1.1584429
1.1586138
1.1586177
1.1459034
1.1581613
1.1586034
1.1586171
1.1409429
1.1577802
1.1585848
1.158616
1.136841
1.1573231
1.1585565
1.1586139
1.1335913
1.1568126
1.1585177
1.1586105
1.1311607
1.1562697
1.158468
1.1586054
1.1294917
1.1557128
1.1584075
1.1585983
1.1285122
1.155153
1.1583366
1.1585888
1.1281492
1.1545801
1.1582552
1.1585766
1.1283033
1.1540014
1.1581632
1.1585616
1.1288749
1.1534173
1.1580514
1.1585429
1.1297676
1.1528219
1.1579013
1.1585168
1.130891
1.1521905
1.157693
1.1584755
1.1321621
1.1514782
1.1573896
1.1584067
1.1335087
1.1506059
1.1569275
1.158286
1.1348725
1.1494414
1.1562011
1.1580689
1.1361567
1.1478409
1.1551145
1.1577102
)
;
    }
    maxZ
    {
        type            calculated;
        value           nonuniform List<scalar> 
120
(
1.1586195
1.1586201
1.1586191
1.158618
1.1586177
1.1586199
1.1586191
1.158618
1.1586156
1.1586198
1.158619
1.158618
1.1586131
1.1586195
1.158619
1.158618
1.1586101
1.1586192
1.158619
1.158618
1.1586063
1.1586188
1.158619
1.158618
1.1586016
1.1586182
1.1586189
1.158618
1.1585958
1.1586175
1.1586189
1.158618
1.1585888
1.1586167
1.1586188
1.1586179
1.1585804
1.1586157
1.1586187
1.1586179
1.1585706
1.1586146
1.1586186
1.1586179
1.1585505
1.1586129
1.1586184
1.1586179
1.1582856
1.1586011
1.1586179
1.1586178
1.151701
1.1584429
1.1586138
1.1586177
1.1459034
1.1581613
1.1586034
1.1586171
1.1409429
1.1577802
1.1585848
1.158616
1.136841
1.1573231
1.1585565
1.1586139
1.1335913
1.1568126
1.1585177
1.1586105
1.1311607
1.1562697
1.158468
1.1586054
1.1294917
1.1557128
1.1584075
1.1585983
1.1285122
1.155153
1.1583366
1.1585888
1.1281492
1.1545801
1.1582552
1.1585766
1.1283033
1.1540014
1.1581632
1.1585616
1.1288748
1.1534173
1.1580514
1.1585429
1.1297676
1.1528219
1.1579013
1.1585168
1.130891
1.1521905
1.157693
1.1584755
1.1321621
1.1514781
1.1573896
1.1584067
1.1335086
1.1506058
1.1569275
1.158286
1.1348725
1.1494413
1.1562011
1.1580689
1.1361567
1.1478409
1.1551145
1.1577102
)
;
    }
    topAir_to_rightSolid
    {
        type            calculated;
        value           nonuniform List<scalar> 
130
(
1.0721984
1.0812248
1.0906444
1.0999495
1.1087456
1.1167584
1.1238192
1.1298431
1.1348043
1.1387145
1.1416039
1.1435069
1.1444513
1.0643945
1.0750779
1.0859963
1.0965414
1.1063032
1.115037
1.12262
1.1290134
1.1342309
1.1383146
1.1413171
1.1432882
1.1442646
1.0489588
1.0633552
1.0774355
1.0904516
1.1020478
1.1120992
1.1206077
1.1276402
1.1332922
1.1376655
1.1408546
1.1429366
1.143965
1.0267129
1.0478424
1.0668846
1.0833537
1.0972957
1.1089238
1.118486
1.1262194
1.1323346
1.1370101
1.1403907
1.1425853
1.1436659
1.0019195
1.0337234
1.0584991
1.0782052
1.0940563
1.1068494
1.1171401
1.1253359
1.1317466
1.1366106
1.1401086
1.1423714
1.1434833
1.0019195
1.0337234
1.0584991
1.0782052
1.0940563
1.1068494
1.1171401
1.1253359
1.1317466
1.1366106
1.1401086
1.1423714
1.1434833
1.0267129
1.0478424
1.0668846
1.0833536
1.0972957
1.1089238
1.118486
1.1262194
1.1323346
1.1370101
1.1403907
1.1425853
1.1436658
1.0489587
1.0633551
1.0774354
1.0904515
1.1020477
1.1120992
1.1206077
1.1276402
1.1332921
1.1376655
1.1408546
1.1429366
1.143965
1.0643944
1.0750778
1.0859962
1.0965413
1.1063032
1.115037
1.12262
1.1290134
1.1342308
1.1383145
1.1413171
1.1432881
1.1442646
1.0721983
1.0812246
1.0906443
1.0999494
1.1087456
1.1167583
1.1238191
1.129843
1.1348043
1.1387145
1.1416039
1.1435069
1.1444513
)
;
    }
    topAir_to_heater
    {
        type            calculated;
        value           nonuniform List<scalar> 
40
(
1.0506958
1.0530314
1.057603
1.0641449
1.0387584
1.0415018
1.0469162
1.0547374
1.0144722
1.0179466
1.0250012
1.0355713
0.97740112
0.98154475
0.99056092
1.0055126
0.92814012
0.93175483
0.94090726
0.95987453
0.9281401
0.9317548
0.94090724
0.9598745
0.97740111
0.98154474
0.99056091
1.0055126
1.0144722
1.0179466
1.0250012
1.0355712
1.0387584
1.0415018
1.0469161
1.0547374
1.0506959
1.0530314
1.0576029
1.0641448
)
;
    }
    topAir_to_leftSolid
    {
        type            calculated;
        value           nonuniform List<scalar> 
130
(
1.1585812
1.1585778
1.158571
1.1585606
1.1585464
1.1585281
1.1585057
1.1584795
1.1584501
1.158419
1.1583885
1.1583619
1.1583435
1.1585802
1.1585766
1.1585693
1.1585581
1.1585426
1.1585224
1.1584971
1.1584666
1.1584313
1.158392
1.1583513
1.1583134
1.1582852
1.1585785
1.1585746
1.1585666
1.158554
1.1585363
1.1585127
1.1584823
1.158444
1.1583971
1.1583412
1.1582775
1.1582102
1.1581508
1.1585768
1.1585725
1.1585637
1.1585497
1.1585298
1.1585025
1.1584662
1.1584186
1.158357
1.1582778
1.1581776
1.1580541
1.1579173
1.1585758
1.1585713
1.1585619
1.158547
1.1585255
1.1584958
1.1584554
1.158401
1.1583278
1.1582284
1.1580909
1.157896
1.1576236
1.1585758
1.1585713
1.1585619
1.158547
1.1585255
1.1584958
1.1584554
1.158401
1.1583278
1.1582284
1.1580909
1.157896
1.1576236
1.1585768
1.1585725
1.1585637
1.1585497
1.1585298
1.1585025
1.1584662
1.1584186
1.158357
1.1582778
1.1581776
1.1580541
1.1579173
1.1585785
1.1585746
1.1585666
1.158554
1.1585363
1.1585127
1.1584823
1.158444
1.1583971
1.1583412
1.1582775
1.1582102
1.1581508
1.1585802
1.1585766
1.1585693
1.1585581
1.1585426
1.1585224
1.1584971
1.1584666
1.1584313
1.158392
1.1583513
1.1583134
1.1582852
1.1585812
1.1585778
1.158571
1.1585606
1.1585464
1.1585281
1.1585057
1.1584795
1.1584501
1.158419
1.1583885
1.1583619
1.1583435
)
;
    }
}


// ************************************************************************* //
