/*--------------------------------*- C++ -*----------------------------------*\
| =========                 |                                                 |
| \\      /  F ield         | OpenFOAM: The Open Source CFD Toolbox           |
|  \\    /   O peration     | Version:  2412                                  |
|   \\  /    A nd           | Website:  www.openfoam.com                      |
|    \\/     M anipulation  |                                                 |
\*---------------------------------------------------------------------------*/
FoamFile
{
    version     2.0;
    format      ascii;
    arch        "LSB;label=32;scalar=64";
    class       volScalarField;
    location    "90/topAir";
    object      T;
}
// * * * * * * * * * * * * * * * * * * * * * * * * * * * * * * * * * * * * * //

dimensions      [0 0 0 1 0 0 0];

internalField   nonuniform List<scalar> 
1200
(
300.00044
300.00091
300.00144
300.00208
300.00286
300.00384
300.00506
300.00656
300.00839
300.01054
300.01309
300.01829
300.0869
301.80259
303.32953
304.64833
305.74753
306.62404
307.2829
307.73694
308.00405
308.10317
308.06107
307.9051
307.66179
307.35617
307.01108
306.64638
306.27786
305.93168
300.00001
300.00004
300.00009
300.00015
300.00024
300.00035
300.00049
300.00066
300.00088
300.00114
300.00143
300.00187
300.00491
300.04589
300.11884
300.21764
300.33621
300.46874
300.60981
300.75466
300.90042
301.04972
301.2007
301.35322
301.50885
301.67408
301.86071
302.08956
302.3956
302.81724
300
300
300.00001
300.00001
300.00002
300.00002
300.00003
300.00005
300.00007
300.00009
300.00012
300.00016
300.00029
300.00136
300.00404
300.00886
300.01619
300.02624
300.03911
300.05478
300.07315
300.09423
300.11806
300.14704
300.18595
300.23996
300.31865
300.43862
300.62737
300.91017
300
300
300
300
300.00001
300.00001
300.00001
300.00001
300.00001
300.00002
300.00002
300.00003
300.00004
300.00008
300.00022
300.00051
300.00105
300.00193
300.00325
300.00509
300.00755
300.0107
300.0146
300.01943
300.02619
300.03689
300.0547
300.08597
300.14222
300.23522
300.00045
300.00093
300.00147
300.0021
300.00288
300.00386
300.00508
300.00659
300.00845
300.01067
300.01332
300.018
300.07484
301.70248
303.1655
304.43476
305.49001
306.32252
306.93652
307.34734
307.57762
307.6541
307.60557
307.46159
307.25206
307.0073
306.75808
306.51921
306.26688
306.02312
300.00001
300.00004
300.00009
300.00015
300.00023
300.00034
300.00047
300.00063
300.00084
300.00108
300.00135
300.00174
300.00396
300.03696
300.09603
300.17615
300.27215
300.37901
300.49202
300.60702
300.72057
300.83007
300.93379
301.03107
301.12236
301.20969
301.2972
301.39955
301.57531
301.88162
300
300
300.00001
300.00001
300.00001
300.00002
300.00003
300.00004
300.00006
300.00008
300.0001
300.00013
300.00022
300.00096
300.00281
300.00612
300.01114
300.018
300.02674
300.0373
300.0496
300.0635
300.07883
300.0955
300.11355
300.13327
300.15575
300.19252
300.26011
300.37583
300
300
300
300
300.00001
300.00001
300.00001
300.00001
300.00001
300.00001
300.00002
300.00002
300.00003
300.00006
300.00013
300.0003
300.00061
300.00111
300.00184
300.00288
300.00425
300.006
300.00818
300.01084
300.01407
300.01806
300.02329
300.03261
300.05012
300.08034
300.00047
300.00097
300.00154
300.00222
300.00306
300.00414
300.00551
300.00725
300.00945
300.01218
300.01557
300.02155
300.08916
302.04835
303.79748
305.29934
306.52362
307.45482
308.10576
308.50652
308.69437
308.70814
308.58589
308.36436
308.07869
307.7635
307.45327
307.16565
306.87229
306.59619
300.00002
300.00005
300.00009
300.00016
300.00024
300.00036
300.0005
300.00068
300.0009
300.00117
300.00149
300.00193
300.00451
300.0434
300.11257
300.20575
300.31655
300.43903
300.56776
300.69813
300.82641
300.94985
301.06669
301.17644
301.28031
301.38187
301.48801
301.61629
301.83614
302.21166
300
300
300.00001
300.00001
300.00001
300.00002
300.00003
300.00004
300.00006
300.00008
300.00011
300.00014
300.00024
300.00108
300.00319
300.00693
300.01257
300.02023
300.02997
300.04177
300.05561
300.07147
300.08945
300.1099
300.13359
300.16214
300.19883
300.26033
300.37148
300.55702
300
300
300
300
300.00001
300.00001
300.00001
300.00001
300.00001
300.00001
300.00002
300.00002
300.00003
300.00006
300.00014
300.00032
300.00065
300.00118
300.00197
300.00308
300.00458
300.00657
300.00918
300.01266
300.01753
300.02489
300.03721
300.06126
300.10709
300.18421
300.00049
300.00101
300.00161
300.00233
300.00325
300.00444
300.00599
300.00801
300.01064
300.01407
300.01858
300.02686
300.11587
302.66703
304.94751
306.90806
308.48695
309.61896
310.35359
310.76227
310.91313
310.86473
310.6658
310.35686
309.97181
309.53968
309.08615
308.63361
308.19938
307.80906
300.00002
300.00005
300.0001
300.00017
300.00026
300.00038
300.00053
300.00073
300.00099
300.0013
300.00168
300.00223
300.0056
300.05643
300.14711
300.27048
300.42097
300.60309
300.80806
301.02795
301.25578
301.48498
301.71166
301.93537
302.15922
302.39094
302.64468
302.94495
303.33378
303.86651
300
300
300.00001
300.00001
300.00002
300.00002
300.00003
300.00005
300.00007
300.00009
300.00012
300.00016
300.00028
300.00138
300.00414
300.00911
300.01676
300.02771
300.04255
300.06191
300.08656
300.11844
300.16011
300.21508
300.2887
300.39
300.53349
300.74228
301.05195
301.49503
300
300
300
300
300.00001
300.00001
300.00001
300.00001
300.00001
300.00001
300.00002
300.00002
300.00003
300.00007
300.00018
300.00042
300.00086
300.00161
300.00279
300.00458
300.00729
300.01141
300.01776
300.0278
300.04498
300.07475
300.12649
300.21569
300.36578
300.59398
300.0005
300.00104
300.00165
300.00241
300.00337
300.00463
300.0063
300.00852
300.01148
300.01547
300.02097
300.0319
300.15088
303.5528
306.61644
309.25931
311.34842
312.60036
313.28521
313.57242
313.57518
313.3733
313.02534
312.57565
312.05846
311.5008
310.92449
310.34761
309.78514
309.26084
300.00002
300.00005
300.0001
300.00017
300.00027
300.00039
300.00056
300.00077
300.00104
300.00139
300.00182
300.00247
300.00693
300.07491
300.20206
300.41852
300.73463
301.13222
301.59194
302.09425
302.62094
303.15607
303.68634
304.20126
304.69335
305.15837
305.59591
306.01021
306.40998
306.80321
300
300
300.00001
300.00001
300.00002
300.00002
300.00003
300.00005
300.00007
300.00009
300.00013
300.00017
300.00033
300.00179
300.00561
300.01341
300.02876
300.05729
300.10444
300.17576
300.27697
300.41359
300.59088
300.81408
301.08885
301.42231
301.82461
302.31115
302.90404
303.60826
300
300
300
300
300.00001
300.00001
300.00001
300.00001
300.00001
300.00002
300.00002
300.00002
300.00003
300.00008
300.00023
300.00059
300.00135
300.00287
300.00586
300.01178
300.0226
300.04121
300.07167
300.11961
300.19287
300.30248
300.4643
300.70155
301.04725
301.52284
300.0005
300.00104
300.00165
300.00241
300.00337
300.00463
300.0063
300.00852
300.01148
300.01547
300.02097
300.0319
300.15088
303.5528
306.61644
309.25931
311.34842
312.60036
313.28521
313.57242
313.57518
313.37329
313.02535
312.57565
312.05846
311.5008
310.92449
310.34761
309.78514
309.26083
300.00002
300.00005
300.0001
300.00017
300.00027
300.00039
300.00056
300.00077
300.00104
300.00139
300.00182
300.00247
300.00693
300.07491
300.20206
300.41852
300.73463
301.13222
301.59194
302.09425
302.62094
303.15607
303.68633
304.20126
304.69335
305.15837
305.59591
306.01021
306.40998
306.8032
300
300
300.00001
300.00001
300.00002
300.00002
300.00003
300.00005
300.00007
300.00009
300.00013
300.00017
300.00033
300.00179
300.00561
300.01341
300.02876
300.05729
300.10444
300.17576
300.27697
300.41359
300.59088
300.81408
301.08885
301.42231
301.82461
302.31115
302.90404
303.60826
300
300
300
300
300.00001
300.00001
300.00001
300.00001
300.00001
300.00002
300.00002
300.00002
300.00003
300.00008
300.00023
300.00059
300.00135
300.00287
300.00586
300.01178
300.0226
300.04121
300.07167
300.11961
300.19287
300.30248
300.4643
300.70155
301.04725
301.52284
300.00049
300.00101
300.00161
300.00233
300.00325
300.00444
300.00599
300.00801
300.01064
300.01407
300.01858
300.02686
300.11587
302.66703
304.94751
306.90806
308.48695
309.61896
310.35359
310.76227
310.91313
310.86471
310.6658
310.35685
309.9718
309.53967
309.08614
308.6336
308.19938
307.80906
300.00002
300.00005
300.0001
300.00017
300.00026
300.00038
300.00053
300.00073
300.00099
300.0013
300.00168
300.00223
300.0056
300.05643
300.14711
300.27048
300.42097
300.60309
300.80806
301.02795
301.25578
301.48497
301.71166
301.93537
302.15922
302.39094
302.64468
302.94494
303.33378
303.86651
300
300
300.00001
300.00001
300.00002
300.00002
300.00003
300.00005
300.00007
300.00009
300.00012
300.00016
300.00028
300.00138
300.00414
300.00911
300.01676
300.02771
300.04255
300.06191
300.08656
300.11844
300.16011
300.21508
300.2887
300.39
300.53349
300.74228
301.05195
301.49503
300
300
300
300
300.00001
300.00001
300.00001
300.00001
300.00001
300.00001
300.00002
300.00002
300.00003
300.00007
300.00018
300.00042
300.00086
300.00161
300.00279
300.00458
300.00729
300.01141
300.01776
300.0278
300.04498
300.07475
300.12649
300.21569
300.36578
300.59398
300.00047
300.00097
300.00154
300.00222
300.00306
300.00414
300.00551
300.00725
300.00945
300.01218
300.01557
300.02155
300.08916
302.04835
303.79748
305.29934
306.52362
307.45482
308.10576
308.50653
308.69437
308.70812
308.5859
308.36435
308.07869
307.76349
307.45326
307.16565
306.87229
306.59619
300.00002
300.00005
300.00009
300.00016
300.00024
300.00036
300.0005
300.00068
300.0009
300.00117
300.00149
300.00193
300.00451
300.0434
300.11257
300.20575
300.31655
300.43903
300.56776
300.69813
300.82641
300.94985
301.06669
301.17644
301.28031
301.38187
301.48801
301.61629
301.83614
302.21166
300
300
300.00001
300.00001
300.00001
300.00002
300.00003
300.00004
300.00006
300.00008
300.00011
300.00014
300.00024
300.00108
300.00319
300.00693
300.01257
300.02023
300.02997
300.04177
300.05561
300.07147
300.08945
300.1099
300.13359
300.16214
300.19883
300.26033
300.37148
300.55702
300
300
300
300
300.00001
300.00001
300.00001
300.00001
300.00001
300.00001
300.00002
300.00002
300.00003
300.00006
300.00014
300.00032
300.00065
300.00118
300.00197
300.00308
300.00458
300.00657
300.00918
300.01266
300.01753
300.02489
300.03721
300.06126
300.10709
300.18421
300.00045
300.00093
300.00147
300.0021
300.00288
300.00386
300.00508
300.00659
300.00845
300.01067
300.01332
300.018
300.07484
301.70248
303.1655
304.43476
305.49001
306.32252
306.93653
307.34735
307.57763
307.65409
307.60558
307.46159
307.25207
307.0073
306.75809
306.51921
306.26689
306.02313
300.00001
300.00004
300.00009
300.00015
300.00023
300.00034
300.00047
300.00063
300.00084
300.00108
300.00135
300.00174
300.00396
300.03696
300.09603
300.17615
300.27215
300.37901
300.49202
300.60702
300.72057
300.83006
300.93379
301.03107
301.12236
301.20969
301.2972
301.39955
301.57531
301.88162
300
300
300.00001
300.00001
300.00001
300.00002
300.00003
300.00004
300.00006
300.00008
300.0001
300.00013
300.00022
300.00096
300.00281
300.00612
300.01114
300.018
300.02674
300.0373
300.0496
300.0635
300.07883
300.0955
300.11355
300.13327
300.15575
300.19252
300.26011
300.37583
300
300
300
300
300.00001
300.00001
300.00001
300.00001
300.00001
300.00001
300.00002
300.00002
300.00003
300.00006
300.00013
300.0003
300.00061
300.00111
300.00184
300.00288
300.00425
300.006
300.00818
300.01084
300.01407
300.01806
300.02329
300.03261
300.05012
300.08034
300.00044
300.00091
300.00144
300.00208
300.00286
300.00384
300.00506
300.00656
300.00839
300.01054
300.01309
300.01829
300.0869
301.80259
303.32952
304.64833
305.74753
306.62404
307.28291
307.73695
308.00406
308.10316
308.06108
307.90511
307.66181
307.35618
307.0111
306.64639
306.27787
305.93169
300.00001
300.00004
300.00009
300.00015
300.00024
300.00035
300.00049
300.00066
300.00088
300.00114
300.00143
300.00187
300.00491
300.04589
300.11884
300.21764
300.33621
300.46874
300.60981
300.75466
300.90042
301.04971
301.2007
301.35322
301.50886
301.67409
301.86072
302.08956
302.39561
302.81725
300
300
300.00001
300.00001
300.00002
300.00002
300.00003
300.00005
300.00007
300.00009
300.00012
300.00016
300.00029
300.00136
300.00404
300.00886
300.01619
300.02624
300.03911
300.05478
300.07315
300.09422
300.11806
300.14704
300.18595
300.23996
300.31865
300.43862
300.62737
300.91017
300
300
300
300
300.00001
300.00001
300.00001
300.00001
300.00001
300.00002
300.00002
300.00003
300.00004
300.00008
300.00022
300.00051
300.00105
300.00193
300.00325
300.00509
300.00755
300.0107
300.0146
300.01943
300.0262
300.03689
300.0547
300.08597
300.14222
300.23522
)
;

boundaryField
{
    maxY
    {
        type            zeroGradient;
    }
    minX
    {
        type            fixedValue;
        value           uniform 300;
    }
    maxX
    {
        type            inletOutlet;
        inletValue      uniform 300;
        value           nonuniform List<scalar> 
40
(
305.92902
302.81556
300.9094
300.23497
306.02077
301.88082
300.37564
300.0803
306.59389
302.21094
300.55683
300.18415
307.80666
303.86549
301.49461
300.5938
309.25838
306.80165
303.60737
301.52242
309.25838
306.80165
303.60737
301.52242
307.80666
303.86549
301.49461
300.5938
306.59389
302.21094
300.55683
300.18415
306.02078
301.88082
300.37564
300.0803
305.92903
302.81557
300.9094
300.23497
)
;
    }
    minZ
    {
        type            zeroGradient;
    }
    maxZ
    {
        type            zeroGradient;
    }
    topAir_to_rightSolid
    {
        type            compressible::turbulentTemperatureRadCoupledMixed;
        refValue        nonuniform List<scalar> 
130
(
324.18676
321.47934
318.70179
316.00479
313.49698
311.24695
309.29084
307.64138
306.29607
305.24406
304.47135
303.96461
303.71381
326.56445
323.3181
320.0664
316.9874
314.18945
311.72774
309.62147
307.86765
306.45109
305.35142
304.54792
304.02279
303.76334
331.37103
326.88315
322.60992
318.75786
315.40271
312.55117
310.17735
308.24242
306.70476
305.52546
304.67123
304.11614
303.84275
338.55231
331.72323
325.80058
320.84623
316.76837
313.44577
310.76528
308.63079
306.96364
305.7011
304.79474
304.20926
303.92185
346.93161
336.25448
328.38148
322.3779
317.70577
314.03263
311.1391
308.87252
307.12252
305.80799
304.86962
304.26572
303.96992
346.9316
336.25448
328.38149
322.3779
317.70577
314.03263
311.13911
308.87252
307.12252
305.808
304.86962
304.26573
303.96993
338.55232
331.72324
325.8006
320.84624
316.76837
313.44578
310.76529
308.63079
306.96365
305.70111
304.79474
304.20926
303.92186
331.37106
326.88318
322.60994
318.75788
315.40272
312.55117
310.17736
308.24242
306.70477
305.52547
304.67124
304.11615
303.84276
326.56449
323.31814
320.06644
316.98742
314.18947
311.72775
309.62149
307.86766
306.4511
305.35143
304.54793
304.0228
303.76335
324.18681
321.47938
318.70182
316.00482
313.497
311.24696
309.29086
307.64139
306.29608
305.24406
304.47135
303.96462
303.71381
)
;
        refGradient     uniform 0;
        valueFraction   uniform 0.99967867;
        source          uniform 0;
        logInterval     -1;
        writePrecision  8;
        updateHeader    1;
        writeToFile     0;
        useUserTime     1;
        kappaMethod     fluidThermo;
        value           nonuniform List<scalar> 
130
(
324.18112
321.47477
318.69826
316.00222
313.49525
311.24592
309.29039
307.64138
306.29641
305.24462
304.47204
303.96535
303.71452
326.55794
323.31283
320.06232
316.98438
314.18735
311.72642
309.62078
307.86745
306.45126
305.35187
304.54855
304.02351
303.76407
331.36334
326.87711
322.60538
318.75463
315.40056
312.5499
310.17677
308.24236
306.7051
305.52608
304.67203
304.11703
303.84363
338.54301
331.71637
325.79575
320.84303
316.76647
313.44488
310.76515
308.63122
306.96447
305.70219
304.79597
304.21054
303.9231
346.92058
336.2471
328.37673
322.37507
317.70438
314.03231
311.13957
308.87354
307.12393
305.80964
304.87138
304.26749
303.97162
346.92057
336.2471
328.37673
322.37507
317.70438
314.03231
311.13957
308.87354
307.12393
305.80964
304.87138
304.2675
303.97163
338.54302
331.71638
325.79577
320.84305
316.76648
313.44489
310.76516
308.63122
306.96447
305.70219
304.79597
304.21054
303.92311
331.36337
326.87714
322.60541
318.75465
315.40057
312.5499
310.17678
308.24237
306.70511
305.52609
304.67204
304.11703
303.84364
326.55798
323.31287
320.06235
316.9844
314.18737
311.72643
309.6208
307.86746
306.45127
305.35188
304.54856
304.02352
303.76408
324.18117
321.47482
318.6983
316.00225
313.49527
311.24593
309.29041
307.6414
306.29642
305.24463
304.47205
303.96536
303.71453
)
;
    }
    topAir_to_heater
    {
        type            compressible::turbulentTemperatureRadCoupledMixed;
        refValue        nonuniform List<scalar> 
40
(
330.82487
330.09041
328.66271
326.64126
334.62785
333.74567
332.01873
329.55562
342.64096
341.47057
339.11924
335.65646
355.6402
354.13771
350.91279
345.69284
374.52067
373.06637
369.43565
362.1329
374.52068
373.06638
369.43566
362.13291
355.64021
354.13771
350.9128
345.69285
342.64096
341.47057
339.11924
335.65647
334.62785
333.74567
332.01874
329.55564
330.82483
330.0904
328.66273
326.64131
)
;
        refGradient     uniform 0;
        valueFraction   uniform 0.99967867;
        source          uniform 0;
        logInterval     -1;
        writePrecision  8;
        updateHeader    1;
        writeToFile     0;
        useUserTime     1;
        kappaMethod     fluidThermo;
        value           nonuniform List<scalar> 
40
(
330.81555
330.08181
328.65499
326.63454
334.61727
333.73585
332.00986
329.54788
342.62792
341.45846
339.10837
335.6471
355.62318
354.1219
350.89865
345.68088
374.49787
373.04502
369.41631
362.11659
374.49788
373.04502
369.41632
362.1166
355.62319
354.12191
350.89866
345.68089
342.62792
341.45847
339.10838
335.64711
334.61727
333.73585
332.00988
329.54791
330.81551
330.0818
328.65502
326.63459
)
;
    }
    topAir_to_leftSolid
    {
        type            compressible::turbulentTemperatureRadCoupledMixed;
        refValue        nonuniform List<scalar> 
130
(
300.01049
300.01136
300.01312
300.01582
300.01951
300.02424
300.03004
300.03683
300.04444
300.0525
300.06041
300.06729
300.07205
300.01076
300.01168
300.01356
300.01646
300.02048
300.02572
300.03227
300.04016
300.04933
300.05949
300.07004
300.07987
300.08715
300.01119
300.0122
300.01428
300.01753
300.02211
300.02822
300.03611
300.04602
300.05818
300.07266
300.08917
300.10661
300.12199
300.01163
300.01273
300.01502
300.01864
300.02381
300.03088
300.04029
300.05261
300.06858
300.08908
300.11506
300.14707
300.18252
300.0119
300.01307
300.01549
300.01934
300.02491
300.03262
300.04308
300.05716
300.07612
300.1019
300.13753
300.18808
300.25868
300.0119
300.01307
300.01549
300.01934
300.02491
300.03262
300.04308
300.05716
300.07612
300.1019
300.13753
300.18808
300.25868
300.01163
300.01273
300.01502
300.01864
300.02381
300.03088
300.04029
300.05261
300.06858
300.08908
300.11506
300.14707
300.18252
300.01119
300.0122
300.01428
300.01753
300.02211
300.02822
300.03611
300.04602
300.05818
300.07266
300.08917
300.10661
300.12199
300.01076
300.01168
300.01356
300.01646
300.02048
300.02572
300.03227
300.04016
300.04933
300.05949
300.07004
300.07987
300.08715
300.01049
300.01136
300.01312
300.01582
300.01951
300.02424
300.03004
300.03683
300.04444
300.0525
300.06041
300.06729
300.07205
)
;
        refGradient     uniform 0;
        valueFraction   uniform 0.99967867;
        source          uniform 0;
        logInterval     -1;
        writePrecision  8;
        updateHeader    1;
        writeToFile     0;
        useUserTime     1;
        kappaMethod     fluidThermo;
        value           nonuniform List<scalar> 
130
(
300.01049
300.01136
300.01312
300.01581
300.0195
300.02424
300.03003
300.03682
300.04443
300.05249
300.0604
300.06727
300.07205
300.01075
300.01168
300.01356
300.01646
300.02048
300.02572
300.03226
300.04015
300.04931
300.05947
300.07002
300.07985
300.08715
300.01119
300.0122
300.01428
300.01753
300.02211
300.02822
300.0361
300.04601
300.05817
300.07264
300.08914
300.10659
300.12198
300.01162
300.01273
300.01502
300.01863
300.02381
300.03087
300.04028
300.05259
300.06856
300.08906
300.11503
300.14703
300.1825
300.01189
300.01306
300.01548
300.01933
300.0249
300.03261
300.04307
300.05714
300.0761
300.10187
300.1375
300.18802
300.25864
300.01189
300.01306
300.01548
300.01933
300.0249
300.03261
300.04307
300.05714
300.0761
300.10187
300.1375
300.18802
300.25864
300.01162
300.01273
300.01502
300.01863
300.02381
300.03087
300.04028
300.05259
300.06856
300.08906
300.11503
300.14703
300.1825
300.01119
300.0122
300.01428
300.01753
300.02211
300.02822
300.0361
300.04601
300.05817
300.07264
300.08914
300.10659
300.12198
300.01075
300.01168
300.01356
300.01646
300.02048
300.02572
300.03226
300.04015
300.04931
300.05947
300.07002
300.07985
300.08715
300.01049
300.01136
300.01312
300.01581
300.0195
300.02424
300.03003
300.03682
300.04443
300.05249
300.0604
300.06727
300.07205
)
;
    }
}


// ************************************************************************* //
