/*--------------------------------*- C++ -*----------------------------------*\
| =========                 |                                                 |
| \\      /  F ield         | OpenFOAM: The Open Source CFD Toolbox           |
|  \\    /   O peration     | Version:  2412                                  |
|   \\  /    A nd           | Website:  www.openfoam.com                      |
|    \\/     M anipulation  |                                                 |
\*---------------------------------------------------------------------------*/
FoamFile
{
    version     2.0;
    format      ascii;
    arch        "LSB;label=32;scalar=64";
    class       volVectorField;
    location    "90/topAir";
    object      U;
}
// * * * * * * * * * * * * * * * * * * * * * * * * * * * * * * * * * * * * * //

dimensions      [0 1 -1 0 0 0 0];

internalField   nonuniform List<vector> 
1200
(
(0.097237182 0.00097028336 0.00080566041)
(0.096240919 0.0013044055 0.0012075403)
(0.09439225 0.0013380492 0.0013624715)
(0.091915133 0.0013061501 0.0014255833)
(0.089381979 0.0012550031 0.0014469605)
(0.086987919 0.0011855243 0.001436232)
(0.0847271 0.0011020545 0.0014004795)
(0.082581158 0.0010088373 0.0013481803)
(0.080562019 0.00090397613 0.001286115)
(0.078702718 0.0007755731 0.0012188101)
(0.077060973 0.00059033857 0.0011493093)
(0.075723902 0.00026627889 0.0010806335)
(0.075042851 -0.00029209763 0.0010202761)
(0.074937683 -0.00042011109 0.00097117348)
(0.075014006 -0.00042213023 0.00094264046)
(0.074961412 -0.00037186646 0.00092820696)
(0.074690146 -0.00028799013 0.00091837688)
(0.074198723 -0.00018755404 0.00090556381)
(0.073498646 -8.5011839e-05 0.00088341116)
(0.072605452 1.1253606e-05 0.00084603829)
(0.071543028 9.5846057e-05 0.00078724057)
(0.070339344 0.00016878713 0.00070078845)
(0.069001954 0.00024977182 0.00058472146)
(0.067535074 0.00036437675 0.00043449637)
(0.065909682 0.00055006081 0.00024437704)
(0.06403713 0.00086819598 1.3691971e-05)
(0.061719622 0.0014373412 -0.0002381434)
(0.058545806 0.0025186311 -0.00045691303)
(0.053705927 0.0047164517 -0.00067438004)
(0.039177449 0.009965889 -0.00084690616)
(0.099370349 0.00098131802 0.00083143693)
(0.1001336 0.0013347637 0.0012610861)
(0.10060691 0.0014034727 0.001444121)
(0.10061403 0.001411071 0.0015362837)
(0.10044337 0.0013945819 0.001585668)
(0.1002486 0.0013527271 0.0016019989)
(0.10004027 0.0012879482 0.0015927435)
(0.099804272 0.0012004766 0.0015661649)
(0.099544133 0.001082364 0.0015284883)
(0.099270356 0.00091440539 0.0014834851)
(0.098979963 0.00065942869 0.0014336485)
(0.098646903 0.00024911292 0.0013816759)
(0.09812622 -0.00037422993 0.0013271865)
(0.097484543 -0.00058427857 0.001277536)
(0.096938212 -0.00063462462 0.0012345438)
(0.096510093 -0.000612165 0.0011963209)
(0.096169044 -0.00054318455 0.0011601692)
(0.095896391 -0.00044614393 0.0011245114)
(0.095681063 -0.00033566826 0.0010883182)
(0.095509776 -0.00021822962 0.0010505784)
(0.095364801 -9.123328e-05 0.0010106686)
(0.095219176 6.2542454e-05 0.00096820792)
(0.095061164 0.00027910362 0.00091949576)
(0.094853594 0.00060342684 0.00086095103)
(0.094532307 0.0011052451 0.00079277245)
(0.094005366 0.001919521 0.00071990416)
(0.093139193 0.0032810711 0.00065047488)
(0.091777612 0.0055950161 0.00062260784)
(0.089982921 0.0096052974 0.0007049725)
(0.085655467 0.016396671 0.001068147)
(0.099370026 -0.00098416821 0.00083144726)
(0.10013204 -0.0013411222 0.0012611086)
(0.10060265 -0.0014151884 0.0014441599)
(0.10060469 -0.0014316605 0.0015363404)
(0.10042489 -0.0014302 0.0015857382)
(0.10021397 -0.0014139545 0.001602062)
(0.099977494 -0.0013927699 0.0015927454)
(0.099693236 -0.0013791561 0.0015659914)
(0.099352432 -0.0013852734 0.0015279402)
(0.098949729 -0.0014241284 0.0014822704)
(0.098469689 -0.0015078277 0.0014311467)
(0.097885543 -0.0016354151 0.0013762685)
(0.097163609 -0.0017782951 0.0013193205)
(0.096317808 -0.0018187334 0.0012609513)
(0.095434794 -0.001781148 0.0012031434)
(0.094585408 -0.0017082023 0.0011474908)
(0.093794837 -0.0016180479 0.0010946109)
(0.093073902 -0.0015170022 0.0010445704)
(0.092433216 -0.0014083245 0.00099677048)
(0.091883629 -0.0012906576 0.00095008804)
(0.091438525 -0.0011529162 0.00090162039)
(0.091118343 -0.00096897458 0.0008478585)
(0.090945386 -0.00070204972 0.00078630676)
(0.090961933 -0.00029325514 0.00072520971)
(0.091179367 0.00035399033 0.00068100725)
(0.091641738 0.0013805775 0.00066738587)
(0.092472155 0.0030042157 0.00069779492)
(0.093857997 0.0055638006 0.00081389168)
(0.096261429 0.0095405892 0.0011119577)
(0.1014834 0.015193247 0.0016062661)
(0.097236326 -0.00097136934 0.00080566779)
(0.096237235 -0.0013067803 0.0012075502)
(0.094383146 -0.0013423575 0.0013624872)
(0.091896687 -0.0013135969 0.0014256038)
(0.089347689 -0.0012677087 0.0014469726)
(0.086926809 -0.001207178 0.0014361912)
(0.084620575 -0.0011390449 0.00140027)
(0.082397633 -0.001072299 0.0013475384)
(0.080247558 -0.0010137291 0.0012844757)
(0.078163906 -0.00096842656 0.0012150049)
(0.076132106 -0.00094000829 0.0011413173)
(0.074130787 -0.00092807614 0.0010645821)
(0.072141335 -0.00092486778 0.00098538134)
(0.070168047 -0.00090619736 0.00090403099)
(0.068255138 -0.00086362769 0.00082189028)
(0.06645917 -0.0008084347 0.00074079211)
(0.06481204 -0.00074850462 0.0006624512)
(0.063325423 -0.00068614763 0.00058808141)
(0.062006989 -0.00062239037 0.00051637007)
(0.060868112 -0.00055681466 0.0004452396)
(0.059927051 -0.00048496477 0.00037047019)
(0.059220698 -0.00039631293 0.00028142126)
(0.058815949 -0.00027244711 0.00016343128)
(0.05877068 -7.6433348e-05 2.0768901e-05)
(0.059284238 0.0002525561 -0.00013101446)
(0.060604045 0.00077813567 -0.0002499758)
(0.062976312 0.0015955924 -0.00025529196)
(0.066793072 0.0028671052 -6.7185959e-05)
(0.072705943 0.0047688544 0.00038704138)
(0.085388479 0.0074988264 0.00090233835)
(0.098510686 0.000994014 0.0010641314)
(0.098438521 0.0013483131 0.001631182)
(0.097926642 0.0013988063 0.0018723729)
(0.09698769 0.0013828891 0.0019877018)
(0.095970334 0.0013456704 0.0020450901)
(0.095011187 0.0012881249 0.00205781)
(0.094108805 0.0012151832 0.0020351628)
(0.093248118 0.0011316193 0.001988496)
(0.092436567 0.001036269 0.0019268502)
(0.091700703 0.00091884437 0.0018562078)
(0.09108856 0.00075084111 0.0017812205)
(0.090680326 0.00046363731 0.0017066197)
(0.090756764 -4.1329251e-05 0.0016432015)
(0.091350095 -0.00023343251 0.0016373882)
(0.092121189 -0.0003642488 0.0017241742)
(0.09277789 -0.00048424799 0.0018909342)
(0.093233901 -0.00059853524 0.0021096935)
(0.093487966 -0.00071438831 0.0023532834)
(0.093552659 -0.00083837926 0.0025967137)
(0.09344428 -0.00097152813 0.0028192168)
(0.093183642 -0.0011098691 0.003003542)
(0.09279053 -0.0012440048 0.0031346765)
(0.092275142 -0.0013571326 0.0032019488)
(0.091630733 -0.0014237087 0.0031915332)
(0.090818182 -0.0014013475 0.0030860075)
(0.089749712 -0.0012277656 0.00286885)
(0.088245913 -0.00081428384 0.0025353969)
(0.085997122 2.486982e-05 0.002099402)
(0.082553289 0.0018161497 0.0015434042)
(0.072437934 0.0062974544 0.00074296003)
(0.10070222 0.001001021 0.0010960793)
(0.10244798 0.0013608028 0.0016851643)
(0.10432673 0.0014292504 0.0019457548)
(0.10595476 0.0014361552 0.0020836286)
(0.10740561 0.0014198412 0.0021664877)
(0.10877896 0.001379329 0.0022070903)
(0.11009055 0.0013173925 0.0022143393)
(0.11133061 0.0012348708 0.0021987821)
(0.1125005 0.00112498 0.0021683529)
(0.1136086 0.00097073977 0.0021274373)
(0.11465413 0.00073951522 0.0020779331)
(0.11561529 0.00037246891 0.0020201494)
(0.11640399 -0.00019169637 0.0019491455)
(0.11705394 -0.00045331477 0.0018563566)
(0.11773956 -0.00063041034 0.001747908)
(0.11848067 -0.00078787961 0.0016306099)
(0.11925478 -0.00093867562 0.0015084932)
(0.12005016 -0.0010925544 0.0013863851)
(0.12085982 -0.0012576858 0.0012674721)
(0.12167478 -0.0014351692 0.0011522331)
(0.1224856 -0.0016191701 0.0010387666)
(0.12328438 -0.0017944724 0.00092236804)
(0.1240665 -0.0019327292 0.00079348533)
(0.12483499 -0.0019871647 0.0006417393)
(0.12559203 -0.0018840145 0.00045560436)
(0.12633759 -0.0015080437 0.00022581713)
(0.12710804 -0.00068493245 -5.5786193e-05)
(0.12792175 0.0008915341 -0.0003805903)
(0.1288776 0.0038497177 -0.00066671143)
(0.13072702 0.0092486693 -0.00070851597)
(0.1007019 -0.0010038872 0.0010960818)
(0.10244644 -0.0013671846 0.0016851769)
(0.10432257 -0.0014409431 0.0019457838)
(0.10594572 -0.001456548 0.0020836724)
(0.10738786 -0.0014548075 0.0021665287)
(0.10874599 -0.0014388569 0.0022070712)
(0.11003132 -0.0014182893 0.0022141174)
(0.11122687 -0.0014051455 0.0021980476)
(0.11232311 -0.0014108088 0.0021664986)
(0.1133144 -0.0014471093 0.0021233954)
(0.11418834 -0.0015251291 0.0020699738)
(0.11492369 -0.00164578 0.0020056015)
(0.1154965 -0.0017830996 0.0019279881)
(0.11592147 -0.0018475609 0.0018332186)
(0.11627028 -0.0018620718 0.0017192933)
(0.11660116 -0.0018620281 0.001587651)
(0.11693408 -0.0018610999 0.0014400513)
(0.11727727 -0.0018639038 0.0012783276)
(0.11763855 -0.0018745101 0.0011029621)
(0.11802472 -0.0018935779 0.00091164884)
(0.11844909 -0.0019161469 0.00069867809)
(0.11893122 -0.0019324988 0.00045571952)
(0.11949837 -0.0019235358 0.0001735519)
(0.12019784 -0.001846143 -0.00015144941)
(0.12110554 -0.0016333091 -0.00051766368)
(0.12233044 -0.0011726346 -0.0009253157)
(0.12407449 -0.00026841286 -0.0013711208)
(0.12651824 0.0013412324 -0.001826165)
(0.1302745 0.0039576731 -0.0022070244)
(0.13866272 0.0075775518 -0.0023837764)
(0.098509839 -0.00099510548 0.0010641242)
(0.098434896 -0.0013506962 0.0016311789)
(0.097917748 -0.0014031098 0.0018723775)
(0.096969815 -0.0013902801 0.0019876989)
(0.095937388 -0.0013581841 0.0020450237)
(0.094952984 -0.0013092645 0.0020575291)
(0.094008277 -0.0012509523 0.0020343065)
(0.093076598 -0.0011923739 0.0019862633)
(0.092145691 -0.0011402439 0.001921549)
(0.091208063 -0.0010994752 0.001844376)
(0.090251656 -0.0010735565 0.0017560619)
(0.089260247 -0.0010626486 0.0016558495)
(0.088221461 -0.0010605712 0.0015412393)
(0.087143478 -0.001049793 0.0014085738)
(0.086067855 -0.001024299 0.0012549335)
(0.085045718 -0.0009936917 0.0010799824)
(0.084107289 -0.00096391307 0.00088529404)
(0.083263446 -0.00093606268 0.00067214801)
(0.082525102 -0.00091175246 0.00044002908)
(0.081907047 -0.00089144436 0.00018419067)
(0.081421914 -0.00087202224 -0.00010470666)
(0.081082348 -0.00085058816 -0.000440819)
(0.080901401 -0.00082136866 -0.00083996865)
(0.08094943 -0.00076281284 -0.0013138746)
(0.081327613 -0.00064124156 -0.0018708342)
(0.082221073 -0.00039910052 -0.0024989235)
(0.083895492 7.3373027e-05 -0.0031564333)
(0.087087727 0.00089061128 -0.0037879778)
(0.092433828 0.002070277 -0.0043489281)
(0.10432465 0.0035865375 -0.0048176398)
(0.098383547 0.00098909551 0.00041057537)
(0.098089199 0.0013375575 0.00070731047)
(0.097488151 0.0013818326 0.000882831)
(0.096604016 0.0013612568 0.00099057479)
(0.095713297 0.001320886 0.0010620995)
(0.094914394 0.0012610788 0.0011060294)
(0.094198475 0.0011865159 0.0011261809)
(0.093547571 0.0011017716 0.0011278291)
(0.092963795 0.0010051494 0.0011165888)
(0.092469333 0.00088495398 0.0010979344)
(0.092112014 0.00070905289 0.0010792395)
(0.09197307 0.00040088033 0.0010740666)
(0.092401199 -0.0001414987 0.0010994727)
(0.0933984 -0.00029619368 0.0012545074)
(0.094566675 -0.000370851 0.0015920737)
(0.095564756 -0.00043171409 0.0020868362)
(0.096298971 -0.00049225914 0.0026893345)
(0.096775196 -0.00056706466 0.0033525231)
(0.097017023 -0.00066598729 0.0040285535)
(0.097054065 -0.00079144789 0.0046834721)
(0.096916365 -0.00093986977 0.0052942388)
(0.096626615 -0.0011016319 0.0058419013)
(0.096191293 -0.0012576722 0.006308207)
(0.095589629 -0.0013751724 0.0066717128)
(0.09476254 -0.001405949 0.0069032284)
(0.093597561 -0.0012775932 0.0069609168)
(0.091891524 -0.00088824745 0.0067774756)
(0.089316755 -4.5593681e-05 0.0062147426)
(0.085464618 0.0017949815 0.0050164144)
(0.074605657 0.0064664722 0.003102718)
(0.1005723 0.0010004905 0.00042282975)
(0.10209643 0.0013604705 0.00073400175)
(0.10388912 0.001426167 0.00092515323)
(0.10557479 0.0014297033 0.0010509091)
(0.10715376 0.0014103618 0.0011425634)
(0.10868881 0.0013669981 0.001208301)
(0.11018919 0.0013022031 0.0012515253)
(0.11164274 0.0012166133 0.001276677)
(0.11304553 0.0011029059 0.0012877696)
(0.1143998 0.00094276799 0.0012868649)
(0.11569841 0.00070064337 0.0012729735)
(0.11691352 0.00031191261 0.0012393773)
(0.11792544 -0.00028616084 0.0011744196)
(0.11879454 -0.00050500111 0.001038295)
(0.11972394 -0.00061389145 0.00084791786)
(0.12073124 -0.00069679534 0.00062581611)
(0.12178926 -0.00077741707 0.00039029464)
(0.12288129 -0.00087462379 0.00015280717)
(0.12399214 -0.0010023087 -7.2103274e-05)
(0.12510375 -0.0011661717 -0.00027824961)
(0.12619699 -0.0013615318 -0.00046721158)
(0.12725522 -0.0015727354 -0.00064940119)
(0.12826461 -0.0017695694 -0.0008403861)
(0.12920772 -0.0018998211 -0.0010622305)
(0.13006803 -0.0018779891 -0.0013500133)
(0.13082941 -0.0015698502 -0.001751051)
(0.13150155 -0.00076987534 -0.002325185)
(0.13208112 0.00087678543 -0.0031611657)
(0.1326609 0.0040615254 -0.0043014337)
(0.13377217 0.0099278653 -0.0057245793)
(0.10057198 -0.0010033864 0.0004228126)
(0.10209487 -0.0013669256 0.0007339618)
(0.10388489 -0.0014380054 0.00092507121)
(0.10556557 -0.001450378 0.0010507377)
(0.10713565 -0.0014458771 0.001142201)
(0.1086551 -0.0014276027 0.0012075379)
(0.11012854 -0.001405216 0.0012499428)
(0.11153629 -0.0013910395 0.0012734757)
(0.11286322 -0.0013968281 0.0012815179)
(0.11409734 -0.0014347306 0.0012752999)
(0.11522053 -0.001515733 0.0012535092)
(0.11620666 -0.0016392265 0.0012118936)
(0.11702474 -0.0017769161 0.0011432689)
(0.1176895 -0.001822401 0.0010321222)
(0.11828233 -0.0018059027 0.00087118973)
(0.11886647 -0.0017714806 0.00066279213)
(0.11946173 -0.0017382417 0.00040865297)
(0.12007255 -0.0017168542 0.00011231304)
(0.12069938 -0.001713705 -0.00022432381)
(0.12134252 -0.0017318211 -0.00060359603)
(0.12199966 -0.0017686739 -0.0010295906)
(0.12267286 -0.0018122976 -0.0015085624)
(0.12337828 -0.0018380839 -0.0020557479)
(0.12415273 -0.0018011086 -0.0026995305)
(0.12506213 -0.0016219583 -0.0034758513)
(0.12622351 -0.0011649894 -0.0044329205)
(0.12783025 -0.00019882634 -0.0056235738)
(0.13005112 0.0015927143 -0.0070848085)
(0.13353673 0.0045943461 -0.0088388572)
(0.14151813 0.0088633641 -0.010745598)
(0.098382682 -0.00099020039 0.00041051925)
(0.098085487 -0.0013399705 0.00070717432)
(0.09747903 -0.001386193 0.00088255339)
(0.09658566 -0.0013687555 0.00099002625)
(0.095679402 -0.0013336098 0.0010610171)
(0.094854358 -0.0012826376 0.0011038815)
(0.094094414 -0.0012231365 0.0011218969)
(0.093369203 -0.0011642881 0.0011192597)
(0.092659544 -0.0011128467 0.00109943)
(0.091950289 -0.0010736847 0.001063535)
(0.09122268 -0.0010501129 0.0010100617)
(0.090454639 -0.0010418227 0.00093478536)
(0.089628504 -0.0010419967 0.00083071402)
(0.088749563 -0.0010292063 0.00068840331)
(0.087860699 -0.00099692717 0.00050034466)
(0.0870155 -0.00095712731 0.00026354675)
(0.086242824 -0.00091726101 -2.027561e-05)
(0.08555253 -0.00088070157 -0.00034881599)
(0.084944079 -0.00084785308 -0.00072029102)
(0.084412796 -0.00081804703 -0.0011393395)
(0.083960747 -0.00079111064 -0.0016178862)
(0.083600536 -0.00076312371 -0.0021704928)
(0.083362037 -0.0007234132 -0.0028160739)
(0.083300521 -0.00064936892 -0.0035840256)
(0.083525084 -0.00050137822 -0.0045233814)
(0.084238675 -0.00020462221 -0.0057075291)
(0.085771686 0.00037438802 -0.007238775)
(0.088933082 0.0013776856 -0.0091789574)
(0.094417195 0.0028934228 -0.011489724)
(0.10710956 0.0049420606 -0.013860756)
(0.098359609 0.00099147225 0.00022338918)
(0.097990663 0.0013431556 0.00042107506)
(0.097302444 0.0013897742 0.00056815852)
(0.096351541 0.0013705943 0.00066897892)
(0.095416784 0.001330933 0.00073642952)
(0.094588775 0.0012710993 0.00077925971)
(0.093855692 0.0011956561 0.00080246078)
(0.093199982 0.0011089664 0.00081031209)
(0.092624563 0.0010086283 0.0008073094)
(0.092153977 0.00088070185 0.00079858728)
(0.091843662 0.00068644512 0.00079193264)
(0.091784057 0.00033391712 0.00080246719)
(0.092442666 -0.00028465378 0.00084869167)
(0.093772553 -0.00035719546 0.0010679765)
(0.095255433 -0.00027655502 0.001534369)
(0.096461279 -0.00012832229 0.0022360838)
(0.097288671 6.1483772e-05 0.0031092764)
(0.09777472 0.00024119488 0.0040687308)
(0.097948149 0.00039738812 0.0050532629)
(0.097856388 0.00052531347 0.0060310436)
(0.097534806 0.00062481326 0.0069848389)
(0.097000988 0.00069943152 0.0078987287)
(0.096253172 0.00076331066 0.0087507325)
(0.095262316 0.00084287206 0.0095069711)
(0.093960046 0.00098061135 0.010113553)
(0.09221859 0.0012451653 0.010481534)
(0.089812948 0.0017554159 0.010457402)
(0.086340397 0.0027529659 0.0097781034)
(0.081037008 0.0047839497 0.0080641656)
(0.066303043 0.0096758688 0.0051247589)
(0.10054871 0.0010007166 0.00023036874)
(0.1019986 0.0013620111 0.00043707457)
(0.10370479 0.0014285612 0.00059432296)
(0.10532444 0.0014322146 0.00070695995)
(0.10685927 0.0014124701 0.00078794848)
(0.10836387 0.0013681243 0.00084573562)
(0.10984429 0.0013014956 0.00088484117)
(0.11128805 0.0012127157 0.00090872512)
(0.11269012 0.0010933869 0.0009202346)
(0.11404969 0.00092278134 0.00092061687)
(0.11535332 0.00066001156 0.00090741912)
(0.11656468 0.00022984367 0.00086990984)
(0.11751301 -0.00043146303 0.00078906681)
(0.11829999 -0.00055129668 0.00060124894)
(0.11918804 -0.00047359952 0.00032722465)
(0.12019546 -0.00030312714 -3.4991104e-06)
(0.12127754 -7.842276e-05 -0.00035249694)
(0.12238314 0.00015724184 -0.00067830164)
(0.12350124 0.0003830779 -0.00096340249)
(0.12460064 0.00059026227 -0.0012025907)
(0.12564818 0.00078053685 -0.0013978678)
(0.12661028 0.00096933851 -0.0015593603)
(0.127451 0.0011857594 -0.001706206)
(0.12811633 0.0014760427 -0.0018683627)
(0.12852062 0.0019253022 -0.0020883459)
(0.12853318 0.0026755659 -0.0024289745)
(0.12796947 0.0039706934 -0.00298148)
(0.12660972 0.006239804 -0.0038955411)
(0.12448151 0.010267396 -0.0054416502)
(0.11935238 0.017332027 -0.0079579006)
(0.10054838 -0.0010036546 0.0002303501)
(0.101997 -0.0013685678 0.0004370293)
(0.10370043 -0.0014406143 0.00059422798)
(0.10531493 -0.0014533324 0.00070676306)
(0.1068405 -0.0014488943 0.00078754082)
(0.10832879 -0.0014305817 0.00084489751)
(0.10978086 -0.0014082521 0.00088314136)
(0.11117617 -0.0013946231 0.00090535185)
(0.11249769 -0.0014020623 0.00091376574)
(0.11372984 -0.0014433456 0.00090894426)
(0.11484951 -0.0015292281 0.00088880609)
(0.11582497 -0.0016557358 0.00084744612)
(0.11661452 -0.0017885769 0.00077410773)
(0.11723665 -0.001785688 0.00064446538)
(0.11779585 -0.0016875847 0.00044462715)
(0.11836512 -0.0015516362 0.0001738219)
(0.11896842 -0.0014034941 -0.00015987513)
(0.11961572 -0.0012489849 -0.00055429898)
(0.12030542 -0.0011000609 -0.0010118016)
(0.12103012 -0.00096082664 -0.0015346033)
(0.12178662 -0.0008254126 -0.0021273133)
(0.12257399 -0.00067097461 -0.0027991789)
(0.12338951 -0.00045765093 -0.0035666464)
(0.1242511 -0.00011421539 -0.0044568267)
(0.12509903 0.0004675106 -0.0055102186)
(0.12594882 0.0014555136 -0.0067815528)
(0.12686661 0.0031146898 -0.0083364022)
(0.1280181 0.0058508581 -0.01025915)
(0.12991531 0.010257864 -0.012671307)
(0.13409468 0.016769493 -0.015580807)
(0.098358717 -0.00099259462 0.0002233342)
(0.09798683 -0.0013456086 0.00042093823)
(0.097293003 -0.0013942164 0.00056787383)
(0.096332472 -0.0013782584 0.00066841045)
(0.095381404 -0.0013439936 0.0007353037)
(0.094525739 -0.0012933501 0.00077702797)
(0.093745642 -0.001233709 0.00079802213)
(0.093009712 -0.0011744816 0.00080145028)
(0.0922966 -0.0011227282 0.0007895376)
(0.091587338 -0.001083573 0.00076270764)
(0.090858312 -0.0010602892 0.00071876205)
(0.090082048 -0.0010517855 0.00065213132)
(0.089235623 -0.0010496002 0.00055318246)
(0.088323542 -0.0010235253 0.00040799201)
(0.087393393 -0.0009652751 0.00020482385)
(0.086505835 -0.00089169663 -5.6677014e-05)
(0.085696063 -0.00080827072 -0.00037332525)
(0.084969719 -0.0007184522 -0.00074056043)
(0.084319353 -0.00062524025 -0.0011567436)
(0.083737593 -0.00052987475 -0.0016339457)
(0.083224526 -0.00043111269 -0.0021966452)
(0.082792909 -0.00032452428 -0.0028758995)
(0.082478121 -0.00018944885 -0.0037114604)
(0.08232895 2.6981167e-05 -0.0047584089)
(0.08258949 0.00038916766 -0.0060898954)
(0.083484785 0.00099689861 -0.0078015471)
(0.085367614 0.0020022469 -0.01000583)
(0.088785716 0.0036312138 -0.012758914)
(0.094636974 0.0061716896 -0.0159847)
(0.10832968 0.0099039945 -0.019160657)
(0.098346932 0.0009915011 6.6323401e-05)
(0.097940896 0.0013431697 0.00012457814)
(0.097205193 0.0013891967 0.00016620558)
(0.096214131 0.0013689561 0.00019163137)
(0.095252049 0.0013280464 0.00020539996)
(0.094406374 0.0012668396 0.00021140853)
(0.093661899 0.0011898137 0.00021195198)
(0.092999972 0.0011010874 0.00020862766)
(0.09242396 0.00099755099 0.00020297109)
(0.091960932 0.00086307696 0.0001968467)
(0.091673796 0.00065227004 0.00019343238)
(0.091662296 0.00025738437 0.00019948945)
(0.092533834 -0.00043229085 0.00022333329)
(0.094184335 -0.00032550162 0.00034274852)
(0.096018255 6.5885243e-05 0.00060298894)
(0.09756116 0.00061194458 0.0010079439)
(0.098615763 0.0012883072 0.0015255717)
(0.099188205 0.0019720769 0.0021052761)
(0.099366798 0.002635759 0.0027174875)
(0.099236565 0.0032725321 0.0033508812)
(0.098841102 0.0038834866 0.004000696)
(0.098187651 0.0044751632 0.0046609516)
(0.097252417 0.0050593802 0.0053194999)
(0.095973052 0.0056550394 0.0059541177)
(0.094229372 0.0062930945 0.0065267059)
(0.091808653 0.0070275482 0.0069725886)
(0.088344828 0.0079607202 0.00718145)
(0.083214342 0.0093033398 0.0069657089)
(0.075444895 0.011439791 0.0060288392)
(0.054615588 0.015697366 0.0041738421)
(0.10053606 0.0010007284 6.8365583e-05)
(0.10194892 0.0013624736 0.00012927551)
(0.103608 0.0014291797 0.00017391008)
(0.10518822 0.0014325187 0.00020288333)
(0.1066961 0.0014120993 0.00022076784)
(0.10818271 0.0013667254 0.00023131701)
(0.10965053 0.001298552 0.00023660455)
(0.11108538 0.001207306 0.00023787401)
(0.11248076 0.0010836826 0.00023593388)
(0.11383266 0.00090484933 0.00023081387)
(0.11511991 0.00062506076 0.00022059738)
(0.11629225 0.00015914204 0.00019874571)
(0.11711513 -0.00055304979 0.00015350032)
(0.11773414 -0.0004667274 4.6117655e-05)
(0.11847734 -2.3466401e-05 -0.00011316074)
(0.11930274 0.00064821575 -0.0003022623)
(0.12017613 0.0015213045 -0.0004877414)
(0.12104843 0.0024753161 -0.00063566091)
(0.12185649 0.0034788917 -0.00073570421)
(0.122548 0.0045285379 -0.00078415793)
(0.12307385 0.0056330334 -0.00077945693)
(0.12337904 0.0068090682 -0.00072164953)
(0.12339635 0.0080816165 -0.00061713402)
(0.12303458 0.0094879946 -0.00047968724)
(0.12216026 0.011088601 -0.00033315988)
(0.12057066 0.012986929 -0.00021813905)
(0.11795468 0.0153693 -0.00020513499)
(0.11383823 0.018581927 -0.0004261019)
(0.10771836 0.023265905 -0.0011548554)
(0.092025589 0.030462962 -0.0028606683)
(0.10053573 -0.0010036998 6.8357291e-05)
(0.10194729 -0.0013691098 0.00012925535)
(0.10360355 -0.0014413983 0.00017386785)
(0.10517849 -0.0014539736 0.00020279618)
(0.10667685 -0.0014492073 0.00022058865)
(0.10814662 -0.0014305671 0.00023095113)
(0.10958506 -0.0014081004 0.00023586675)
(0.1109695 -0.0013948102 0.00023641713)
(0.11228096 -0.0014034757 0.00023315747)
(0.11350073 -0.0014471783 0.00022587438)
(0.11460073 -0.0015358251 0.00021306165)
(0.11554203 -0.0016606339 0.00019115812)
(0.11626736 -0.0017775852 0.00015357176)
(0.11679637 -0.0016919283 8.5441729e-05)
(0.11726289 -0.0014500964 -2.3159465e-05)
(0.11777835 -0.0010975795 -0.00017450433)
(0.11838308 -0.00064976922 -0.00036030461)
(0.11908725 -0.00011023194 -0.00058170923)
(0.11985591 0.00053347299 -0.00084243817)
(0.12062405 0.001293656 -0.0011419986)
(0.12137756 0.0021826832 -0.0014780664)
(0.12209035 0.0032225138 -0.0018522576)
(0.12272533 0.0044492972 -0.0022674806)
(0.12323187 0.0059190536 -0.0027268674)
(0.12354043 0.0077188256 -0.0032434319)
(0.12355858 0.0099902819 -0.0038397588)
(0.12317085 0.012972789 -0.0045556993)
(0.12224436 0.017079135 -0.0054614204)
(0.12084457 0.023028439 -0.0066985866)
(0.11592775 0.031742802 -0.0084632928)
(0.098346021 -0.00099263702 6.6299913e-05)
(0.097936979 -0.0013456534 0.00012451957)
(0.097195527 -0.0013937012 0.00016608332)
(0.096194553 -0.0013767451 0.0001913864)
(0.0952156 -0.0013413595 0.00020491379)
(0.094341154 -0.0012896071 0.00021044339)
(0.093547424 -0.0012289394 0.00021002846)
(0.092800725 -0.0011688761 0.00020477157)
(0.092077615 -0.0011166222 0.00019518297)
(0.09135603 -0.0010773674 0.00018094793)
(0.0906078 -0.0010540915 0.00016049068)
(0.08979914 -0.0010445081 0.00013043636)
(0.088899191 -0.0010372613 8.498318e-05)
(0.087909351 -0.00098947255 1.5461159e-05)
(0.08689266 -0.00088670592 -8.5917296e-05)
(0.08592438 -0.00073891977 -0.00021725136)
(0.085039636 -0.00056093678 -0.00037801361)
(0.084248541 -0.00034626104 -0.00056735053)
(0.083602919 -7.6760025e-05 -0.0007836576)
(0.083181817 0.00025604175 -0.0010363439)
(0.082986273 0.00065315365 -0.0013446796)
(0.083032719 0.0011256077 -0.0017317287)
(0.083341722 0.0017002911 -0.0022256259)
(0.083937792 0.0024238504 -0.0028671634)
(0.084862057 0.0033680428 -0.0037002397)
(0.086198459 0.0046461596 -0.0047724876)
(0.088123505 0.0064434883 -0.0061328468)
(0.091012662 0.0090705424 -0.0078159643)
(0.095890599 0.013052492 -0.0098075671)
(0.10721567 0.019192328 -0.011817706)
(0.098346932 0.00099150112 -6.6323243e-05)
(0.097940896 0.0013431698 -0.00012457809)
(0.097205193 0.0013891967 -0.0001662056)
(0.096214131 0.0013689561 -0.00019163143)
(0.095252049 0.0013280465 -0.00020539995)
(0.094406374 0.0012668396 -0.00021140854)
(0.093661899 0.0011898138 -0.00021195203)
(0.092999972 0.0011010874 -0.00020862774)
(0.09242396 0.00099755102 -0.00020297132)
(0.091960932 0.00086307697 -0.0001968472)
(0.091673795 0.00065227014 -0.00019343326)
(0.091662296 0.00025738446 -0.00019949056)
(0.092533834 -0.00043229084 -0.00022333455)
(0.094184335 -0.00032550153 -0.00034274962)
(0.096018256 6.5885412e-05 -0.00060298985)
(0.09756116 0.00061194497 -0.0010079446)
(0.098615763 0.0012883076 -0.0015255722)
(0.099188206 0.0019720772 -0.0021052763)
(0.099366798 0.0026357591 -0.0027174872)
(0.099236565 0.0032725326 -0.003350881)
(0.098841099 0.0038834875 -0.0040006959)
(0.098187648 0.0044751581 -0.0046609556)
(0.097252415 0.0050593776 -0.0053195057)
(0.09597305 0.0056550377 -0.0059541264)
(0.094229372 0.0062930918 -0.0065267158)
(0.091808652 0.0070275447 -0.0069726001)
(0.08834483 0.0079607154 -0.0071814621)
(0.083214346 0.0093033338 -0.0069657204)
(0.075444903 0.011439783 -0.0060288474)
(0.054615607 0.015697358 -0.0041738439)
(0.10053606 0.0010007284 -6.8365402e-05)
(0.10194892 0.0013624736 -0.00012927541)
(0.103608 0.0014291798 -0.00017391001)
(0.10518822 0.0014325187 -0.0002028833)
(0.1066961 0.0014120994 -0.00022076788)
(0.10818271 0.0013667254 -0.00023131709)
(0.10965053 0.001298552 -0.00023660464)
(0.11108538 0.001207306 -0.00023787406)
(0.11248076 0.0010836827 -0.00023593405)
(0.11383266 0.00090484935 -0.0002308142)
(0.11511991 0.00062506081 -0.00022059777)
(0.11629225 0.00015914215 -0.00019874615)
(0.11711513 -0.00055304965 -0.0001535007)
(0.11773414 -0.00046672723 -4.6117871e-05)
(0.11847734 -2.346608e-05 0.00011316046)
(0.11930274 0.00064821621 0.00030226197)
(0.12017612 0.001521305 0.00048774097)
(0.12104843 0.0024753166 0.00063566034)
(0.12185649 0.003478892 0.00073570342)
(0.122548 0.0045285384 0.0007841571)
(0.12307385 0.005633034 0.00077945623)
(0.12337904 0.006809062 0.00072165084)
(0.12339635 0.0080816124 0.00061713508)
(0.12303458 0.0094879917 0.00047968904)
(0.12216026 0.011088598 0.0003331626)
(0.12057066 0.012986926 0.00021814289)
(0.11795468 0.015369294 0.00020514047)
(0.11383824 0.018581921 0.00042610946)
(0.10771838 0.023265897 0.0011548668)
(0.092025611 0.030462953 0.0028606844)
(0.10053573 -0.0010036998 -6.8357123e-05)
(0.10194729 -0.0013691098 -0.00012925531)
(0.10360355 -0.0014413983 -0.00017386781)
(0.10517849 -0.0014539735 -0.00020279619)
(0.10667685 -0.0014492073 -0.00022058865)
(0.10814662 -0.0014305671 -0.00023095117)
(0.10958506 -0.0014081004 -0.00023586681)
(0.1109695 -0.0013948103 -0.00023641718)
(0.11228096 -0.0014034757 -0.00023315757)
(0.11350073 -0.0014471783 -0.00022587461)
(0.11460073 -0.0015358251 -0.00021306193)
(0.11554203 -0.0016606338 -0.00019115838)
(0.11626736 -0.0017775851 -0.00015357202)
(0.11679637 -0.0016919282 -8.5441876e-05)
(0.11726289 -0.0014500962 2.3159119e-05)
(0.11777835 -0.0010975793 0.00017450378)
(0.11838308 -0.00064976903 0.00036030374)
(0.11908725 -0.00011023175 0.00058170819)
(0.11985591 0.00053347307 0.00084243674)
(0.12062406 0.0012936559 0.0011419967)
(0.12137756 0.0021826829 0.0014780649)
(0.12209035 0.0032225104 0.0018522572)
(0.12272533 0.0044492941 0.0022674814)
(0.12323187 0.0059190506 0.0027268702)
(0.12354043 0.0077188223 0.0032434351)
(0.12355858 0.0099902779 0.0038397645)
(0.12317085 0.012972785 0.0045557069)
(0.12224436 0.017079129 0.0054614322)
(0.12084458 0.02302843 0.0066986027)
(0.11592776 0.031742791 0.008463314)
(0.098346021 -0.00099263698 -6.6299684e-05)
(0.097936979 -0.0013456534 -0.00012451952)
(0.097195527 -0.0013937012 -0.00016608325)
(0.096194553 -0.001376745 -0.00019138638)
(0.0952156 -0.0013413596 -0.00020491383)
(0.094341154 -0.0012896071 -0.00021044351)
(0.093547424 -0.0012289394 -0.00021002849)
(0.092800725 -0.0011688761 -0.00020477176)
(0.092077615 -0.0011166222 -0.00019518316)
(0.09135603 -0.0010773675 -0.00018094829)
(0.0906078 -0.0010540915 -0.00016049108)
(0.089799139 -0.001044508 -0.00013043699)
(0.088899191 -0.0010372612 -8.4983942e-05)
(0.08790935 -0.00098947246 -1.5462118e-05)
(0.086892659 -0.00088670574 8.5916123e-05)
(0.08592438 -0.00073891963 0.00021724992)
(0.085039635 -0.00056093663 0.00037801175)
(0.084248541 -0.0003462611 0.00056734823)
(0.083602919 -7.6760149e-05 0.00078365454)
(0.083181817 0.00025604152 0.0010363401)
(0.082986273 0.00065315347 0.0013446753)
(0.083032719 0.0011256068 0.0017317243)