/*--------------------------------*- C++ -*----------------------------------*\
| =========                 |                                                 |
| \\      /  F ield         | OpenFOAM: The Open Source CFD Toolbox           |
|  \\    /   O peration     | Version:  2412                                  |
|   \\  /    A nd           | Website:  www.openfoam.com                      |
|    \\/     M anipulation  |                                                 |
\*---------------------------------------------------------------------------*/
FoamFile
{
    version     2.0;
    format      ascii;
    arch        "LSB;label=32;scalar=64";
    class       surfaceScalarField;
    location    "50/topAir";
    object      phi;
}
// * * * * * * * * * * * * * * * * * * * * * * * * * * * * * * * * * * * * * //

dimensions      [1 0 -1 0 0 0 0];

oriented        oriented;

internalField   nonuniform List<scalar> 
3140
(
9.0696782e-06
1.1677138e-07
8.251977e-08
8.841951e-06
1.2352166e-07
1.0420548e-07
8.6170307e-06
1.1485653e-07
1.100638e-07
8.3930344e-06
1.1090253e-07
1.1309384e-07
8.1715197e-06
1.0733346e-07
1.1418123e-07
7.9563534e-06
1.0211795e-07
1.1304843e-07
7.7501037e-06
9.5982989e-08
1.1026676e-07
7.5542147e-06
8.9373627e-08
1.0651555e-07
7.3699587e-06
8.2026146e-08
1.0223006e-07
7.1991547e-06
7.3126769e-08
9.7677501e-08
7.0451959e-06
6.0860683e-08
9.3098444e-08
6.9150373e-06
4.1362485e-08
8.8796623e-08
6.817608e-06
1.2309348e-08
8.5122822e-08
6.72959e-06
4.0974587e-09
8.3980408e-08
6.6463486e-06
-4.1079187e-09
8.7459004e-08
6.5642462e-06
-1.2450803e-08
9.4705869e-08
6.4803725e-06
-2.0632511e-08
1.0469457e-07
6.3938631e-06
-2.9512822e-08
1.1623919e-07
6.3052568e-06
-3.9414687e-08
1.2825941e-07
6.2158153e-06
-5.0173527e-08
1.3986818e-07
6.1269503e-06
-6.1245717e-08
1.5037214e-07
6.0397631e-06
-7.1726248e-08
1.5917758e-07
5.9545258e-06
-8.0203489e-08
1.6570253e-07
5.8701844e-06
-8.4637222e-08
1.6923399e-07
5.7838183e-06
-8.2208469e-08
1.6882077e-07
5.6900054e-06
-6.90773e-08
1.6312543e-07
5.5810835e-06
-4.1186198e-08
1.5033146e-07
5.4459554e-06
7.3022416e-09
1.2803515e-07
5.2564244e-06
9.5413828e-08
9.431215e-08
2.7487056e-07
4.6709035e-08
9.3012463e-06
-6.7964635e-11
8.4553916e-08
9.3178679e-06
-1.4709492e-10
1.0704712e-07
9.3191992e-06
-2.7478079e-10
1.1380001e-07
9.3124094e-06
-4.9277739e-10
1.1818515e-07
9.2998111e-06
-8.6639044e-10
1.2079817e-07
9.2821512e-06
-1.5053786e-09
1.2128315e-07
9.2605149e-06
-2.5917208e-09
1.2021107e-07
9.2360924e-06
-4.4213949e-09
1.182175e-07
9.209916e-06
-7.4640984e-09
1.1566661e-07
9.1827449e-06
-1.2432134e-08
1.1273008e-07
9.154423e-06
-2.0290873e-08
1.0947347e-07
9.1217595e-06
-3.1860588e-08
1.058866e-07
9.0778589e-06
-4.566246e-08
1.0187261e-07
9.0413264e-06
-5.6218064e-08
9.6849248e-08
9.0074181e-06
-6.0983261e-08
9.078741e-08
8.9757249e-06
-6.4991288e-08
8.4240749e-08
8.9468036e-06
-6.8905378e-08
7.7205057e-08
8.9203735e-06
-7.3003248e-08
6.9935945e-08
8.8958824e-06
-7.7572077e-08
6.2668482e-08
8.8728258e-06
-8.2563478e-08
5.547143e-08
8.8508772e-06
-8.7530668e-08
4.8263144e-08
8.8300948e-06
-9.1616047e-08
4.0706432e-08
8.8108313e-06
-9.3418288e-08
3.2516752e-08
8.7938993e-06
-9.0841187e-08
2.3178581e-08
8.7810295e-06
-8.133271e-08
1.2040446e-08
8.7748037e-06
-6.1179617e-08
-1.6219451e-09
8.7782981e-06
-2.5516585e-08
-1.9110522e-08
8.7869402e-06
3.8689157e-08
-3.997074e-08
8.8010082e-06
1.4608363e-07
-6.4673313e-08
2.9855388e-07
-8.720095e-08
9.3011922e-06
-1.168613e-07
8.4553546e-08
9.3177113e-06
-1.2371262e-07
1.0704642e-07
9.3188436e-06
-1.1520585e-07
1.1379872e-07
9.3116878e-06
-1.1151906e-07
1.181821e-07
9.2984336e-06
-1.0840286e-07
1.2079065e-07
9.2796186e-06
-1.0395569e-07
1.2126533e-07
9.2559791e-06
-9.9123274e-08
1.2017098e-07
9.2281459e-06
-9.4719966e-08
1.1813179e-07
9.1963048e-06
-9.1115574e-08
1.1549249e-07
9.1600986e-06
-8.8621961e-08
1.1239612e-07
9.1185128e-06
-8.758163e-08
1.088765e-07
9.0699077e-06
-8.814735e-08
1.0489189e-07
9.0136981e-06
-8.9796829e-08
1.0034399e-07
8.953386e-06
-9.0923888e-08
9.5017958e-08
8.893439e-06
-8.9832721e-08
8.8796574e-08
8.8347784e-06
-8.8065428e-08
8.1735042e-08
8.7784023e-06
-8.6392565e-08
7.3863868e-08
8.7251178e-06
-8.4956126e-08
6.5238104e-08
8.6755374e-06
-8.3837901e-08
5.5847499e-08
8.6301575e-06
-8.2805096e-08
4.5623247e-08
8.5897825e-06
-8.1349658e-08
3.4196318e-08
8.5560212e-06
-7.9278831e-08
2.1427046e-08
8.5325808e-06
-7.6653593e-08
6.679573e-09
8.5245585e-06
-7.2859832e-08
-9.9545056e-09
8.538487e-06
-6.5919158e-08
-2.9336511e-08
8.5817638e-06
-5.2861592e-08
-5.1588372e-08
8.6611571e-06
-2.8640506e-08
-7.6261866e-08
8.7870943e-06
1.4670217e-08
-1.0190834e-07
8.9798957e-06
8.0599885e-08
-1.2730425e-07
1.6410616e-07
-1.5085871e-07
9.0695639e-06
8.2518798e-08
8.8416479e-06
1.0420345e-07
8.616382e-06
1.1005996e-07
8.3917775e-06
1.1308548e-07
8.1692124e-06
1.1416218e-07
7.9522512e-06
1.1300551e-07
7.7429555e-06
1.1017247e-07
7.5419212e-06
1.0631428e-07
7.3489937e-06
1.0181194e-07
7.163543e-06
9.6828666e-08
6.9845551e-06
9.1406328e-08
6.8109083e-06
8.5499478e-08
6.6421281e-06
7.8983363e-08
6.4795243e-06
7.1679922e-08
6.3262261e-06
6.3465452e-08
6.1838168e-06
5.4343966e-08
6.0530129e-06
4.4411261e-08
5.9343222e-06
3.3734666e-08
5.8287095e-06
2.1774852e-08
5.7375186e-06
8.3860139e-09
5.6624858e-06
-6.3166753e-09
5.6056277e-06
-2.2420395e-08
5.5699185e-06
-4.0943982e-08
5.5588855e-06
-6.1826218e-08
5.5782594e-06
-8.5292301e-08
5.6368576e-06
-1.1145874e-07
5.7483939e-06
-1.4017555e-07
5.9329936e-06
-1.6992775e-07
6.2096545e-06
-1.9605843e-07
-2.1704865e-07
9.1963841e-06
1.1873067e-07
3.6374272e-08
9.1097451e-06
1.2555231e-07
6.5292199e-08
9.0236009e-06
1.1663984e-07
7.9568154e-08
8.9366901e-06
1.1294742e-07
8.7057209e-08
8.8494324e-06
1.0979214e-07
9.1646831e-08
8.7635327e-06
1.0497217e-07
9.3976093e-08
8.6801623e-06
9.926166e-08
9.4375627e-08
8.6001494e-06
9.3137274e-08
9.3391312e-08
8.5245115e-06
8.6345011e-08
9.1523136e-08
8.4549323e-06
7.8084934e-08
8.9172027e-08
8.3945657e-06
6.6675413e-08
8.6789952e-08
8.34956e-06
4.865524e-08
8.5147614e-08
8.3281779e-06
2.0662931e-08
8.5844352e-08
8.3083265e-06
1.1150523e-08
9.2733724e-08
8.2864082e-06
8.3399696e-10
1.0864096e-07
8.2620592e-06
-1.3502545e-08
1.3269352e-07
8.2322216e-06
-2.7408649e-08
1.6210931e-07
8.196241e-06
-4.1806199e-08
1.9422058e-07
8.1548768e-06
-5.6861314e-08
2.2669924e-07
8.1095254e-06
-7.2299832e-08
2.5774765e-07
8.0616408e-06
-8.7596309e-08
2.8608972e-07
8.0124251e-06
-1.021117e-07
3.1074502e-07
7.9622944e-06
-1.146228e-07
3.3069517e-07
7.9105334e-06
-1.2351099e-07
3.4474091e-07
7.8547046e-06
-1.2647562e-07
3.5135338e-07
7.7897976e-06
-1.2022849e-07
3.4848086e-07
7.7063958e-06
-9.9440133e-08
3.333843e-07
7.5880935e-06
-5.6217982e-08
3.0275773e-07
7.4105989e-06
2.2759983e-08
2.4923966e-07
1.963026e-07
1.6579595e-07
9.4347006e-06
-6.9108342e-11
3.7613923e-08
9.5994338e-06
-1.4940815e-10
6.8015617e-08
9.7465319e-06
-2.7773464e-10
8.3619521e-08
9.8856682e-06
-4.9480281e-10
9.2490994e-08
1.0018544e-05
-8.6348919e-10
9.8577887e-08
1.0143793e-05
-1.4887201e-09
1.0249543e-07
1.0261257e-05
-2.5435157e-09
1.0455191e-07
1.0371676e-05
-4.3078e-09
1.0524395e-07
1.0475931e-05
-7.2229963e-09
1.0497968e-07
1.057472e-05
-1.195212e-08
1.0397767e-07
1.0667986e-05
-1.9380648e-08
1.0226337e-07
1.0753271e-05
-3.0269892e-08
9.9527482e-08
1.0824542e-05
-4.3503446e-08
9.4767473e-08
1.0900032e-05
-5.4192983e-08
8.6704058e-08
1.0976099e-05
-6.0432205e-08
7.5988741e-08
1.1050713e-05
-6.7248294e-08
6.3377719e-08
1.1125175e-05
-7.4635531e-08
4.9978109e-08
1.1199287e-05
-8.2707214e-08
3.6735755e-08
1.1272592e-05
-9.1725426e-08
2.4242573e-08
1.1344692e-05
-1.0168383e-07
1.2774036e-08
1.1415195e-05
-1.123701e-07
2.5560802e-09
1.1484636e-05
-1.2281302e-07
-8.0076076e-09
1.1553229e-05
-1.320669e-07
-1.8602428e-08
1.1621706e-05
-1.3846475e-07
-3.0312986e-08
1.1690838e-05
-1.3890785e-07
-4.4623713e-08
1.1761123e-05
-1.2877805e-07
-6.3320318e-08
1.1833462e-05
-1.0191275e-07
-8.8936223e-08
1.1912473e-05
-5.0435826e-08
-1.2472036e-07
1.2002992e-05
3.8246099e-08
-1.7063123e-07
1.7768128e-07
-2.2129646e-07
9.4346464e-06
-1.1882206e-07
3.7612482e-08
9.5992774e-06
-1.2574607e-07
6.8012145e-08
9.7461789e-06
-1.1699296e-07
8.3612393e-08
9.8849571e-06
-1.1356742e-07
9.2476457e-08
1.0017197e-05
-1.1086064e-07
9.8548177e-08
1.0141334e-05
-1.0679622e-07
1.0243511e-07
1.0256889e-05
-1.0235845e-07
1.0443101e-07
1.0364085e-05
-9.8377856e-08
1.050064e-07
1.0463036e-05
-9.5206764e-08
1.0452545e-07
1.0553456e-05
-9.3119361e-08
1.0314339e-07
1.0634544e-05
-9.2424106e-08
1.0083148e-07
1.0705058e-05
-9.3266043e-08
9.7373898e-08
1.0764735e-05
-9.5185561e-08
9.2349223e-08
1.0817152e-05
-9.6728593e-08
8.5136931e-08
1.0866695e-05
-9.6500404e-08
7.5321513e-08
1.0914137e-05
-9.5951552e-08
6.2996991e-08
1.0960564e-05
-9.5724481e-08
4.8525499e-08
1.1006636e-05
-9.5799063e-08
3.2259058e-08
1.1053029e-05
-9.679389e-08
1.452337e-08
1.1100035e-05
-9.8458005e-08
-4.6073636e-09
1.1149093e-05
-1.0073592e-07
-2.6494549e-08
1.1201008e-05
-1.0343187e-07
-4.9867018e-08
1.1256643e-05
-1.0544436e-07
-7.5576321e-08
1.1317972e-05
-1.0549512e-07
-1.042499e-07
1.1389002e-05
-1.0225828e-07
-1.3701274e-07
1.1477141e-05
-9.3379691e-08
-1.7512154e-07
1.1593631e-05
-7.4721923e-08
-2.1993739e-07
1.175364e-05
-3.9692418e-08
-2.7265527e-07
1.1978135e-05
1.8355065e-08
-3.3190103e-07
9.5943587e-08
-3.8851763e-07
9.1962698e-06
3.6370983e-08
9.1094429e-06
6.5284195e-08
9.0229583e-06
7.9551643e-08
8.9354526e-06
8.7023736e-08
8.8471752e-06
9.1578897e-08
8.759546e-06
9.3838474e-08
8.6732617e-06
9.4098308e-08
8.5883616e-06
9.2836517e-08
8.504545e-06
9.0421796e-08
8.421254e-06
8.7000271e-08
8.3377104e-06
8.2525805e-08
8.2531606e-06
7.6783237e-08
8.1675608e-06
6.9397601e-08
8.0826221e-06
5.9890021e-08
8.0016857e-06
4.7901494e-08
7.9266539e-06
3.3424235e-08
7.85851e-06
1.68307e-08
7.7968747e-06
-4.2910713e-10
7.7445486e-06
-2.2692982e-08
7.6998378e-06
-4.5361074e-08
7.6626984e-06
-6.9913092e-08
7.6337942e-06
-9.6947912e-08
7.614695e-06
-1.2728894e-07
7.6090041e-06
-1.6163016e-07
7.6223418e-06
-2.0088789e-07
7.6636202e-06
-2.4611622e-07
7.7465922e-06
-2.9786876e-07
7.8925265e-06
-3.5555344e-07
8.133486e-06
-4.1866138e-07
-4.8047829e-07
9.1672826e-06
1.1854951e-07
1.9511406e-08
9.070684e-06
1.2513294e-07
3.6757902e-08
8.9867554e-06
1.1569205e-07
4.7804716e-08
8.9078702e-06
1.1161104e-07
5.433145e-08
8.83291e-06
1.0820552e-07
5.8401524e-08
8.7628693e-06
1.0316092e-07
6.0855924e-08
8.6980317e-06
9.723455e-08
6.1978843e-08
8.6384699e-06
9.089489e-08
6.2058383e-08
8.5847566e-06
8.3801947e-08
6.1434692e-08
8.5384992e-06
7.4956898e-08
6.047281e-08
8.5033717e-06
6.2230611e-08
5.9687313e-08
8.4870453e-06
4.1390743e-08
6.0083876e-08
8.4989396e-06
1.0251156e-08
6.3701378e-08
8.5115737e-06
3.3378855e-09
7.6816671e-08
8.5208289e-06
-4.3216689e-09
1.038082e-07
8.5238065e-06
-1.2789993e-08
1.4264624e-07
8.5178536e-06
-2.1212822e-08
1.8944851e-07
8.5028397e-06
-3.0794704e-08
2.4022936e-07
8.4802811e-06
-4.2114199e-08
2.915926e-07
8.4520964e-06
-5.515429e-08
3.4132143e-07
8.4197731e-06
-6.9462105e-08
3.8811849e-07
8.3838384e-06
-8.4018763e-08
4.3094545e-07
8.3436151e-06
-9.7515743e-08
4.6868005e-07
8.2965767e-06
-1.0782538e-07
4.9984622e-07
8.237608e-06
-1.1175338e-07
5.2231e-07
8.1582314e-06
-1.0469291e-07
5.3277658e-07
8.0461474e-06
-8.0130175e-08
5.2581576e-07
7.8870214e-06
-2.9740118e-08
4.9183277e-07
7.6527145e-06
6.8643156e-08
4.1510301e-07
2.8168347e-07
2.8350437e-07
9.4050635e-06
-7.1642639e-11
2.013244e-08
9.5602595e-06
-1.5536985e-10
3.810786e-08
9.7099366e-06
-2.8989983e-10
4.9924291e-08
9.8572384e-06
-5.1884465e-10
5.7319175e-08
1.000255e-05
-9.1034893e-10
6.2382165e-08
1.0143849e-05
-1.5791608e-09
6.593646e-08
1.0280118e-05
-2.7165588e-09
6.8234274e-08
1.0411383e-05
-4.635308e-09
6.9508672e-08
1.0538007e-05
-7.8332021e-09
6.9990869e-08
1.0660198e-05
-1.3059852e-08
6.9803381e-08
1.077714e-05
-2.129518e-08
6.884777e-08
1.0884764e-05
-3.3222254e-08
6.6516344e-08
1.0975905e-05
-4.7323363e-08
6.120109e-08
1.1072681e-05
-5.7185492e-08
5.0452463e-08
1.1169721e-05
-6.0226784e-08
3.4856623e-08
1.126725e-05
-6.2795688e-08
1.5860067e-08
1.136608e-05
-6.6009e-08
-4.0478099e-09
1.1465082e-05
-7.0475301e-08
-2.257411e-08
1.1563052e-05
-7.6749735e-08
-3.9076092e-08
1.1658795e-05
-8.4977851e-08
-5.312731e-08
1.1751354e-05
-9.4708627e-08
-6.4733133e-08
1.1839185e-05
-1.0536331e-07
-7.4467751e-08
1.1921567e-05
-1.1527628e-07
-8.3195133e-08
1.1997816e-05
-1.2198672e-07
-9.2366866e-08
1.2067202e-05
-1.2166514e-07
-1.0406256e-07
1.2128952e-05
-1.0846225e-07
-1.2126122e-07
1.2181739e-05
-7.3744714e-08
-1.4806665e-07
1.2226036e-05
-9.0440914e-09
-1.8966759e-07
1.2261307e-05
1.1738725e-07
-2.545933e-07
3.0533821e-07
-3.4729932e-07
9.4050071e-06
-1.186444e-07
2.0130567e-08
9.560095e-06
-1.2533465e-07
3.8103434e-08
9.7095634e-06
-1.1606101e-07
4.9915114e-08
9.8564824e-06
-1.1226197e-07
5.7300557e-08
1.0001109e-05
-1.0933382e-07
6.234463e-08
1.0141204e-05
-1.0510034e-07
6.5861363e-08
1.0275387e-05
-1.0055408e-07
6.8085753e-08
1.0403105e-05
-9.656696e-08
6.9219885e-08
1.052386e-05
-9.3506413e-08
6.9443624e-08
1.0636795e-05
-9.1661552e-08
6.8810235e-08
1.0740487e-05
-9.1342924e-08
6.7187822e-08
1.0833074e-05
-9.2632973e-08
6.4197577e-08
1.0913788e-05
-9.4871488e-08
5.9182717e-08
1.0986826e-05
-9.6069855e-08
5.0983106e-08
1.1057481e-05
-9.444113e-08
3.8881304e-08
1.1126783e-05
-9.1982183e-08
2.2882209e-08
1.1195718e-05
-8.9711058e-08
3.2922332e-09
1.1264509e-05
-8.8075108e-08
-1.8931536e-08
1.1332917e-05
-8.6720716e-08
-4.3912834e-08
1.1400889e-05
-8.6259922e-08
-7.1296101e-08
1.1467665e-05
-8.687666e-08
-1.0110109e-07
1.1533782e-05
-8.7972925e-08
-1.3337235e-07
1.160026e-05
-8.8699234e-08
-1.6862952e-07
1.1669579e-05
-8.757958e-08
-2.0797319e-07
1.1746024e-05
-8.2437834e-08
-2.5268122e-07
1.1836999e-05
-6.952765e-08
-3.0502612e-07
1.1953262e-05
-4.2188549e-08
-3.6775121e-07
1.2104931e-05
1.0033227e-08
-4.4339391e-07
1.2325574e-05
9.728818e-08
-5.3243407e-07
2.0972768e-07
-6.2965808e-07
9.1671634e-06
1.9507199e-08
9.070365e-06
3.6747899e-08
8.9860718e-06
4.7783895e-08
8.9065442e-06
5.4289289e-08
8.8304726e-06
5.8316729e-08
8.7585248e-06
6.0685903e-08
8.69043e-06
6.1639031e-08
8.6253181e-06
6.1381472e-08
8.5621436e-06
6.0089854e-08
8.4996794e-06
5.7802918e-08
8.4364892e-06
5.4372995e-08
8.3711943e-06
4.9445212e-08
8.3032682e-06
4.2452225e-08
8.2344263e-06
3.2662117e-08
8.1683813e-06
1.9505293e-08
8.1072743e-06
2.5490906e-09
8.0515795e-06
-1.7185559e-08
8.0026359e-06
-3.9560636e-08
7.9578149e-06
-6.4592628e-08
7.9181016e-06
-9.1907646e-08
7.8834725e-06
-1.2216065e-07
7.8546352e-06
-1.5608333e-07
7.8331307e-06
-1.9448349e-07
7.8221773e-06
-2.3825604e-07
7.828419e-06
-2.8956695e-07
7.8639421e-06
-3.5116615e-07
7.9503493e-06
-4.2646331e-07
8.1236804e-06
-5.1884922e-07
8.4280948e-06
-6.2578404e-07
-7.314791e-07
9.1614386e-06
1.1869707e-07
8.3449879e-09
9.056484e-06
1.2550625e-07
1.620631e-08
8.9661501e-06
1.1616761e-07
2.1970983e-08
8.8826484e-06
1.1210533e-07
2.5727833e-08
8.804248e-06
1.0868346e-07
2.8118569e-08
8.7319443e-06
1.0356709e-07
2.959262e-08
8.6660818e-06
9.7489082e-08
3.0352427e-08
8.6067059e-06
9.0886307e-08
3.0548143e-08
8.5544636e-06
8.3318439e-08
3.0358817e-08
8.5114049e-06
7.3517723e-08
3.0014208e-08
8.4824943e-06
5.8699965e-08
2.9898416e-08
8.4780713e-06
3.3660219e-08
3.0847463e-08
8.5113761e-06
-3.7578318e-09
3.4157219e-08
8.5425432e-06
-2.9935786e-09
4.8700639e-08
8.5651361e-06
4.4183757e-09
7.6903026e-08
8.575787e-06
1.6028822e-08
1.1611487e-07
8.5714952e-06
3.1156371e-08
1.6276773e-07
8.5534171e-06
4.6329471e-08
2.1219074e-07
8.5236772e-06
6.0179946e-08
2.6138788e-07
8.4840502e-06
7.186253e-08
3.0933748e-07
8.4354154e-06
8.1550057e-08
3.5546509e-07
8.3777274e-06
8.9863893e-08
3.9903656e-07
8.3096972e-06
9.7963569e-08
4.3901398e-07
8.2282402e-06
1.0768197e-07
4.7388502e-07
8.1276086e-06
1.2188331e-07
5.013156e-07
7.9980573e-06
1.4504075e-07
5.1753562e-07
7.8234842e-06
1.8442561e-07
5.1620135e-07
7.5762543e-06
2.5306992e-07
4.8621994e-07
7.2045265e-06
3.782679e-07
4.087789e-07
6.3487942e-07
2.7087015e-07
9.399247e-06
-7.436306e-11
8.6177141e-09
9.5461742e-06
-1.6184685e-10
1.6848733e-08
9.6895366e-06
-3.0354483e-10
2.3033038e-08
9.8322265e-06
-5.4666993e-10
2.7281271e-08
9.974021e-06
-9.6609202e-10
3.0237188e-08
1.0112882e-05
-1.6894743e-09
3.2332509e-08
1.0247792e-05
-2.9322638e-09
3.3744706e-08
1.0378654e-05
-5.0513089e-09
3.4584318e-08
1.0505635e-05
-8.620478e-09
3.4948837e-08
1.0628596e-05
-1.4504486e-08
3.486458e-08
1.0745784e-05
-2.3789854e-08
3.4150378e-08
1.0850784e-05
-3.689993e-08
3.2075869e-08
1.0933246e-05
-5.2115138e-08
2.7096963e-08
1.1023765e-05
-5.8546055e-08
1.5487019e-08
1.1113818e-05
-5.2111989e-08
1.3361387e-09
1.1205762e-05
-4.1022516e-08
-1.902709e-08
1.1298848e-05
-2.8019352e-08
-3.7950351e-08
1.1391018e-05
-1.4410024e-08
-5.3992699e-08
1.1479673e-05
-7.8332355e-10
-6.6751448e-08
1.1563454e-05
1.1003685e-08
-7.6027464e-08
1.1640258e-05
2.2124719e-08
-8.2084129e-08
1.1707956e-05
3.3141091e-08
-8.5408377e-08
1.1763774e-05
4.5764034e-08
-8.6773375e-08
1.1803774e-05
6.2701224e-08
-8.7338762e-08
1.1821595e-05
8.8966749e-08
-8.891327e-08
1.1807734e-05
1.3195478e-07
-9.4253821e-08
1.1748538e-05
2.0339629e-07
-1.0777321e-07
1.1627805e-05
3.2114439e-07
-1.369326e-07
1.1434739e-05
5.1293804e-07
-1.9611011e-07
8.0930389e-07
-3.10912e-07
9.3991878e-06
-1.1879565e-07
8.6164481e-09
9.5460001e-06
-1.2571649e-07
1.6845736e-08
9.689139e-06
-1.1655408e-07
2.3026802e-08
9.8314157e-06
-1.1279145e-07
2.726856e-08
9.9724644e-06
-1.0988168e-07
3.0211513e-08
1.011e-05
-1.056447e-07
3.2281043e-08
1.0242592e-05
-1.010817e-07
3.3642634e-08
1.0369475e-05
-9.7099473e-08
3.4385312e-08
1.0489832e-05
-9.4105717e-08
3.4571659e-08
1.0602379e-05
-9.2427933e-08
3.4187213e-08
1.0705088e-05
-9.2381451e-08
3.3070534e-08
1.079549e-05
-9.3927152e-08
3.0822715e-08
1.0871869e-05
-9.604932e-08
2.673766e-08
1.0940469e-05
-9.5536612e-08
1.9374157e-08
1.1008302e-05
-8.9695848e-08
8.6322923e-09
1.1076954e-05
-8.1524128e-08
-5.2687072e-09
1.1148392e-05
-7.1935698e-08
-2.4228391e-08
1.12225e-05
-6.1766607e-08
-4.5683435e-08
1.1299383e-05
-5.1533924e-08
-7.0043854e-08
1.1377826e-05
-4.2032339e-08
-9.6701681e-08
1.1457297e-05
-3.304894e-08
-1.2539699e-07
1.1537117e-05
-2.3878562e-08
-1.5617038e-07
1.1616359e-05
-1.2883682e-08
-1.8921973e-07
1.1693482e-05
2.5262535e-09
-2.2491608e-07
1.1765305e-05
2.8939968e-08
-2.6447001e-07
1.1832683e-05
6.9122374e-08
-3.0956161e-07
1.1898714e-05
1.3254305e-07
-3.6291391e-07
1.197331e-05
2.3189162e-07
-4.2871564e-07
1.2085306e-05
3.8212941e-07
-5.1359017e-07
5.8855132e-07
-6.2465918e-07
9.1613134e-06
8.3421746e-09
9.0561452e-06
1.6199556e-08
8.9654182e-06
2.1956847e-08
8.8812169e-06
2.5699088e-08
8.8015914e-06
2.806058e-08
8.7271567e-06
2.9475849e-08
8.6575965e-06
3.0117458e-08
8.5918033e-06
3.0075254e-08
8.5283822e-06
2.940519e-08
8.465677e-06
2.8080199e-08
8.4017359e-06
2.5932581e-08
8.3346487e-06
2.2605266e-08
8.2635223e-06
1.7529397e-08
8.1906011e-06
1.0046641e-08
8.1197755e-06
6.3505792e-10
8.0549913e-06
-1.4190808e-08
7.9966419e-06
-3.0771906e-08
7.944491e-06
-4.9176316e-08
7.8976338e-06
-6.9269325e-08
7.8560117e-06
-9.2317783e-08
7.8199934e-06
-1.1919109e-07
7.7907903e-06
-1.507586e-07
7.7716643e-06
-1.8824078e-07
7.7693765e-06
-2.3344131e-07
7.7966634e-06
-2.8791266e-07
7.8683303e-06
-3.5370845e-07
8.0076566e-06
-4.3324239e-07
8.2491434e-06
-5.284374e-07
8.6432475e-06
-6.3774678e-07
-7.4347308e-07
9.1585947e-06
1.1871956e-07
3.689147e-14
9.0492304e-06
1.2557056e-07
1.3776876e-14
8.955003e-06
1.161984e-07
1.3574776e-14
8.8686784e-06
1.1205248e-07
1.1509298e-14
8.7882646e-06
1.0853242e-07
9.835819e-15
8.7145574e-06
1.032999e-07
9.6453887e-15
8.6478373e-06
9.7072593e-08
1.1208702e-14
8.588128e-06
9.0257615e-08
1.3599017e-14
8.5361666e-06
8.2320578e-08
2.001768e-15
8.4944381e-06
7.1743048e-08
-2.4445087e-15
8.4692262e-06
5.5111068e-08
-2.0163669e-14
8.4735227e-06
2.6551875e-08
-3.3773081e-14
8.5285116e-06
-2.0828567e-08
-2.4035799e-14
8.5735377e-06
3.7332906e-09
-3.774352e-14
8.6068553e-06
4.3692888e-08
-8.430972e-15
8.6243271e-06
9.8792617e-08
-2.3309399e-15
8.6210031e-06
1.6627728e-07
6.7364274e-14
8.602353e-06
2.3105652e-07
1.0301585e-13
8.5701662e-06
2.9381413e-07
1.7909576e-13
8.5253064e-06
3.5445439e-07
1.9422526e-13
8.4679291e-06
4.1311145e-07
2.9583777e-13
8.3969818e-06
4.7025951e-07
3.0446309e-13
8.3095933e-06
5.2667984e-07
3.7372794e-13
8.2002213e-06
5.8353249e-07
4.0089005e-13
8.0591344e-06
6.4267233e-07
6.0525031e-13
7.8696755e-06
7.0725668e-07
6.7174093e-13
7.6031537e-06
7.8297543e-07
7.1970459e-13
7.2091639e-06
8.804511e-07
7.3113495e-13
6.5999925e-06
1.01818e-06
6.4140583e-13
1.2420312e-06
4.4676917e-13
9.3963743e-06
-7.6285465e-11
3.3483443e-14
9.5389599e-06
-1.6635066e-10
9.5747594e-15
9.6785043e-06
-3.1295336e-10
1.0357273e-14
9.8184039e-06
-5.6582048e-10
5.9648303e-15
9.958178e-06
-1.0044787e-09
-4.0697282e-16
1.0095576e-05
-1.7656848e-09
-6.1746948e-16
1.0229476e-05
-3.0822747e-09
7.3481225e-16
1.0359661e-05
-5.3431723e-09
-9.3048216e-16
1.0486108e-05
-9.1779629e-09
-3.9666631e-15
1.0608246e-05
-1.5530721e-08
-7.5028697e-15
1.0723024e-05
-2.5516481e-08
-8.1027388e-15
1.0820816e-05
-3.9164113e-08
1.0697117e-14
1.0881799e-05
-5.471386e-08
2.1653622e-14
1.095296e-05
-5.1940129e-08
4.2597435e-14
1.1022686e-05
-2.469521e-08
2.0007406e-14
1.108752e-05
1.4936763e-08
9.158976e-15
1.1149869e-05
6.5988907e-08
-7.6619883e-15
1.1202764e-05
1.2418638e-07
-9.2083859e-15
1.1243707e-05
1.8614627e-07
-1.204195e-14
1.1269724e-05
2.5244756e-07
8.1534023e-15
1.1278048e-05
3.2275389e-07
1.5012831e-15
1.1265769e-05
3.9719435e-07
1.0103759e-13
1.1229105e-05
4.7664861e-07
1.2242982e-13
1.1162488e-05
5.6290256e-07
1.154508e-13
1.1057118e-05
6.5923429e-07
1.3217221e-13
1.0898827e-05
7.7141238e-07
1.484063e-13
1.0664442e-05
9.0971942e-07
1.6068542e-13
1.0315583e-05
1.0925205e-06
1.4856148e-13
9.7852806e-06
1.3525258e-06
1.118888e-13
1.7421168e-06
-2.552928e-14
9.3963132e-06
-1.1882073e-07
3.6049903e-14
9.5387793e-06
-1.2578671e-07
1.0772776e-14
9.6780901e-06
-1.1659696e-07
5.0867049e-15
9.8175556e-06
-1.1276282e-07
1.0907578e-15
9.9565415e-06
-1.0977882e-07
5.8350757e-16
1.009253e-05
-1.0547332e-07
1.0357204e-15
1.0223947e-05
-1.0085675e-07
-4.8178016e-15
1.0349847e-05
-9.685723e-08
1.2995228e-15
1.0469143e-05
-9.3903148e-08
-8.8478825e-15
1.0580139e-05
-9.2339524e-08
-5.1810593e-15
1.0680147e-05
-9.2453975e-08
-8.9145105e-15
1.076583e-05
-9.4024234e-08
1.3633183e-14
1.0833368e-05
-9.5513516e-08
2.7824993e-14
1.0892508e-05
-9.1706756e-08
2.8789079e-14
1.0954489e-05
-7.8043216e-08
1.2850206e-14
1.102176e-05
-5.7603551e-08
-2.3612425e-15
1.1095497e-05
-3.1975859e-08
-1.6505538e-14
1.1172976e-05
1.024793e-09
-1.7560075e-14
1.1250582e-05
3.8497511e-08
-3.4119968e-14
1.1325311e-05
8.1019745e-08
-5.7667311e-14
1.1395375e-05
1.2729842e-07
-6.5953313e-15
1.1458161e-05
1.7824627e-07
2.702413e-14
1.1510339e-05
2.3526478e-07
5.0932486e-14
1.154779e-05
3.0055459e-07
4.7844087e-14
1.15651e-05
3.7748081e-07
-5.8019291e-14
1.1555306e-05
4.7168154e-07
-7.1620881e-14
1.1509387e-05
5.9277379e-07
-1.2253847e-13
1.141602e-05
7.572346e-07
-1.3621295e-13
1.1262124e-05
9.9291067e-07
-2.2506244e-13
1.3400904e-06
-3.7184502e-13
9.1584654e-06
3.2402787e-14
9.0488782e-06
1.4714963e-14
8.9542381e-06
8.445648e-15
8.8671743e-06
4.1453622e-15
8.7854561e-06
8.8340092e-15
8.7094586e-06
5.329995e-15
8.6387193e-06
1.0752075e-14
8.5719372e-06
-4.8097803e-16
8.5074393e-06
7.2417714e-15
8.4431799e-06
-7.8669089e-15
8.3766586e-06
-7.3716703e-15
8.3052396e-06
-7.165603e-15
8.2272555e-06
-8.5894124e-15
8.1455954e-06
-1.2039639e-14
8.0681873e-06
-2.9889865e-14
7.996393e-06
-4.389355e-14
7.9336453e-06
-8.15357e-14
7.8854939e-06
-1.1139219e-13
7.8547223e-06
-1.790824e-13
7.8434247e-06
-2.5293074e-13
7.8515327e-06
-3.2054638e-13
7.8790217e-06
-3.8555274e-13
7.9260478e-06
-4.6907987e-13
7.9931648e-06
-5.0149266e-13
8.0827389e-06
-6.4904321e-13
8.2007215e-06
-6.8687205e-13
8.3602675e-06
-7.4580648e-13
8.5890868e-06
-7.9837521e-13
8.9442835e-06
-8.6463667e-13
-9.0717453e-13
9.1585947e-06
1.1871956e-07
-8.3449177e-09
9.0492304e-06
1.2557055e-07
-1.6206279e-08
8.955003e-06
1.161984e-07
-2.1970961e-08
8.8686784e-06
1.1205248e-07
-2.5727815e-08
8.7882646e-06
1.0853242e-07
-2.8118558e-08
8.7145574e-06
1.032999e-07
-2.9592603e-08
8.6478373e-06
9.7072598e-08
-3.0352412e-08
8.588128e-06
9.0257619e-08
-3.054812e-08
8.5361665e-06
8.2320587e-08
-3.0358813e-08
8.4944382e-06
7.1743051e-08
-3.0014217e-08
8.4692261e-06
5.5111076e-08
-2.9898456e-08
8.4735227e-06
2.655187e-08
-3.0847519e-08
8.5285116e-06
-2.0828615e-08
-3.4157281e-08
8.5735377e-06
3.7332918e-09
-4.8700723e-08
8.6068553e-06
4.3692889e-08
-7.6903104e-08
8.6243272e-06
9.8792724e-08
-1.1611497e-07
8.6210032e-06
1.6627746e-07
-1.6276777e-07
8.602353e-06
2.3105674e-07
-2.1219075e-07
8.5701663e-06
2.9381437e-07
-2.6138783e-07
8.5253065e-06
3.5445474e-07
-3.0933738e-07
8.4679291e-06
4.1311182e-07
-3.5546487e-07
8.3969818e-06
4.702598e-07
-3.9903628e-07
8.3095936e-06
5.2667987e-07
-4.3901358e-07
8.2002215e-06
5.8353303e-07
-4.7388469e-07
8.0591348e-06
6.4267295e-07
-5.0131506e-07
7.8696756e-06
7.0725748e-07
-5.1753499e-07
7.6031536e-06
7.8297636e-07
-5.1620062e-07
7.2091635e-06
8.8045211e-07
-4.8621914e-07
6.5999914e-06
1.018181e-06
-4.0877802e-07
1.2420323e-06
-2.7086928e-07
9.3963743e-06
-7.62833e-11
-8.6176399e-09
9.53896e-06
-1.6635277e-10
-1.6848704e-08
9.6785043e-06
-3.1296365e-10
-2.3033025e-08
9.8184039e-06
-5.658285e-10
-2.7281263e-08
9.958178e-06
-1.0044762e-09
-3.0237186e-08
1.0095576e-05
-1.7656843e-09
-3.2332516e-08
1.0229476e-05
-3.0822744e-09
-3.3744712e-08
1.0359661e-05
-5.3431784e-09
-3.4584321e-08
1.0486108e-05
-9.1779529e-09
-3.4948848e-08
1.0608247e-05
-1.5530733e-08
-3.4864595e-08
1.0723024e-05
-2.5516466e-08
-3.4150391e-08
1.0820816e-05
-3.9164123e-08
-3.2075855e-08
1.0881799e-05
-5.4713871e-08
-2.7096914e-08
1.095296e-05
-5.1940132e-08
-1.5486923e-08
1.1022686e-05
-2.4695214e-08
-1.3360457e-09
1.108752e-05
1.493681e-08
1.9027193e-08
1.1149869e-05
6.5988981e-08
3.7950444e-08
1.1202764e-05
1.2418651e-07
5.3992792e-08
1.1243707e-05
1.8614646e-07
6.6751521e-08
1.1269724e-05
2.5244782e-07
7.6027536e-08
1.1278048e-05
3.2275423e-07
8.2084187e-08
1.1265769e-05
3.9719467e-07
8.540853e-08
1.1229104e-05
4.7664889e-07
8.6773605e-08
1.1162487e-05
5.6290305e-07
8.7339056e-08
1.1057117e-05
6.5923504e-07
8.8913613e-08
1.0898827e-05
7.7141331e-07
9.4254174e-08
1.066444e-05
9.0972057e-07
1.0777364e-07
1.0315581e-05
1.0925218e-06
1.3693307e-07
9.7852781e-06
1.3525272e-06
1.9611065e-07
1.7421185e-06
3.1091256e-07
9.3963132e-06
-1.1882074e-07
-8.61638e-09
9.5387793e-06
-1.257867e-07
-1.6845709e-08
9.6780901e-06
-1.1659696e-07
-2.3026781e-08
9.8175556e-06
-1.1276282e-07
-2.7268548e-08
9.9565415e-06
-1.0977882e-07
-3.0211514e-08
1.009253e-05
-1.0547333e-07
-3.2281047e-08
1.0223947e-05
-1.0085674e-07
-3.3642644e-08
1.0349847e-05
-9.6857246e-08
-3.4385321e-08
1.0469143e-05
-9.3903137e-08
-3.4571671e-08
1.0580139e-05
-9.2339542e-08
-3.4187227e-08
1.0680147e-05
-9.2453962e-08
-3.3070544e-08
1.076583e-05
-9.402424e-08
-3.0822706e-08
1.0833368e-05
-9.5513504e-08
-2.6737618e-08
1.0892508e-05
-9.1706762e-08
-1.9374106e-08
1.0954489e-05
-7.8043221e-08
-8.6322445e-09
1.102176e-05
-5.7603563e-08
5.268751e-09
1.1095497e-05
-3.1975851e-08
2.4228431e-08
1.1172976e-05
1.0248241e-09
4.5683491e-08
1.1250582e-05
3.8497582e-08
7.0043908e-08
1.1325311e-05
8.101987e-08
9.6701703e-08
1.1395375e-05
1.2729864e-07
1.2539707e-07
1.1458161e-05
1.7824652e-07
1.5617054e-07
1.1510338e-05
2.3526511e-07
1.8921996e-07
1.1547789e-05
3.0055501e-07
2.2491638e-07
1.15651e-05
3.774814e-07
2.6447022e-07
1.1555306e-05
4.716822e-07
3.0956183e-07
1.1509386e-05
5.9277466e-07
3.6291416e-07
1.1416018e-05
7.572356e-07
4.2871597e-07
1.1262122e-05
9.9291192e-07
5.1359056e-07
1.340092e-06
6.2465964e-07
9.1584654e-06
-8.3421055e-09
9.0488782e-06
-1.6199532e-08
8.9542381e-06
-2.195682e-08
8.8671743e-06
-2.5699067e-08
8.7854561e-06
-2.8060565e-08
8.7094586e-06
-2.9475838e-08
8.6387193e-06
-3.011745e-08
8.5719373e-06
-3.0075247e-08
8.5074393e-06
-2.9405183e-08
8.4431799e-06
-2.8080205e-08
8.3766585e-06
-2.5932595e-08
8.3052396e-06
-2.2605282e-08
8.2272555e-06
-1.7529415e-08
8.1455954e-06
-1.0046672e-08
8.0681872e-06
-6.3510229e-10
7.9963929e-06
1.4190728e-08
7.9336452e-06
3.0771777e-08
7.8854938e-06
4.9176146e-08
7.8547222e-06
6.9269061e-08
7.8434246e-06
9.2317402e-08
7.8515328e-06
1.1919062e-07
7.8790217e-06
1.5075804e-07
7.926048e-06
1.8824019e-07
7.9931649e-06
2.3344067e-07
8.0827391e-06
2.879119e-07
8.2007217e-06
3.5370771e-07
8.3602677e-06
4.3324175e-07
8.5890869e-06
5.2843688e-07
8.9442834e-06
6.3774644e-07
7.4347292e-07
9.1614386e-06
1.1869707e-07
-1.9511348e-08
9.056484e-06
1.2550625e-07
-3.6757878e-08
8.9661501e-06
1.161676e-07
-4.78047e-08
8.8826485e-06
1.1210533e-07
-5.4331435e-08
8.804248e-06
1.0868347e-07
-5.840151e-08
8.7319443e-06
1.0356709e-07
-6.0855912e-08
8.6660818e-06
9.7489087e-08
-6.1978831e-08
8.6067059e-06
9.0886316e-08
-6.2058384e-08
8.5544636e-06
8.3318458e-08
-6.1434694e-08
8.5114048e-06
7.3517754e-08
-6.0472832e-08
8.4824943e-06
5.8699994e-08
-5.9687346e-08
8.4780712e-06
3.3660253e-08
-6.0083923e-08
8.511376e-06
-3.757874e-09
-6.3701423e-08
8.5425432e-06
-2.9936864e-09
-7.6816707e-08
8.5651362e-06
4.4183009e-09
-1.0380827e-07
8.575787e-06
1.6028781e-08
-1.4264631e-07
8.5714952e-06
3.1156305e-08
-1.8944854e-07
8.5534172e-06
4.6329442e-08
-2.4022938e-07
8.5236774e-06
6.0179826e-08
-2.9159255e-07
8.4840504e-06
7.1862503e-08
-3.4132134e-07
8.4354157e-06
8.1550093e-08
-3.8811834e-07
8.3777276e-06
8.9863895e-08
-4.309452e-07
8.3096976e-06
9.7963304e-08
-4.6867969e-07
8.2282405e-06
1.0768194e-07
-4.9984575e-07
8.127609e-06
1.218832e-07
-5.2230941e-07
7.9980575e-06
1.450408e-07
-5.3277592e-07
7.8234843e-06
1.8442574e-07
-5.2581506e-07
7.5762542e-06
2.5307014e-07
-4.9183205e-07
7.2045261e-06
3.7826822e-07
-4.1510231e-07
6.3488012e-07
-2.8350379e-07
9.399247e-06
-7.4370328e-11
-2.0132385e-08
9.5461742e-06