/*--------------------------------*- C++ -*----------------------------------*\
| =========                 |                                                 |
| \\      /  F ield         | OpenFOAM: The Open Source CFD Toolbox           |
|  \\    /   O peration     | Version:  2412                                  |
|   \\  /    A nd           | Website:  www.openfoam.com                      |
|    \\/     M anipulation  |                                                 |
\*---------------------------------------------------------------------------*/
FoamFile
{
    version     2.0;
    format      ascii;
    arch        "LSB;label=32;scalar=64";
    class       volScalarField;
    location    "50/topAir";
    object      rho;
}
// * * * * * * * * * * * * * * * * * * * * * * * * * * * * * * * * * * * * * //

dimensions      [1 -3 0 0 0 0 0];

internalField   nonuniform List<scalar> 
1200
(
1.1586211
1.1586209
1.1586208
1.1586205
1.1586202
1.1586197
1.1586189
1.1586179
1.1586165
1.1586147
1.1586122
1.1586048
1.1584777
1.155294
1.1524814
1.1501182
1.1482541
1.1469049
1.1460546
1.1456569
1.1456447
1.1459398
1.1464616
1.1471335
1.1478872
1.1486646
1.1494196
1.1501236
1.1507991
1.1514051
1.1586201
1.1586201
1.1586201
1.1586201
1.15862
1.15862
1.1586199
1.1586198
1.1586197
1.1586195
1.1586193
1.1586187
1.1586131
1.1585357
1.1584003
1.1582185
1.1580039
1.1577699
1.1575292
1.1572926
1.1570689
1.1568645
1.1566831
1.1565259
1.1563919
1.1562778
1.1561785
1.1560881
1.1559675
1.1557954
1.1586191
1.158619
1.158619
1.158619
1.158619
1.158619
1.158619
1.158619
1.158619
1.158619
1.1586189
1.1586189
1.1586187
1.1586167
1.1586118
1.1586029
1.1585896
1.1585716
1.158549
1.158522
1.1584913
1.1584573
1.1584207
1.1583824
1.1583429
1.1583026
1.1582612
1.1582101
1.1581344
1.158028
1.158618
1.158618
1.158618
1.158618
1.158618
1.158618
1.158618
1.1586179
1.1586179
1.1586179
1.1586179
1.1586179
1.1586179
1.1586178
1.1586176
1.158617
1.1586161
1.1586145
1.1586122
1.158609
1.1586049
1.1585996
1.1585933
1.1585859
1.1585774
1.158568
1.1585576
1.1585451
1.1585267
1.1585007
1.1586211
1.1586209
1.1586207
1.1586205
1.1586201
1.1586195
1.1586187
1.1586176
1.158616
1.1586138
1.158611
1.158604
1.1584887
1.1551479
1.1521669
1.149641
1.1476349
1.1461727
1.1452346
1.1447643
1.1446856
1.1449156
1.1453736
1.145986
1.1466888
1.1474277
1.1481571
1.1488382
1.149454
1.1500198
1.1586201
1.1586201
1.1586201
1.1586201
1.15862
1.15862
1.1586199
1.1586198
1.1586197
1.1586195
1.1586193
1.1586188
1.1586142
1.1585433
1.1584217
1.1582584
1.1580649
1.1578532
1.1576344
1.1574177
1.1572106
1.1570182
1.1568435
1.156688
1.156551
1.1564299
1.1563196
1.1562128
1.1560919
1.1559014
1.158619
1.158619
1.158619
1.158619
1.158619
1.158619
1.158619
1.158619
1.158619
1.158619
1.158619
1.1586189
1.1586188
1.1586172
1.1586134
1.1586067
1.1585965
1.1585828
1.1585655
1.1585449
1.1585212
1.1584949
1.1584662
1.1584355
1.1584029
1.1583683
1.1583312
1.1582901
1.1582357
1.1581501
1.158618
1.158618
1.158618
1.158618
1.158618
1.158618
1.158618
1.1586179
1.1586179
1.1586179
1.1586179
1.1586179
1.1586179
1.1586179
1.1586177
1.1586174
1.1586167
1.1586158
1.1586143
1.1586123
1.1586096
1.1586062
1.158602
1.1585969
1.1585907
1.1585831
1.1585738
1.1585617
1.158544
1.1585168
1.158621
1.1586209
1.1586207
1.1586204
1.1586199
1.1586192
1.1586181
1.1586166
1.1586144
1.1586113
1.1586069
1.1585965
1.1584372
1.1537655
1.1496433
1.1462009
1.1435408
1.1417077
1.1406409
1.1402207
1.1403101
1.1407774
1.1415061
1.1423978
1.1433717
1.1443617
1.1453143
1.1461864
1.1469878
1.1477088
1.1586201
1.1586201
1.1586201
1.1586201
1.15862
1.15862
1.1586199
1.1586198
1.1586196
1.1586194
1.158619
1.1586184
1.1586124
1.1585182
1.1583531
1.1581317
1.157871
1.1575867
1.1572935
1.1570029
1.1567238
1.1564627
1.1562228
1.1560049
1.1558068
1.155623
1.1554434
1.1552529
1.1550089
1.1546477
1.158619
1.158619
1.158619
1.158619
1.158619
1.158619
1.158619
1.158619
1.158619
1.158619
1.1586189
1.1586189
1.1586187
1.1586167
1.1586117
1.1586029
1.1585895
1.1585715
1.1585486
1.158521
1.1584886
1.1584515
1.1584094
1.1583617
1.1583072
1.1582437
1.1581668
1.1580694
1.1579174
1.1576904
1.158618
1.158618
1.158618
1.158618
1.158618
1.158618
1.158618
1.1586179
1.1586179
1.1586179
1.1586179
1.1586179
1.1586179
1.1586178
1.1586176
1.1586172
1.1586165
1.1586152
1.1586133
1.1586107
1.1586071
1.1586023
1.158596
1.1585874
1.1585758
1.1585591
1.1585344
1.1584956
1.1584297
1.1583286
1.158621
1.1586209
1.1586206
1.1586202
1.1586197
1.1586188
1.1586175
1.1586155
1.1586124
1.1586079
1.1586012
1.1585845
1.1583431
1.1513488
1.145196
1.1400788
1.1362138
1.1337774
1.1325523
1.1322546
1.1326286
1.1334671
1.1346094
1.1359333
1.1373469
1.1387817
1.140186
1.1415194
1.1427506
1.1438251
1.1586201
1.1586201
1.1586201
1.15862
1.15862
1.1586199
1.1586198
1.1586197
1.1586195
1.1586192
1.1586187
1.1586177
1.158609
1.158469
1.1582132
1.1578488
1.1573875
1.1568543
1.1562769
1.1556838
1.1550972
1.154533
1.1540009
1.1535045
1.1530411
1.1526018
1.1521703
1.1517206
1.1512107
1.1505863
1.158619
1.158619
1.158619
1.158619
1.158619
1.158619
1.158619
1.158619
1.158619
1.158619
1.1586189
1.1586189
1.1586186
1.1586156
1.158608
1.1585937
1.1585711
1.1585386
1.1584947
1.1584356
1.158359
1.1582624
1.1581426
1.1579949
1.1578125
1.1575842
1.1572926
1.1569116
1.1564022
1.1557352
1.158618
1.158618
1.158618
1.158618
1.158618
1.158618
1.158618
1.1586179
1.1586179
1.1586179
1.1586179
1.1586179
1.1586179
1.1586178
1.1586175
1.1586168
1.1586156
1.1586134
1.1586099
1.1586044
1.1585961
1.1585837
1.1585651
1.1585374
1.1584944
1.158428
1.1583254
1.1581671
1.1579259
1.1575869
1.158621
1.1586208
1.1586206
1.1586202
1.1586195
1.1586186
1.158617
1.1586147
1.158611
1.1586053
1.1585962
1.1585718
1.1582124
1.1478219
1.1386925
1.1310438
1.1253262
1.1225357
1.1215837
1.1218153
1.1228114
1.1242908
1.1260598
1.1279824
1.1299633
1.1319355
1.1338521
1.1356796
1.1373914
1.1389252
1.1586201
1.1586201
1.1586201
1.15862
1.15862
1.1586199
1.1586198
1.1586196
1.1586194
1.158619
1.1586184
1.1586171
1.1586041
1.1583903
1.1579392
1.1572051
1.1561717
1.1549279
1.1535586
1.1521402
1.1507367
1.1493979
1.1481603
1.1470478
1.1460739
1.1452431
1.1445522
1.1439919
1.1435493
1.1432096
1.158619
1.158619
1.158619
1.158619
1.158619
1.158619
1.158619
1.158619
1.158619
1.1586189
1.1586189
1.1586188
1.1586184
1.1586139
1.158601
1.1585728
1.1585148
1.158412
1.1582509
1.1580195
1.1577086
1.1573127
1.1568297
1.15626
1.1556053
1.1548663
1.1540402
1.1531167
1.1520758
1.1509177
1.158618
1.158618
1.158618
1.158618
1.158618
1.158618
1.158618
1.1586179
1.1586179
1.1586179
1.1586179
1.1586179
1.1586179
1.1586178
1.1586173
1.158616
1.1586133
1.1586078
1.1585966
1.1585756
1.1585395
1.1584817
1.1583939
1.1582665
1.1580874
1.1578421
1.1575107
1.1570654
1.1564669
1.1556945
1.158621
1.1586208
1.1586206
1.1586202
1.1586195
1.1586186
1.158617
1.1586147
1.158611
1.1586053
1.1585962
1.1585718
1.1582124
1.1478219
1.1386925
1.1310438
1.1253262
1.1225357
1.1215837
1.1218153
1.1228113
1.1242908
1.1260598
1.1279824
1.1299632
1.1319354
1.1338521
1.1356796
1.1373914
1.1389252
1.1586201
1.1586201
1.1586201
1.15862
1.15862
1.1586199
1.1586198
1.1586196
1.1586194
1.158619
1.1586184
1.1586171
1.1586041
1.1583903
1.1579392
1.1572051
1.1561717
1.1549279
1.1535586
1.1521402
1.1507367
1.1493979
1.1481603
1.1470478
1.1460739
1.1452431
1.1445522
1.1439919
1.1435493
1.1432095
1.158619
1.158619
1.158619
1.158619
1.158619
1.158619
1.158619
1.158619
1.158619
1.1586189
1.1586189
1.1586188
1.1586184
1.1586139
1.158601
1.1585728
1.1585148
1.158412
1.1582509
1.1580195
1.1577086
1.1573127
1.1568297
1.15626
1.1556053
1.1548663
1.1540401
1.1531167
1.1520757
1.1509176
1.158618
1.158618
1.158618
1.158618
1.158618
1.158618
1.158618
1.1586179
1.1586179
1.1586179
1.1586179
1.1586179
1.1586179
1.1586178
1.1586173
1.158616
1.1586133
1.1586078
1.1585966
1.1585756
1.1585395
1.1584817
1.1583939
1.1582665
1.1580874
1.157842
1.1575107
1.1570654
1.1564669
1.1556945
1.158621
1.1586209
1.1586206
1.1586202
1.1586197
1.1586188
1.1586175
1.1586155
1.1586124
1.1586079
1.1586012
1.1585845
1.1583431
1.1513488
1.145196
1.1400788
1.1362137
1.1337773
1.1325523
1.1322546
1.1326286
1.1334671
1.1346094
1.1359333
1.1373469
1.1387817
1.140186
1.1415194
1.1427505
1.1438251
1.1586201
1.1586201
1.1586201
1.15862
1.15862
1.1586199
1.1586198
1.1586197
1.1586195
1.1586192
1.1586187
1.1586177
1.158609
1.158469
1.1582132
1.1578488
1.1573875
1.1568543
1.1562769
1.1556838
1.1550972
1.154533
1.1540009
1.1535045
1.1530411
1.1526018
1.1521703
1.1517206
1.1512107
1.1505863
1.158619
1.158619
1.158619
1.158619
1.158619
1.158619
1.158619
1.158619
1.158619
1.158619
1.1586189
1.1586189
1.1586186
1.1586156
1.158608
1.1585937
1.1585711
1.1585386
1.1584947
1.1584356
1.158359
1.1582624
1.1581426
1.1579949
1.1578125
1.1575842
1.1572926
1.1569116
1.1564022
1.1557352
1.158618
1.158618
1.158618
1.158618
1.158618
1.158618
1.158618
1.1586179
1.1586179
1.1586179
1.1586179
1.1586179
1.1586179
1.1586178
1.1586175
1.1586168
1.1586156
1.1586134
1.1586099
1.1586044
1.1585961
1.1585837
1.1585651
1.1585374
1.1584944
1.158428
1.1583254
1.1581671
1.1579259
1.1575869
1.158621
1.1586209
1.1586207
1.1586204
1.1586199
1.1586192
1.1586181
1.1586166
1.1586144
1.1586113
1.1586069
1.1585965
1.1584372
1.1537655
1.1496433
1.1462009
1.1435408
1.1417077
1.1406408
1.1402206
1.1403101
1.1407774
1.1415061
1.1423978
1.1433716
1.1443617
1.1453142
1.1461864
1.1469878
1.1477087
1.1586201
1.1586201
1.1586201
1.1586201
1.15862
1.15862
1.1586199
1.1586198
1.1586196
1.1586194
1.158619
1.1586184
1.1586124
1.1585182
1.1583531
1.1581317
1.157871
1.1575867
1.1572935
1.1570029
1.1567238
1.1564627
1.1562228
1.1560049
1.1558068
1.155623
1.1554434
1.1552529
1.1550089
1.1546476
1.158619
1.158619
1.158619
1.158619
1.158619
1.158619
1.158619
1.158619
1.158619
1.158619
1.1586189
1.1586189
1.1586187
1.1586167
1.1586117
1.1586029
1.1585895
1.1585715
1.1585486
1.158521
1.1584886
1.1584515
1.1584094
1.1583617
1.1583072
1.1582437
1.1581668
1.1580694
1.1579174
1.1576904
1.158618
1.158618
1.158618
1.158618
1.158618
1.158618
1.158618
1.1586179
1.1586179
1.1586179
1.1586179
1.1586179
1.1586179
1.1586178
1.1586176
1.1586172
1.1586165
1.1586152
1.1586133
1.1586107
1.1586071
1.1586023
1.158596
1.1585874
1.1585758
1.1585591
1.1585344
1.1584956
1.1584297
1.1583286
1.1586211
1.1586209
1.1586207
1.1586205
1.1586201
1.1586195
1.1586187
1.1586176
1.158616
1.1586138
1.158611
1.158604
1.1584887
1.1551479
1.1521669
1.149641
1.1476348
1.1461727
1.1452345
1.1447642
1.1446855
1.1449156
1.1453736
1.145986
1.1466887
1.1474277
1.148157
1.1488381
1.1494539
1.1500197
1.1586201
1.1586201
1.1586201
1.1586201
1.15862
1.15862
1.1586199
1.1586198
1.1586197
1.1586195
1.1586193
1.1586188
1.1586142
1.1585433
1.1584217
1.1582584
1.1580649
1.1578532
1.1576344
1.1574177
1.1572106
1.1570182
1.1568435
1.156688
1.156551
1.1564299
1.1563196
1.1562128
1.1560919
1.1559013
1.158619
1.158619
1.158619
1.158619
1.158619
1.158619
1.158619
1.158619
1.158619
1.158619
1.158619
1.1586189
1.1586188
1.1586172
1.1586134
1.1586067
1.1585965
1.1585828
1.1585655
1.1585449
1.1585212
1.1584949
1.1584662
1.1584355
1.1584029
1.1583683
1.1583312
1.1582901
1.1582357
1.1581501
1.158618
1.158618
1.158618
1.158618
1.158618
1.158618
1.158618
1.1586179
1.1586179
1.1586179
1.1586179
1.1586179
1.1586179
1.1586179
1.1586177
1.1586174
1.1586167
1.1586158
1.1586143
1.1586123
1.1586096
1.1586062
1.158602
1.1585969
1.1585907
1.1585831
1.1585738
1.1585617
1.158544
1.1585168
1.1586211
1.1586209
1.1586208
1.1586205
1.1586202
1.1586197
1.1586189
1.1586179
1.1586165
1.1586147
1.1586122
1.1586048
1.1584777
1.155294
1.1524814
1.1501182
1.1482541
1.1469049
1.1460545
1.1456568
1.1456446
1.1459397
1.1464615
1.1471335
1.1478872
1.1486645
1.1494195
1.1501235
1.150799
1.1514051
1.1586201
1.1586201
1.1586201
1.1586201
1.15862
1.15862
1.1586199
1.1586198
1.1586197
1.1586195
1.1586193
1.1586187
1.1586131
1.1585357
1.1584003
1.1582185
1.1580039
1.1577699
1.1575292
1.1572926
1.1570689
1.1568645
1.1566831
1.1565259
1.1563919
1.1562778
1.1561785
1.1560881
1.1559675
1.1557954
1.1586191
1.158619
1.158619
1.158619
1.158619
1.158619
1.158619
1.158619
1.158619
1.158619
1.1586189
1.1586189
1.1586187
1.1586167
1.1586118
1.1586029
1.1585896
1.1585716
1.158549
1.158522
1.1584913
1.1584573
1.1584207
1.1583824
1.1583429
1.1583026
1.1582612
1.1582101
1.1581344
1.158028
1.158618
1.158618
1.158618
1.158618
1.158618
1.158618
1.158618
1.1586179
1.1586179
1.1586179
1.1586179
1.1586179
1.1586179
1.1586178
1.1586176
1.158617
1.1586161
1.1586145
1.1586122
1.158609
1.1586049
1.1585996
1.1585933
1.1585859
1.1585774
1.158568
1.1585576
1.1585451
1.1585267
1.1585007
)
;

boundaryField
{
    maxY
    {
        type            calculated;
        value           nonuniform List<scalar> 
300
(
1.1586175
1.1586175
1.1586175
1.1586175
1.1586175
1.1586175
1.1586175
1.1586175
1.1586175
1.1586175
1.1586175
1.1586175
1.1586175
1.1586175
1.1586175
1.1586175
1.1586175
1.1586175
1.1586175
1.1586175
1.1586175
1.1586175
1.1586175
1.1586175
1.1586175
1.1586175
1.1586175
1.1586175
1.1586175
1.1586175
1.1586174
1.1586174
1.1586174
1.1586174
1.1586174
1.1586174
1.1586174
1.1586174
1.1586174
1.1586174
1.1586174
1.1586174
1.1586174
1.1586174
1.1586174
1.1586174
1.1586174
1.1586174
1.1586174
1.1586174
1.1586174
1.1586174
1.1586174
1.1586174
1.1586174
1.1586174
1.1586174
1.1586174
1.1586174
1.1586174
1.1586174
1.1586174
1.1586174
1.1586174
1.1586174
1.1586174
1.1586174
1.1586174
1.1586174
1.1586174
1.1586174
1.1586174
1.1586174
1.1586174
1.1586174
1.1586174
1.1586174
1.1586174
1.1586174
1.1586174
1.1586174
1.1586174
1.1586174
1.1586174
1.1586174
1.1586174
1.1586174
1.1586174
1.1586174
1.1586174
1.1586174
1.1586174
1.1586174
1.1586174
1.1586174
1.1586174
1.1586174
1.1586174
1.1586174
1.1586174
1.1586174
1.1586174
1.1586174
1.1586174
1.1586174
1.1586174
1.1586174
1.1586174
1.1586174
1.1586174
1.1586174
1.1586174
1.1586174
1.1586174
1.1586174
1.1586174
1.1586174
1.1586174
1.1586174
1.1586174
1.1586174
1.1586174
1.1586174
1.1586174
1.1586174
1.1586174
1.1586174
1.1586174
1.1586174
1.1586174
1.1586173
1.1586173
1.1586173
1.1586173
1.1586172
1.1586172
1.1586173
1.1586173
1.1586173
1.1586173
1.158617
1.1586172
1.1586171
1.158617
1.1586167
1.1586167
1.158617
1.1586171
1.1586172
1.158617
1.1586165
1.1586168
1.1586167
1.1586163
1.1586155
1.1586155
1.1586163
1.1586167
1.1586168
1.1586165
1.1586156
1.1586162
1.1586159
1.158615
1.1586128
1.1586128
1.158615
1.1586159
1.1586162
1.1586156
1.158614
1.1586152
1.1586147
1.1586129
1.1586073
1.1586073
1.1586129
1.1586147
1.1586152
1.158614
1.1586117
1.1586138
1.1586128
1.1586094
1.158596
1.158596
1.1586094
1.1586128
1.1586138
1.1586117
1.1586085
1.1586118
1.1586102
1.1586039
1.158575
1.158575
1.1586039
1.1586102
1.1586118
1.1586085
1.1586043
1.1586091
1.1586066
1.1585956
1.158539
1.158539
1.1585956
1.1586066
1.1586091
1.1586043
1.1585991
1.1586057
1.1586018
1.1585831
1.1584812
1.1584812
1.1585831
1.1586018
1.1586057
1.1585991
1.1585928
1.1586015
1.1585954
1.1585646
1.1583934
1.1583934
1.1585646
1.1585954
1.1586015
1.1585928
1.1585854
1.1585964
1.1585869
1.1585369
1.1582659
1.1582659
1.1585369
1.1585869
1.1585964
1.1585854
1.1585769
1.1585902
1.1585752
1.1584939
1.1580869
1.1580869
1.1584939
1.1585752
1.1585902
1.1585769
1.1585675
1.1585826
1.1585586
1.1584275
1.1578415
1.1578415
1.1584275
1.1585586
1.1585826
1.1585675
1.1585571
1.1585733
1.1585339
1.1583248
1.1575101
1.1575101
1.1583248
1.1585339
1.1585733
1.1585571
1.1585446
1.1585611
1.1584951
1.1581666
1.1570649
1.1570649
1.1581666
1.1584951
1.1585611
1.1585446
1.1585261
1.1585435
1.1584292
1.1579254
1.1564664
1.1564664
1.1579254
1.1584292
1.1585435
1.1585261
1.1585002
1.1585163
1.1583281
1.1575863
1.155694
1.155694
1.1575863
1.1583281
1.1585163
1.1585002
)
;
    }
    minX
    {
        type            calculated;
        value           nonuniform List<scalar> 
40
(
1.1586212
1.1586201
1.1586191
1.158618
1.1586212
1.1586201
1.1586191
1.158618
1.1586212
1.1586201
1.158619
1.158618
1.1586212
1.1586201
1.158619
1.158618
1.1586212
1.1586201
1.158619
1.158618
1.1586212
1.1586201
1.158619
1.158618
1.1586212
1.1586201
1.158619
1.158618
1.1586212
1.1586201
1.158619
1.158618
1.1586212
1.1586201
1.1586191
1.158618
1.1586212
1.1586201
1.1586191
1.158618
)
;
    }
    maxX
    {
        type            calculated;
        value           nonuniform List<scalar> 
40
(
1.1514145
1.1557992
1.1580289
1.1585009
1.1500292
1.1559042
1.1581507
1.1585169
1.1477186
1.1546509
1.1576913
1.1583289
1.1438357
1.1505916
1.1557375
1.1575879
1.1389365
1.143218
1.1509227
1.1556969
1.1389365
1.143218
1.1509227
1.1556969
1.1438357
1.1505915
1.1557375
1.1575879
1.1477185
1.1546509
1.1576913
1.1583289
1.1500292
1.1559042
1.1581507
1.1585169
1.1514144
1.1557992
1.1580289
1.1585009
)
;
    }
    minZ
    {
        type            calculated;
        value           nonuniform List<scalar> 
120
(
1.1586211
1.1586201
1.1586191
1.158618
1.1586209
1.1586201
1.158619
1.158618
1.1586208
1.1586201
1.158619
1.158618
1.1586205
1.1586201
1.158619
1.158618
1.1586202
1.15862
1.158619
1.158618
1.1586197
1.15862
1.158619
1.158618
1.1586189
1.1586199
1.158619
1.158618
1.1586179
1.1586198
1.158619
1.1586179
1.1586165
1.1586197
1.158619
1.1586179
1.1586147
1.1586195
1.158619
1.1586179
1.1586122
1.1586193
1.1586189
1.1586179
1.1586048
1.1586187
1.1586189
1.1586179
1.1584777
1.1586131
1.1586187
1.1586179
1.155294
1.1585357
1.1586167
1.1586178
1.1524814
1.1584003
1.1586118
1.1586176
1.1501182
1.1582185
1.1586029
1.158617
1.1482541
1.1580039
1.1585896
1.1586161
1.1469049
1.1577699
1.1585716
1.1586145
1.1460546
1.1575292
1.158549
1.1586122
1.1456569
1.1572926
1.158522
1.158609
1.1456447
1.1570689
1.1584913
1.1586049
1.1459398
1.1568645
1.1584573
1.1585996
1.1464616
1.1566831
1.1584207
1.1585933
1.1471335
1.1565259
1.1583824
1.1585859
1.1478872
1.1563919
1.1583429
1.1585774
1.1486646
1.1562778
1.1583026
1.158568
1.1494196
1.1561785
1.1582612
1.1585576
1.1501236
1.1560881
1.1582101
1.1585451
1.1507991
1.1559675
1.1581344
1.1585267
1.1514051
1.1557954
1.158028
1.1585007
)
;
    }
    maxZ
    {
        type            calculated;
        value           nonuniform List<scalar> 
120
(
1.1586211
1.1586201
1.1586191
1.158618
1.1586209
1.1586201
1.158619
1.158618
1.1586208
1.1586201
1.158619
1.158618
1.1586205
1.1586201
1.158619
1.158618
1.1586202
1.15862
1.158619
1.158618
1.1586197
1.15862
1.158619
1.158618
1.1586189
1.1586199
1.158619
1.158618
1.1586179
1.1586198
1.158619
1.1586179
1.1586165
1.1586197
1.158619
1.1586179
1.1586147
1.1586195
1.158619
1.1586179
1.1586122
1.1586193
1.1586189
1.1586179
1.1586048
1.1586187
1.1586189
1.1586179
1.1584777
1.1586131
1.1586187
1.1586179
1.155294
1.1585357
1.1586167
1.1586178
1.1524814
1.1584003
1.1586118
1.1586176
1.1501182
1.1582185
1.1586029
1.158617
1.1482541
1.1580039
1.1585896
1.1586161
1.1469049
1.1577699
1.1585716
1.1586145
1.1460545
1.1575292
1.158549
1.1586122
1.1456568
1.1572926
1.158522
1.158609
1.1456446
1.1570689
1.1584913
1.1586049
1.1459397
1.1568645
1.1584573
1.1585996
1.1464615
1.1566831
1.1584207
1.1585933
1.1471335
1.1565259
1.1583824
1.1585859
1.1478872
1.1563919
1.1583429
1.1585774
1.1486645
1.1562778
1.1583026
1.158568
1.1494195
1.1561785
1.1582612
1.1585576
1.1501235
1.1560881
1.1582101
1.1585451
1.150799
1.1559675
1.1581344
1.1585267
1.1514051
1.1557954
1.158028
1.1585007
)
;
    }
    topAir_to_rightSolid
    {
        type            calculated;
        value           nonuniform List<scalar> 
130
(
1.1203327
1.1262981
1.1321912
1.1376376
1.1424059
1.1463957
1.1496057
1.1520982
1.1539671
1.1553148
1.1562352
1.1568047
1.1570762
1.1123499
1.1201679
1.1277012
1.1344707
1.1402384
1.1449477
1.1486573
1.1514864
1.1535766
1.1550658
1.1560735
1.1566929
1.1569869
1.096295
1.108292
1.1193089
1.1287317
1.1364091
1.1424408
1.1470407
1.1504562
1.1529249
1.1546531
1.1558068
1.1565091
1.1568405
1.0726039
1.0922226
1.1087492
1.1219122
1.1320532
1.1396809
1.1453034
1.149368
1.1522448
1.154226
1.1555323
1.1563204
1.1566905
1.0455184
1.0771963
1.1001137
1.1168132
1.128985
1.1378125
1.1441576
1.1486624
1.1518085
1.1539535
1.1553575
1.1562002
1.1565948
1.0455184
1.0771964
1.1001137
1.1168132
1.128985
1.1378125
1.1441575
1.1486624
1.1518085
1.1539535
1.1553575
1.1562002
1.1565948
1.072604
1.0922226
1.1087491
1.1219122
1.1320532
1.1396809
1.1453033
1.149368
1.1522448
1.154226
1.1555323
1.1563204
1.1566905
1.0962949
1.1082919
1.1193088
1.1287316
1.136409
1.1424408
1.1470406
1.1504561
1.1529249
1.1546531
1.1558068
1.1565091
1.1568405
1.1123497
1.1201677
1.1277011
1.1344706
1.1402383
1.1449477
1.1486572
1.1514864
1.1535766
1.1550658
1.1560735
1.1566928
1.1569868
1.1203324
1.1262979
1.132191
1.1376375
1.1424058
1.1463956
1.1496056
1.1520981
1.1539671
1.1553147
1.1562352
1.1568047
1.1570762
)
;
    }
    topAir_to_heater
    {
        type            calculated;
        value           nonuniform List<scalar> 
40
(
1.1050833
1.1068004
1.1101211
1.1147824
1.0923158
1.0945171
1.0988292
1.1049736
1.06589
1.0689887
1.0752713
1.0846403
1.0245976
1.0286048
1.0373608
1.0519588
0.96843304
0.97210671
0.98146097
1.0011328
0.96843297
0.97210662
0.98146087
1.0011327
1.0245976
1.0286047
1.0373607
1.0519588
1.06589
1.0689886
1.0752712
1.0846402
1.0923158
1.0945171
1.098829
1.1049734
1.1050835
1.1068004
1.1101209
1.114782
)
;
    }
    topAir_to_leftSolid
    {
        type            calculated;
        value           nonuniform List<scalar> 
130
(
1.1586193
1.1586188
1.1586177
1.158616
1.1586134
1.1586097
1.1586046
1.1585981
1.1585901
1.1585808
1.1585709
1.1585617
1.1585548
1.1586191
1.1586185
1.1586173
1.1586153
1.1586122
1.1586077
1.1586014
1.1585929
1.158582
1.1585686
1.1585534
1.1585381
1.1585259
1.1586187
1.1586181
1.1586166
1.158614
1.1586101
1.1586042
1.1585956
1.1585834
1.1585667
1.1585445
1.1585167
1.1584847
1.1584544
1.1586184
1.1586176
1.1586158
1.1586127
1.1586079
1.1586004
1.158589
1.1585722
1.1585477
1.1585125
1.1584631
1.1583966
1.1583169
1.1586182
1.1586173
1.1586153
1.1586119
1.1586064
1.1585978
1.1585845
1.1585642
1.1585332
1.1584858
1.1584129
1.1582989
1.1581242
1.1586182
1.1586173
1.1586153
1.1586119
1.1586064
1.1585978
1.1585845
1.1585642
1.1585332
1.1584858
1.1584129
1.1582989
1.1581242
1.1586184
1.1586176
1.1586158
1.1586127
1.1586079
1.1586004
1.158589
1.1585722
1.1585477
1.1585125
1.1584631
1.1583966
1.1583169
1.1586187
1.1586181
1.1586166
1.158614
1.1586101
1.1586042
1.1585956
1.1585834
1.1585667
1.1585445
1.1585167
1.1584847
1.1584544
1.1586191
1.1586185
1.1586173
1.1586153
1.1586122
1.1586077
1.1586014
1.1585929
1.158582
1.1585686
1.1585534
1.1585381
1.1585259
1.1586193
1.1586188
1.1586177
1.158616
1.1586134
1.1586097
1.1586046
1.1585981
1.1585901
1.1585808
1.1585709
1.1585617
1.1585548
)
;
    }
}


// ************************************************************************* //
