/*--------------------------------*- C++ -*----------------------------------*\
| =========                 |                                                 |
| \\      /  F ield         | OpenFOAM: The Open Source CFD Toolbox           |
|  \\    /   O peration     | Version:  2412                                  |
|   \\  /    A nd           | Website:  www.openfoam.com                      |
|    \\/     M anipulation  |                                                 |
\*---------------------------------------------------------------------------*/
FoamFile
{
    version     2.0;
    format      ascii;
    arch        "LSB;label=32;scalar=64";
    class       volScalarField;
    location    "50/topAir";
    object      T;
}
// * * * * * * * * * * * * * * * * * * * * * * * * * * * * * * * * * * * * * //

dimensions      [0 0 0 1 0 0 0];

internalField   nonuniform List<scalar> 
1200
(
300.00003
300.00006
300.0001
300.00016
300.00025
300.00038
300.00057
300.00084
300.0012
300.00168
300.0023
300.00422
300.03714
300.86396
301.59822
302.21792
302.70854
303.06464
303.28952
303.3948
303.39803
303.31989
303.18183
303.00424
302.80529
302.60036
302.40161
302.2165
302.03911
301.88013
300
300
300
300.00001
300.00001
300.00003
300.00004
300.00007
300.0001
300.00014
300.0002
300.00034
300.00179
300.02186
300.05692
300.10401
300.15963
300.22029
300.28273
300.34412
300.40217
300.45525
300.50237
300.54321
300.57804
300.6077
300.63352
300.65703
300.68839
300.73316
300
300
300
300
300
300.00001
300.00001
300.00001
300.00001
300.00002
300.00002
300.00003
300.00008
300.0006
300.00188
300.00417
300.00761
300.01227
300.01813
300.02511
300.03308
300.04188
300.05134
300.06128
300.07151
300.08195
300.09266
300.1059
300.12551
300.1531
300
300
300
300
300.00001
300.00001
300.00001
300.00001
300.00001
300.00001
300.00001
300.00001
300.00002
300.00004
300.0001
300.00024
300.00049
300.00089
300.00148
300.00231
300.00339
300.00474
300.00638
300.0083
300.01049
300.01293
300.01562
300.01885
300.02363
300.03035
300.00003
300.00006
300.00011
300.00017
300.00027
300.00042
300.00063
300.00093
300.00134
300.00189
300.00263
300.00444
300.03429
300.90203
301.68055
302.34336
302.87188
303.25825
303.50667
303.63136
303.65223
303.59121
303.46981
303.30765
303.12176
302.92656
302.73413
302.55464
302.39255
302.24378
300
300
300
300.00001
300.00002
300.00003
300.00004
300.00007
300.0001
300.00015
300.00021
300.00033
300.00151
300.01988
300.05136
300.09366
300.1438
300.19868
300.25544
300.31165
300.36538
300.41534
300.46069
300.50109
300.53669
300.56817
300.59682
300.6246
300.65604
300.7056
300
300
300
300
300
300.00001
300.00001
300.00001
300.00001
300.00001
300.00002
300.00003
300.00007
300.00046
300.00145
300.0032
300.00582
300.00938
300.01385
300.01919
300.02532
300.03215
300.03957
300.04752
300.05597
300.06493
300.07454
300.08517
300.09928
300.12144
300
300
300
300
300
300.00001
300.00001
300.00001
300.00001
300.00001
300.00001
300.00001
300.00001
300.00003
300.00007
300.00015
300.00031
300.00057
300.00094
300.00146
300.00215
300.00303
300.00412
300.00545
300.00706
300.00901
300.01143
300.01457
300.01913
300.02618
300.00003
300.00007
300.00012
300.0002
300.00032
300.0005
300.00078
300.00118
300.00175
300.00256
300.00369
300.00638
300.04764
301.26255
302.34276
303.2508
303.95622
304.44424
304.72899
304.84128
304.81737
304.69251
304.49801
304.26032
304.00117
303.73817
303.48554
303.25462
303.04274
302.85238
300
300
300
300.00001
300.00002
300.00003
300.00005
300.00008
300.00013
300.00019
300.00027
300.00044
300.00198
300.02637
300.06914
300.1265
300.19409
300.2678
300.34389
300.41932
300.49179
300.55965
300.62201
300.67866
300.73019
300.77804
300.82478
300.87438
300.93794
301.0321
300
300
300
300
300
300.00001
300.00001
300.00001
300.00001
300.00002
300.00002
300.00003
300.00008
300.00059
300.00188
300.00418
300.00763
300.0123
300.01822
300.02538
300.03377
300.04339
300.05429
300.06664
300.08075
300.09722
300.11712
300.14237
300.18177
300.24062
300
300
300
300
300
300.00001
300.00001
300.00001
300.00001
300.00001
300.00001
300.00001
300.00001
300.00003
300.00008
300.00019
300.00039
300.00071
300.00119
300.00187
300.0028
300.00404
300.00569
300.0079
300.01092
300.01523
300.02163
300.03168
300.04875
300.07492
300.00004
300.00008
300.00014
300.00023
300.00038
300.0006
300.00095
300.00147
300.00226
300.00342
300.00517
300.00948
300.072
301.8949
303.5169
304.87921
305.91632
306.57371
306.90531
306.986
306.88465
306.65762
306.34888
305.99184
305.61152
305.22647
304.85055
304.49445
304.1664
303.88066
300
300
300.00001
300.00001
300.00002
300.00004
300.00006
300.0001
300.00016
300.00024
300.00036
300.0006
300.00286
300.03913
300.10538
300.19983
300.31949
300.45789
300.60794
300.7622
300.91494
301.06199
301.20081
301.33043
301.45153
301.56642
301.67936
301.79717
301.93085
302.09469
300
300
300
300
300
300.00001
300.00001
300.00001
300.00001
300.00002
300.00003
300.00004
300.00011
300.00088
300.00286
300.00655
300.0124
300.02082
300.03218
300.04749
300.06734
300.09236
300.12339
300.16168
300.20897
300.26818
300.34382
300.44275
300.57509
300.74855
300
300
300
300
300
300.00001
300.00001
300.00001
300.00001
300.00001
300.00001
300.00001
300.00002
300.00004
300.00012
300.00029
300.00062
300.00118
300.00209
300.0035
300.00565
300.00887
300.01368
300.02085
300.03198
300.04919
300.07577
300.11678
300.1793
300.26721
300.00004
300.00008
300.00015
300.00025
300.00041
300.00067
300.00106
300.00168
300.00263
300.0041
300.00644
300.01278
300.10587
302.82253
305.25039
307.31464
308.87606
309.6439
309.90673
309.84275
309.56788
309.16051
308.67484
308.14871
307.60852
307.07256
306.55349
306.0602
305.59957
305.18802
300
300
300.00001
300.00001
300.00002
300.00004
300.00007
300.00011
300.00018
300.00028
300.00042
300.00076
300.00414
300.05952
300.1764
300.36682
300.63529
300.95907
301.31631
301.68726
302.05522
302.40703
302.73301
303.02662
303.28411
303.50413
303.68733
303.83607
303.95368
304.04401
300
300
300
300
300
300.00001
300.00001
300.00001
300.00001
300.00002
300.00003
300.00004
300.00015
300.00132
300.00467
300.01196
300.02699
300.05362
300.09534
300.15532
300.23592
300.33863
300.46402
300.61206
300.78237
300.97484
301.1903
301.4315
301.70385
302.00744
300
300
300
300
300
300.00001
300.00001
300.00001
300.00001
300.00001
300.00001
300.00001
300.00002
300.00005
300.00018
300.0005
300.0012
300.00262
300.00554
300.01098
300.02031
300.03529
300.05801
300.09104
300.13743
300.20103
300.28698
300.40254
300.55799
300.75886
300.00004
300.00008
300.00015
300.00025
300.00041
300.00067
300.00106
300.00168
300.00263
300.0041
300.00644
300.01278
300.10587
302.82254
305.2504
307.31465
308.87606
309.6439
309.90673
309.84275
309.56788
309.16051
308.67484
308.14871
307.60852
307.07257
306.5535
306.06021
305.59957
305.18802
300
300
300.00001
300.00001
300.00002
300.00004
300.00007
300.00011
300.00018
300.00028
300.00042
300.00076
300.00414
300.05952
300.1764
300.36682
300.63529
300.95907
301.31632
301.68726
302.05522
302.40703
302.73301
303.02662
303.28412
303.50413
303.68734
303.83608
303.95368
304.04401
300
300
300
300
300
300.00001
300.00001
300.00001
300.00001
300.00002
300.00003
300.00004
300.00015
300.00132
300.00467
300.01196
300.02699
300.05362
300.09534
300.15532
300.23593
300.33863
300.46403
300.61206
300.78238
300.97484
301.1903
301.4315
301.70386
302.00745
300
300
300
300
300
300.00001
300.00001
300.00001
300.00001
300.00001
300.00001
300.00001
300.00002
300.00005
300.00018
300.0005
300.0012
300.00262
300.00554
300.01098
300.02031
300.03529
300.05801
300.09104
300.13743
300.20104
300.28698
300.40254
300.558
300.75887
300.00004
300.00008
300.00014
300.00023
300.00038
300.0006
300.00095
300.00147
300.00226
300.00342
300.00517
300.00948
300.072
301.8949
303.5169
304.87921
305.91633
306.57371
306.90531
306.98601
306.88465
306.65762
306.34888
305.99185
305.61152
305.22647
304.85056
304.49445
304.16641
303.88067
300
300
300.00001
300.00001
300.00002
300.00004
300.00006
300.0001
300.00016
300.00024
300.00036
300.0006
300.00286
300.03913
300.10538
300.19983
300.31949
300.45789
300.60794
300.7622
300.91494
301.06199
301.20081
301.33043
301.45153
301.56642
301.67936
301.79717
301.93085
302.09469
300
300
300
300
300
300.00001
300.00001
300.00001
300.00001
300.00002
300.00003
300.00004
300.00011
300.00088
300.00286
300.00655
300.0124
300.02082
300.03218
300.04749
300.06734
300.09236
300.12339
300.16168
300.20897
300.26818
300.34382
300.44275
300.57509
300.74855
300
300
300
300
300
300.00001
300.00001
300.00001
300.00001
300.00001
300.00001
300.00001
300.00002
300.00004
300.00012
300.00029
300.00062
300.00118
300.00209
300.0035
300.00565
300.00887
300.01368
300.02085
300.03198
300.04919
300.07577
300.11678
300.1793
300.26721
300.00003
300.00007
300.00012
300.0002
300.00032
300.0005
300.00078
300.00118
300.00175
300.00256
300.00369
300.00638
300.04764
301.26255
302.34276
303.2508
303.95622
304.44425
304.72899
304.84129
304.81737
304.69251
304.49801
304.26032
304.00118
303.73817
303.48555
303.25463
303.04275
302.85238
300
300
300
300.00001
300.00002
300.00003
300.00005
300.00008
300.00013
300.00019
300.00027
300.00044
300.00198
300.02637
300.06914
300.1265
300.19409
300.2678
300.34389
300.41932
300.49179
300.55965
300.62201
300.67866
300.73019
300.77804
300.82478
300.87438
300.93794
301.0321
300
300
300
300
300
300.00001
300.00001
300.00001
300.00001
300.00002
300.00002
300.00003
300.00008
300.00059
300.00188
300.00418
300.00763
300.0123
300.01822
300.02538
300.03377
300.04339
300.05429
300.06664
300.08075
300.09722
300.11712
300.14237
300.18177
300.24062
300
300
300
300
300
300.00001
300.00001
300.00001
300.00001
300.00001
300.00001
300.00001
300.00001
300.00003
300.00008
300.00019
300.00039
300.00071
300.00119
300.00187
300.0028
300.00404
300.00569
300.0079
300.01092
300.01523
300.02163
300.03168
300.04875
300.07492
300.00003
300.00006
300.00011
300.00017
300.00027
300.00042
300.00063
300.00093
300.00134
300.00189
300.00263
300.00444
300.03429
300.90203
301.68055
302.34337
302.87189
303.25826
303.50668
303.63137
303.65224
303.59122
303.46982
303.30766
303.12178
302.92657
302.73414
302.55465
302.39257
302.24379
300
300
300
300.00001
300.00002
300.00003
300.00004
300.00007
300.0001
300.00015
300.00021
300.00033
300.00151
300.01988
300.05136
300.09366
300.1438
300.19868
300.25544
300.31165
300.36538
300.41534
300.46069
300.50109
300.53669
300.56817
300.59682
300.6246
300.65604
300.7056
300
300
300
300
300
300.00001
300.00001
300.00001
300.00001
300.00001
300.00002
300.00003
300.00007
300.00046
300.00145
300.0032
300.00582
300.00938
300.01385
300.01919
300.02532
300.03215
300.03957
300.04753
300.05597
300.06493
300.07454
300.08517
300.09928
300.12144
300
300
300
300
300
300.00001
300.00001
300.00001
300.00001
300.00001
300.00001
300.00001
300.00001
300.00003
300.00007
300.00015
300.00031
300.00057
300.00094
300.00146
300.00215
300.00303
300.00412
300.00545
300.00706
300.00901
300.01143
300.01457
300.01913
300.02618
300.00003
300.00006
300.0001
300.00016
300.00025
300.00038
300.00057
300.00084
300.0012
300.00168
300.0023
300.00422
300.03714
300.86396
301.59822
302.21793
302.70855
303.06465
303.28953
303.39481
303.39804
303.3199
303.18184
303.00426
302.80531
302.60038
302.40163
302.21651
302.03912
301.88014
300
300
300
300.00001
300.00001
300.00003
300.00004
300.00007
300.0001
300.00014
300.0002
300.00034
300.00179
300.02186
300.05692
300.10401
300.15963
300.22029
300.28273
300.34412
300.40217
300.45525
300.50237
300.54321
300.57804
300.6077
300.63352
300.65703
300.68839
300.73317
300
300
300
300
300
300.00001
300.00001
300.00001
300.00001
300.00002
300.00002
300.00003
300.00008
300.0006
300.00188
300.00417
300.00761
300.01227
300.01813
300.02511
300.03308
300.04188
300.05134
300.06128
300.07151
300.08196
300.09266
300.1059
300.12551
300.1531
300
300
300
300
300.00001
300.00001
300.00001
300.00001
300.00001
300.00001
300.00001
300.00001
300.00002
300.00004
300.0001
300.00024
300.00049
300.00089
300.00148
300.00231
300.00339
300.00474
300.00638
300.0083
300.01049
300.01293
300.01562
300.01885
300.02363
300.03035
)
;

boundaryField
{
    maxY
    {
        type            zeroGradient;
    }
    minX
    {
        type            fixedValue;
        value           uniform 300;
    }
    maxX
    {
        type            inletOutlet;
        inletValue      uniform 300;
        value           nonuniform List<scalar> 
40
(
301.87767
300.73218
300.15285
300.0303
302.24129
300.70486
300.1213
300.02615
302.84979
301.03126
300.2404
300.07484
303.87785
302.09331
300.74796
300.26695
305.185
304.04176
302.00611
300.75824
305.18501
304.04176
302.00611
300.75825
303.87786
302.09331
300.74796
300.26695
302.84979
301.03126
300.2404
300.07484
302.2413
300.70486
300.1213
300.02615
301.87768
300.73218
300.15285
300.0303
)
;
    }
    minZ
    {
        type            zeroGradient;
    }
    maxZ
    {
        type            zeroGradient;
    }
    topAir_to_rightSolid
    {
        type            compressible::turbulentTemperatureRadCoupledMixed;
        refValue        nonuniform List<scalar> 
130
(
310.25523
308.61139
307.00451
305.53426
304.25861
303.1994
302.35256
301.69831
301.20959
300.85819
300.61867
300.47068
300.40021
312.48241
310.30074
308.22716
306.38736
304.83708
303.58287
302.6022
301.85855
301.31149
300.92295
300.66062
300.49963
300.42329
317.05968
313.62644
310.53853
307.94529
305.86426
304.24892
303.02849
302.12867
301.48161
301.03029
300.72979
300.54719
300.46112
324.06418
318.24142
313.49634
309.81706
307.04089
304.98535
303.48777
302.41429
301.65912
301.14128
300.80086
300.59587
300.49977
332.46106
322.68111
315.95702
311.23118
307.87479
305.48559
303.79109
302.59946
301.77285
301.21187
300.84589
300.62668
300.52422
332.46105
322.68109
315.95702
311.23117
307.87479
305.48559
303.7911
302.59946
301.77285
301.21187
300.84589
300.62668
300.52422
324.06417
318.24141
313.49635
309.81707
307.0409
304.98536
303.48779
302.41429
301.65912
301.14128
300.80086
300.59588
300.49977
317.05971
313.62646
310.53855
307.94532
305.86428
304.24894
303.02852
302.12867
301.48161
301.0303
300.72979
300.5472
300.46113
312.48247
310.30079
308.2272
306.3874
304.83711
303.5829
302.60224
301.85856
301.3115
300.92296
300.66062
300.49963
300.4233
310.25531
308.61145
307.00456
305.5343
304.25864
303.19943
302.3526
301.69832
301.2096
300.8582
300.61868
300.47068
300.40022
)
;
        refGradient     uniform 0;
        valueFraction   uniform 0.99967867;
        source          uniform 0;
        logInterval     -1;
        writePrecision  8;
        updateHeader    1;
        writeToFile     0;
        useUserTime     1;
        kappaMethod     fluidThermo;
        value           nonuniform List<scalar> 
130
(
310.25292
308.60967
307.00335
305.53357
304.2583
303.1994
302.35277
301.69866
301.21003
300.85869
300.61918
300.47118
300.40069
312.47945
310.29856
308.22568
306.38648
304.83668
303.58284
302.60243
301.85895
301.312
300.92353
300.66122
300.50024
300.42388
317.05562
313.62358
310.53669
307.94429
305.86388
304.249
303.02889
302.12927
301.48233
301.03108
300.7306
300.54799
300.46189
324.05856
318.23778
313.49425
309.81612
307.04077
304.98579
303.48857
302.41532
301.66027
301.14247
300.80205
300.59702
300.50086
332.45372
322.677
315.95505
311.23064
307.8752
305.48662
303.79249
302.60107
301.77455
301.21358
300.84757
300.62827
300.52571
332.45372
322.67699
315.95506
311.23063
307.8752
305.48662
303.7925
302.60107
301.77455
301.21358
300.84757
300.62828
300.52572
324.05855
318.23777
313.49426
309.81613
307.04077
304.9858
303.4886
302.41532
301.66027
301.14247
300.80205
300.59702
300.50086
317.05566
313.6236
310.53672
307.94431
305.8639
304.24902
303.02892
302.12928
301.48234
301.03109
300.7306
300.548
300.4619
312.47951
310.2986
308.22572
306.38652
304.8367
303.58286
302.60246
301.85897
301.31202
300.92354
300.66123
300.50024
300.42388
310.253
308.60974
307.0034
305.53361
304.25833
303.19942
302.3528
301.69868
301.21005
300.85869
300.61919
300.47118
300.40069
)
;
    }
    topAir_to_heater
    {
        type            compressible::turbulentTemperatureRadCoupledMixed;
        refValue        nonuniform List<scalar> 
40
(
314.5386
314.05022
313.11033
311.80053
318.2162
317.57573
316.32891
314.56917
326.10777
325.16184
323.26112
320.46774
339.25396
337.93142
335.07779
330.42621
358.93442
357.57683
354.16718
347.2055
358.93445
357.57686
354.16722
347.20553
339.25397
337.93144
335.07782
330.42624
326.10777
325.16185
323.26116
320.46778
318.21619
317.57575
316.32895
314.56923
314.53855
314.05023
313.11039
311.80063
)
;
        refGradient     uniform 0;
        valueFraction   uniform 0.99967867;
        source          uniform 0;
        logInterval     -1;
        writePrecision  8;
        updateHeader    1;
        writeToFile     0;
        useUserTime     1;
        kappaMethod     fluidThermo;
        value           nonuniform List<scalar> 
40
(
314.53421
314.04622
313.10683
311.79761
318.21063
317.57062
316.32441
314.56541
326.09978
325.1545
323.25469
320.46244
339.24196
337.92036
335.06809
330.41834
358.91639
357.56001
354.15212
347.19318
358.91642
357.56005
354.15216
347.19322
339.24197
337.92038
335.06811
330.41836
326.09979
325.15452
323.25473
320.46248
318.21062
317.57064
316.32445
314.56547
314.53415
314.04623
313.10689
311.79771
)
;
    }
    topAir_to_leftSolid
    {
        type            compressible::turbulentTemperatureRadCoupledMixed;
        refValue        nonuniform List<scalar> 
130
(
300.00062
300.00075
300.00102
300.00147
300.00215
300.00311
300.00441
300.00609
300.00817
300.01058
300.01314
300.01553
300.0173
300.00067
300.00082
300.00114
300.00166
300.00247
300.00363
300.00526
300.00744
300.01027
300.01374
300.01768
300.02165
300.0248
300.00076
300.00094
300.00133
300.00198
300.003
300.00453
300.00675
300.0099
300.01424
300.01998
300.02719
300.03547
300.0433
300.00086
300.00107
300.00152
300.00231
300.00358
300.00552
300.00845
300.0128
300.01916
300.02828
300.04108
300.0583
300.07893
300.00092
300.00115
300.00165
300.00253
300.00396
300.00619
300.00963
300.0149
300.02293
300.03519
300.05408
300.08361
300.12887
300.00092
300.00115
300.00165
300.00253
300.00396
300.00619
300.00963
300.0149
300.02293
300.03519
300.05408
300.08361
300.12887
300.00086
300.00107
300.00152
300.00231
300.00358
300.00552
300.00845
300.0128
300.01916
300.02828
300.04108
300.0583
300.07893
300.00076
300.00094
300.00133
300.00198
300.003
300.00453
300.00675
300.0099
300.01424
300.01998
300.02719
300.03547
300.0433
300.00067
300.00082
300.00114
300.00166
300.00247
300.00363
300.00526
300.00744
300.01027
300.01374
300.01768
300.02165
300.0248
300.00062
300.00075
300.00102
300.00147
300.00215
300.00311
300.00441
300.00609
300.00817
300.01058
300.01314
300.01553
300.0173
)
;
        refGradient     uniform 0;
        valueFraction   uniform 0.99967867;
        source          uniform 0;
        logInterval     -1;
        writePrecision  8;
        updateHeader    1;
        writeToFile     0;
        useUserTime     1;
        kappaMethod     fluidThermo;
        value           nonuniform List<scalar> 
130
(
300.00062
300.00075
300.00102
300.00147
300.00215
300.00311
300.00441
300.00609
300.00817
300.01058
300.01314
300.01553
300.01731
300.00067
300.00082
300.00113
300.00166
300.00246
300.00363
300.00525
300.00744
300.01027
300.01373
300.01767
300.02165
300.0248
300.00076
300.00094
300.00133
300.00198
300.003
300.00453
300.00675
300.0099
300.01423
300.01997
300.02718
300.03547
300.0433
300.00086
300.00107
300.00152
300.00231
300.00358
300.00552
300.00845
300.0128
300.01915
300.02828
300.04107
300.05828
300.07893
300.00092
300.00114
300.00165
300.00253
300.00395
300.00619
300.00963
300.01489
300.02292
300.03518
300.05407
300.08358
300.12886
300.00092
300.00114
300.00165
300.00253
300.00395
300.00619
300.00963
300.01489
300.02292
300.03518
300.05407
300.08358
300.12886
300.00086
300.00107
300.00152
300.00231
300.00358
300.00552
300.00845
300.0128
300.01915
300.02828
300.04107
300.05828
300.07893
300.00076
300.00094
300.00133
300.00198
300.003
300.00453
300.00675
300.0099
300.01423
300.01997
300.02718
300.03547
300.0433
300.00067
300.00082
300.00113
300.00166
300.00246
300.00363
300.00525
300.00744
300.01027
300.01373
300.01767
300.02165
300.0248
300.00062
300.00075
300.00102
300.00147
300.00215
300.00311
300.00441
300.00609
300.00817
300.01058
300.01314
300.01553
300.01731
)
;
    }
}


// ************************************************************************* //
