/*--------------------------------*- C++ -*----------------------------------*\
| =========                 |                                                 |
| \\      /  F ield         | OpenFOAM: The Open Source CFD Toolbox           |
|  \\    /   O peration     | Version:  2412                                  |
|   \\  /    A nd           | Website:  www.openfoam.com                      |
|    \\/     M anipulation  |                                                 |
\*---------------------------------------------------------------------------*/
FoamFile
{
    version     2.0;
    format      ascii;
    arch        "LSB;label=32;scalar=64";
    class       volVectorField;
    location    "50/topAir";
    object      U;
}
// * * * * * * * * * * * * * * * * * * * * * * * * * * * * * * * * * * * * * //

dimensions      [0 1 -1 0 0 0 0];

internalField   nonuniform List<vector> 
1200
(
(0.097233296 0.00096695249 0.0008031153)
(0.096231486 0.0013014785 0.0012044624)
(0.09438089 0.0013369157 0.0013598132)
(0.091902503 0.001306636 0.0014234131)
(0.089366295 0.0012570935 0.0014451869)
(0.08696624 0.0011898651 0.0014348475)
(0.084694867 0.001110119 0.0013995486)
(0.082530449 0.0010235528 0.0013478363)
(0.080478321 0.00093138893 0.0012866156)
(0.078558054 0.00082909161 0.0012206521)
(0.0767987 0.0007026169 0.0011538197)
(0.075256063 0.00051585464 0.001090479)
(0.074055883 0.00020234478 0.0010345342)
(0.073200596 7.3850941e-05 0.0010024812)
(0.072494384 -1.4191795e-05 0.0010077693)
(0.071782524 -9.5089692e-05 0.0010431477)
(0.071007616 -0.00017747889 0.0010988479)
(0.070163908 -0.00026819542 0.0011657616)
(0.069259864 -0.00037131298 0.0012357948)
(0.068310637 -0.00048622925 0.0013021938)
(0.0673362 -0.00060799482 0.0013595257)
(0.066356903 -0.00072766347 0.0014028564)
(0.065387184 -0.00083133972 0.0014269024)
(0.064429312 -0.00089932532 0.0014248666)
(0.063467632 -0.00090493658 0.0013872757)
(0.062461387 -0.00081203826 0.0013003636)
(0.061339075 -0.00058290345 0.0011443783)
(0.059952014 -0.0001676003 0.00089145561)
(0.058197664 0.00059914199 0.00050203484)
(0.05408705 0.0022752524 7.5964133e-06)
(0.099370834 0.00097841359 0.00082902567)
(0.10013456 0.0013327521 0.0012581889)
(0.10060735 0.0014039222 0.0014416628)
(0.10061311 0.0014143126 0.0015342923)
(0.10044037 0.0014015123 0.0015840189)
(0.10024225 0.0013655063 0.0016006452)
(0.10002834 0.0013105705 0.0015916935)
(0.099783216 0.0012399941 0.0015654654)
(0.099509172 0.0011512606 0.0015282477)
(0.099217671 0.0010350659 0.0014838661)
(0.098914601 0.00087288305 0.0014343569)
(0.098586807 0.00063090797 0.0013807003)
(0.098201201 0.00026804387 0.001323657)
(0.09776293 7.9795617e-05 0.0012599327)
(0.097372048 -5.4474313e-05 0.001191534)
(0.097030342 -0.00017450301 0.0011226309)
(0.096724081 -0.00029191132 0.0010532584)
(0.096446187 -0.00041423148 0.00098353116)
(0.096192085 -0.00054626783 0.00091360914)
(0.095955989 -0.00068742894 0.00084294224)
(0.095732342 -0.00083162449 0.00077007646)
(0.095518558 -0.00096713024 0.00069177456)
(0.095316153 -0.0010739947 0.00060460656)
(0.095131443 -0.001121297 0.00050395093)
(0.094976725 -0.0010679323 0.00038383785)
(0.094867664 -0.00085684925 0.00023562102)
(0.094865466 -0.00041025936 5.5476621e-05)
(0.095000453 0.00037566392 -0.00015727971)
(0.095197023 0.0017040611 -0.00039485596)
(0.095647103 0.0039270409 -0.00060936816)
(0.099370644 -0.00097990219 0.00082902595)
(0.10013367 -0.0013361739 0.0012581878)
(0.10060493 -0.0014103825 0.0014416563)
(0.10060782 -0.0014258799 0.0015342682)
(0.10042988 -0.0014217838 0.0015839491)
(0.10022255 -0.0014006256 0.001600469)
(0.099992545 -0.0013709049 0.0015912878)
(0.09971978 -0.001342848 0.0015645946)
(0.099399299 -0.0013251939 0.0015264917)
(0.099032381 -0.0013265555 0.0014805537)
(0.09861431 -0.0013558872 0.0014285985)
(0.098131127 -0.0014174933 0.0013714311)
(0.097567948 -0.0014941628 0.0013095206)
(0.096935062 -0.0015269199 0.0012414874)
(0.096277062 -0.001528545 0.0011677036)
(0.095630095 -0.0015203157 0.0010899509)
(0.095007598 -0.0015107295 0.0010092434)
(0.094416033 -0.0015030148 0.00092589324)
(0.093861346 -0.0014990878 0.00083903904)
(0.093349312 -0.0014970163 0.00074723601)
(0.09288705 -0.0014905509 0.00064694815)
(0.092486617 -0.0014720709 0.00053555923)
(0.092167637 -0.0014316897 0.00040829237)
(0.091985809 -0.0013513641 0.00025683121)
(0.092007427 -0.0012013832 7.7142869e-05)
(0.092299532 -0.00093506836 -0.00013039641)
(0.09294934 -0.00047230978 -0.00035969995)
(0.094064419 0.00030738006 -0.0005897184)
(0.095771826 0.0015257099 -0.00079208978)
(0.099471511 0.0031682724 -0.00097258444)
(0.097232906 -0.00096749125 0.00080311104)
(0.096229733 -0.00130271 0.0012044462)
(0.094376365 -0.0013392262 0.0013597729)
(0.091893021 -0.0013107352 0.0014233195)
(0.08934822 -0.0012642188 0.0014449762)
(0.086933442 -0.0012021468 0.0014343859)
(0.084637024 -0.0011311967 0.0013985619)
(0.082430224 -0.0010596499 0.0013457787)
(0.080306623 -0.00099328151 0.0012824191)
(0.07826584 -0.0009359814 0.0012122376)
(0.076301657 -0.0008905626 0.001137119)
(0.07440231 -0.00085762389 0.0010577405)
(0.072557335 -0.00083219648 0.00097390985)
(0.070768699 -0.00080316443 0.00088485207)
(0.069058967 -0.00076722224 0.00079062755)
(0.067457167 -0.00073061913 0.00069258249)
(0.065979757 -0.0006972809 0.00059268591)
(0.064632668 -0.00066833778 0.00049234051)
(0.063421479 -0.00064426315 0.00038668679)
(0.062353474 -0.00062299399 0.00027287253)
(0.061449467 -0.0006000531 0.00014261855)
(0.060737608 -0.00057303535 -9.0620695e-06)
(0.060234623 -0.00054276616 -0.00018118022)
(0.05997478 -0.00050742572 -0.000375412)
(0.060008688 -0.00045540192 -0.00059365259)
(0.060412785 -0.00036455284 -0.00083549514)
(0.061292495 -0.00019524371 -0.0010960193)
(0.062815632 0.0001191 -0.0013532073)
(0.065311472 0.00060342657 -0.0015416538)
(0.07053975 0.0012588224 -0.0016828432)
(0.098509518 0.00099081944 0.0010632139)
(0.098435712 0.0013455816 0.0016303608)
(0.097922905 0.0013979304 0.0018719676)
(0.096982271 0.0013836506 0.0019876466)
(0.095961503 0.001347994 0.0020453186)
(0.094996465 0.001292561 0.0020583798)
(0.094084266 0.0012230305 0.0020362629)
(0.093206994 0.0011454453 0.0019904964)
(0.092366703 0.0010612955 0.0019304575)
(0.091579331 0.00096639333 0.0018627832)
(0.090871489 0.00084733837 0.0017935744)
(0.090293849 0.00067039973 0.0017314033)
(0.089977542 0.00037261536 0.0016919429)
(0.089943361 0.0002229683 0.001725604)
(0.089985646 8.6952282e-05 0.0018669178)
(0.0899702 -5.3664501e-05 0.0021031357)
(0.089843294 -0.0002008503 0.0024042065)
(0.089599594 -0.00035655046 0.0027395813)
(0.089249115 -0.00052062603 0.0030823766)
(0.088809572 -0.0006897013 0.0034107988)
(0.088303207 -0.00085780797 0.0037079285)
(0.087752673 -0.0010176356 0.0039597399)
(0.087174657 -0.0011574408 0.0041522187)
(0.086574926 -0.0012609525 0.0042688902)
(0.08594313 -0.0013055179 0.0042884627)
(0.085246492 -0.0012603713 0.0041822325)
(0.0844159 -0.0010791766 0.0039128503)
(0.083303457 -0.00069343395 0.003436868)
(0.081603223 4.3516712e-05 0.0027015247)
(0.077715987 0.0016789542 0.0016246336)
(0.10070549 0.00099820416 0.0010952606)
(0.10245564 0.0013588762 0.0016844042)
(0.10433494 0.001429814 0.0019454432)
(0.1059612 0.0014394779 0.002083687)
(0.10740952 0.001426688 0.0021668014)
(0.10877939 0.0013916205 0.0022076469)
(0.11008564 0.0013386747 0.0022152122)
(0.11131734 0.0012713367 0.0022001239)
(0.11247486 0.0011874343 0.002170408)
(0.11356717 0.0010782292 0.0021304979)
(0.11459989 0.00092616518 0.0020818458)
(0.11556291 0.00069937018 0.0020223257)
(0.11643054 0.00035739561 0.0019434915)
(0.1172162 0.00015939013 0.0018315832)
(0.1180278 -1.1162006e-05 0.0016929676)
(0.11885492 -0.00018419405 0.0015376466)
(0.11968225 -0.00036485703 0.0013742093)
(0.12050672 -0.00055633629 0.001210546)
(0.12132579 -0.00076060275 0.0010515364)
(0.12213449 -0.00097528971 0.00089839555)
(0.12292682 -0.0011952308 0.00074892967)
(0.12370303 -0.0014091833 0.00059760136)
(0.12446625 -0.0016013013 0.00043500505)
(0.12522152 -0.0017489121 0.00024817451)
(0.12597782 -0.0018151267 2.0320249e-05)
(0.12674874 -0.0017437509 -0.00027038436)
(0.12752576 -0.0014507286 -0.00064667277)
(0.12836633 -0.00081342123 -0.0011353646)
(0.12941202 0.00036731165 -0.0017374568)
(0.131042 0.002437406 -0.0023441635)
(0.1007053 -0.00099972096 0.0010952467)
(0.10245474 -0.0013623611 0.001684374)
(0.10433253 -0.0014363648 0.0019453826)
(0.10595597 -0.0014511346 0.002083559)
(0.10739922 -0.0014469701 0.0021665261)
(0.10876019 -0.001426492 0.0022070593)
(0.11005101 -0.0013981341 0.0022139833)
(0.11125646 -0.0013719774 0.0021976263)
(0.11237027 -0.0013565009 0.0021655052)
(0.11339227 -0.0013598341 0.0021212999)
(0.11431874 -0.0013901568 0.0020657119)
(0.11513905 -0.0014513559 0.0019969662)
(0.11584262 -0.0015285314 0.0019109932)
(0.11644261 -0.0015690329 0.0018015593)
(0.11698336 -0.0015856151 0.0016649305)
(0.11749951 -0.0016001231 0.0015024933)
(0.11800392 -0.0016185006 0.0013174847)
(0.11850315 -0.0016425449 0.0011132518)
(0.11900204 -0.0016775717 0.00089135831)
(0.11950569 -0.0017235232 0.00065000925)
(0.12002463 -0.0017793134 0.0003848557)
(0.1205684 -0.0018382981 9.0728823e-05)
(0.12115255 -0.0018879096 -0.00024029371)
(0.12178301 -0.0019087418 -0.00061866969)
(0.12248718 -0.0018702896 -0.0010542231)
(0.12332972 -0.0017239314 -0.0015566175)
(0.12440758 -0.0013960475 -0.0021323753)
(0.12587291 -0.00077526876 -0.0027759749)
(0.12794943 0.00027195371 -0.0034629114)
(0.13207647 0.0017393703 -0.0040885893)
(0.098509128 -0.00099136778 0.0010631827)
(0.098433961 -0.0013468353 0.0016302911)
(0.097918408 -0.0014002746 0.0018718258)
(0.096972905 -0.0013877883 0.0019873495)
(0.095943758 -0.0013551425 0.0020446866)
(0.094964467 -0.0013048008 0.0020570389)
(0.094028195 -0.0012438958 0.0020334526)
(0.093110476 -0.0011809525 0.0019846998)
(0.092202454 -0.0011218271 0.0019186933)
(0.091301703 -0.0010704119 0.0018392467)
(0.090403069 -0.0010294432 0.0017470203)
(0.089498239 -0.00099957364 0.0016402561)
(0.088581378 -0.00097668077 0.0015151114)
(0.087659215 -0.00095127449 0.001366407)
(0.086757891 -0.00092084868 0.0011901421)
(0.085909147 -0.00089159585 0.00098589591)
(0.085132321 -0.00086618859 0.00075646414)
(0.084430048 -0.00084460349 0.00050434293)
(0.08381396 -0.00083098469 0.00023136826)
(0.083292603 -0.00082458069 -6.7808681e-05)
(0.082855706 -0.00082436034 -0.00040099466)
(0.082496027 -0.00082818498 -0.00077398973)
(0.082232627 -0.00082806735 -0.0011919642)
(0.082092309 -0.00081243136 -0.0016629249)
(0.082121844 -0.000768667 -0.0021968573)
(0.08239742 -0.00067810797 -0.0028019809)
(0.083037198 -0.00050906894 -0.0034777491)
(0.084202923 -0.00021014398 -0.0042012819)
(0.086189788 0.000257714 -0.004925139)
(0.091017957 0.00090543023 -0.0055600655)
(0.098381052 0.00098586088 0.0004118867)
(0.098083032 0.0013346962 0.00070891812)
(0.097480334 0.0013807647 0.00088415416)
(0.096594661 0.0013617695 0.00099159471)
(0.095700913 0.0013228855 0.0010629467)
(0.094896632 0.0012650787 0.0011068339)
(0.094171646 0.0011937451 0.0011271043)
(0.093505341 0.001114663 0.0011291257)
(0.092894814 0.0010286474 0.0011186843)
(0.092352325 0.0009297974 0.0011015369)
(0.09190599 0.00080037308 0.0010855156)
(0.091617771 0.00059579526 0.0010855136)
(0.091656784 0.00023482732 0.0011324966)
(0.092053566 0.00010414846 0.0013168805)
(0.092558164 1.5272649e-05 0.0016928707)
(0.092952814 -7.198565e-05 0.0022366501)
(0.093166278 -0.00016476447 0.0028927966)
(0.093200528 -0.00027077809 0.0036029335)
(0.093078317 -0.00039536526 0.0043186599)
(0.092830135 -0.00053865152 0.0050055254)
(0.092487348 -0.00069601509 0.0056397975)
(0.092073655 -0.00085746299 0.0062030122)
(0.091599805 -0.0010094146 0.0066771486)
(0.091058272 -0.0011317592 0.0070412223)
(0.090416477 -0.0011950341 0.0072675237)
(0.089609229 -0.0011576386 0.0073163642)
(0.088531918 -0.00096283446 0.0071275434)
(0.086992612 -0.00053739613 0.006605361)
(0.084800962 0.00031129623 0.0055520282)
(0.079747486 0.0022533646 0.0038102822)
(0.10057417 0.00099765913 0.00042418783)
(0.10210067 0.0013584714 0.00073564909)
(0.10389326 0.0014265926 0.00092655563)
(0.10557729 0.0014327929 0.0010520664)
(0.10715408 0.0014168158 0.0011436002)
(0.1086861 0.0013786218 0.0012093319)
(0.11018175 0.0013223326 0.0012526768)
(0.11162784 0.0012510598 0.0012781252)
(0.11301957 0.0011617747 0.0012897672)
(0.11435996 0.0010438341 0.0012897715)
(0.11564776 0.00087571969 0.0012772178)
(0.11686205 0.0006177062 0.0012444357)
(0.11796432 0.00022021134 0.0011699607)
(0.11897302 4.7962828e-05 0.0010224559)
(0.12000831 -6.381272e-05 0.00081455807)
(0.12107758 -0.00016611459 0.00056443358)
(0.12216771 -0.00027329528 0.00029708634)
(0.12326788 -0.00039663032 3.3883391e-05)
(0.12436554 -0.0005447518 -0.0002107776)
(0.12544634 -0.00072043257 -0.00043153886)
(0.12649736 -0.00091838818 -0.00062835492)
(0.12750376 -0.0011275028 -0.00080595443)
(0.12845292 -0.0013276628 -0.00097738154)
(0.12933663 -0.0014870945 -0.0011638402)
(0.13014811 -0.0015567955 -0.0013954339)
(0.13088049 -0.0014627537 -0.0017134179)
(0.13152566 -0.0010949701 -0.0021748522)
(0.13213177 -0.0002938505 -0.0028525322)
(0.13270413 0.0012082866 -0.0038095865)
(0.13346784 0.0038873392 -0.0050206954)
(0.10057397 -0.00099923167 0.00042415865)
(0.10209973 -0.0013620952 0.00073557854)
(0.10389071 -0.0014334302 0.00092640931)
(0.10557173 -0.0014450151 0.0010517691)
(0.10714309 -0.0014381963 0.0011429996)
(0.10866548 -0.0014156097 0.0012081284)
(0.11014436 -0.0013858443 0.0012502938)
(0.11156167 -0.0013594113 0.0012734868)
(0.11290521 -0.0013453987 0.0012809629)
(0.11416793 -0.0013526148 0.0012737124)
(0.11533936 -0.0013895685 0.0012499501)
(0.11640219 -0.0014584646 0.0012044229)
(0.11733947 -0.0015369734 0.0011279405)
(0.11816401 -0.0015592423 0.0010057223)
(0.11892837 -0.0015441951 0.00082889502)
(0.119675 -0.0015196595 0.00059836927)
(0.12041908 -0.0014989388 0.00031967817)
(0.12116304 -0.0014904814 -4.5395352e-07)
(0.12190647 -0.0014968458 -0.00035707688)
(0.12264673 -0.0015219495 -0.00074698193)
(0.1233773 -0.0015645934 -0.0011684431)
(0.1240976 -0.0016177336 -0.0016256636)
(0.1248145 -0.0016652398 -0.0021268313)
(0.12554624 -0.0016805466 -0.0026868182)
(0.12632712 -0.0016224257 -0.0033274432)
(0.12721751 -0.0014245968 -0.0040813057)
(0.12831961 -0.00097859413 -0.004988738)
(0.12978144 -0.0001109981 -0.0060890524)
(0.13176249 0.0013635046 -0.0073725301)
(0.13597159 0.0034646054 -0.0087151055)
(0.098380641 -0.00098642998 0.00041182116)
(0.098081175 -0.001336001 0.00070875814)
(0.097475544 -0.0013832143 0.00088382035)
(0.09658463 -0.0013661149 0.00099091758)
(0.095681788 -0.0013304385 0.0010615836)
(0.09486187 -0.0012781047 0.0011041012)
(0.094110142 -0.0012161421 0.0011216487)
(0.093398244 -0.0011531779 0.0011182857)
(0.092710052 -0.0010951711 0.0010972456)
(0.092034938 -0.0010460514 0.0010592731)
(0.091360226 -0.0010084183 0.0010022408)
(0.090670701 -0.00098227791 0.00092100502)
(0.089954472 -0.00096200139 0.00080740558)
(0.089215188 -0.00093508164 0.000651178)
(0.088480631 -0.00089781216 0.00044453665)
(0.087786589 -0.00085812461 0.00018410178)
(0.087152196 -0.0008209627 -0.00012579671)
(0.086586806 -0.00078930475 -0.00047875936)
(0.086082179 -0.00076009631 -0.00086549152)
(0.085628591 -0.00073516446 -0.0012883561)
(0.085227431 -0.0007159168 -0.0017511343)
(0.084883883 -0.00069890038 -0.0022614033)
(0.084609428 -0.00067683712 -0.0028312384)
(0.084427409 -0.00063734429 -0.0034736361)
(0.084388439 -0.00056205369 -0.0042131785)
(0.084588516 -0.00041985041 -0.0050845385)
(0.085191662 -0.00015447808 -0.0061279826)
(0.086452535 0.00032514549 -0.0073776457)
(0.088964208 0.0010851986 -0.0088130711)
(0.095113014 0.0021126293 -0.010253337)
(0.098357006 0.00098822622 0.00022313122)
(0.097984256 0.0013402727 0.00042061529)
(0.097294475 0.0013886875 0.00056753411)
(0.096342297 0.0013710903 0.00066827745)
(0.095404742 0.0013329008 0.0007357442)
(0.094571511 0.0012750222 0.0007786569)
(0.093829517 0.0012027156 0.00080200431)
(0.093158657 0.0011215223 0.00081010423)
(0.092556919 0.001031516 0.00080753599)
(0.09203902 0.000924537 0.00079957218)
(0.091641345 0.0007763348 0.00079424122)
(0.091445864 0.00052536008 0.00080778192)
(0.091702882 6.6997344e-05 0.00087017802)
(0.092452186 6.7277786e-06 0.0011165342)
(0.093321287 6.3925212e-05 0.0016256667)
(0.093991435 0.0001705928 0.0023665905)
(0.094363547 0.0003118332 0.0032693449)
(0.094444737 0.00045666488 0.0042465383)
(0.094278375 0.00058583572 0.0052295123)
(0.09391404 0.00068802762 0.0061808786)
(0.093391337 0.00076130583 0.007080216)
(0.092734224 0.00081054599 0.0079108546)
(0.091950031 0.00084652671 0.0086535428)
(0.091026647 0.00088646283 0.0092818434)
(0.089925904 0.0009568041 0.0097559352)
(0.0885726 0.0010969356 0.010012319)
(0.086838098 0.0013695172 0.0099447237)
(0.084506227 0.0018861273 0.0093674184)
(0.081154568 0.0028760039 0.0079814652)
(0.073071784 0.0051047421 0.0055285738)
(0.10055047 0.00099787977 0.00023011307)
(0.10200265 0.0013599963 0.00043661053)
(0.10370884 0.0014289558 0.00059370914)
(0.10532714 0.0014352359 0.00070629693)
(0.10686001 0.0014187744 0.00078733586)
(0.10836177 0.0013794397 0.00084524569)
(0.10983767 0.0013210278 0.00088454219)
(0.1112743 0.0012460535 0.00090871595)
(0.11266592 0.0011502566 0.00092068189)
(0.11401275 0.0010203201 0.00092182435)
(0.11530705 0.00082895962 0.0009099062)
(0.11651387 0.00052468959 0.00087338736)
(0.11756699 4.8371631e-05 0.00078373894)
(0.11849358 -3.5558255e-05 0.00057947133)
(0.11945852 3.2820893e-05 0.00027573424)
(0.12047389 0.00018048064 -8.252824e-05)
(0.12152273 0.00038187809 -0.0004546955)
(0.1225836 0.00060118856 -0.00080069749)
(0.12362819 0.00081470221 -0.0011007259)
(0.12462945 0.001010055 -0.0013481028)
(0.12556638 0.0011851833 -0.0015447339)
(0.12641596 0.0013478728 -0.0017001179)
(0.12715113 0.0015159792 -0.0018294218)
(0.12773662 0.0017180246 -0.0019555783)
(0.12811953 0.0020040277 -0.0021124524)
(0.12821894 0.0024525032 -0.0023498381)
(0.12791732 0.0031921371 -0.0027416482)
(0.12706932 0.004440356 -0.0033976841)
(0.12559864 0.0065807333 -0.0045186953)
(0.12213507 0.010252474 -0.0063676984)
(0.10055026 -0.00099951237 0.00023008712)
(0.10200165 -0.0013637706 0.00043654675)
(0.10370613 -0.0014361126 0.00059357534)
(0.10532119 -0.0014481074 0.00070602359)
(0.10684817 -0.0014414524 0.00078678302)
(0.1083394 -0.0014189931 0.00084413762)
(0.10979675 -0.0013895668 0.00088234713)
(0.11120127 -0.0013641701 0.00090444035)
(0.11253873 -0.0013526587 0.00091256907)
(0.11379822 -0.0013647431 0.00090712663)
(0.11496363 -0.0014091505 0.00088566802)
(0.11601094 -0.0014847071 0.00084137205)
(0.11691428 -0.0015566162 0.0007617251)
(0.11768986 -0.0015304093 0.00062189432)
(0.11841099 -0.0014296382 0.0004068425)
(0.1191357 -0.0012897647 0.00011991788)
(0.1198883 -0.001131894 -0.0002307625)
(0.12067608 -0.00097144498 -0.00064103875)
(0.12149634 -0.00081835385 -0.0011076351)
(0.1223427 -0.00067445834 -0.0016221914)
(0.12320508 -0.00053743046 -0.0021817795)
(0.12407578 -0.00039546944 -0.0027874382)
(0.12494899 -0.00022353513 -0.0034454185)
(0.12582232 2.2052233e-05 -0.0041687267)
(0.12664821 0.00040238084 -0.0049799757)
(0.1274276 0.0010101202 -0.0059136981)
(0.12818156 0.0019894572 -0.007017327)
(0.12898003 0.0035597018 -0.0083490676)
(0.13007348 0.0060282005 -0.0099776181)
(0.1324448 0.0096261821 -0.011916272)
(0.098356569 -0.00098881758 0.00022307349)
(0.097982276 -0.0013416328 0.00042047208)
(0.097289344 -0.001391254 0.00056723204)
(0.096331485 -0.0013756722 0.00066766119)
(0.095383962 -0.0013409267 0.00073449951)
(0.094533372 -0.0012889903 0.00077615372)
(0.093761248 -0.0012269927 0.00079698456)
(0.093038136 -0.0011638188 0.00080005848)
(0.092345596 -0.0011057742 0.00078744162)
(0.091668917 -0.0010570929 0.00075928319)
(0.090990191 -0.0010203634 0.00071291674)
(0.090288407 -0.00099460662 0.00064201847)
(0.089546481 -0.0009717385 0.00053592046)
(0.088767845 -0.00093173404 0.00037978122)
(0.087984607 -0.00086754921 0.0001617925)
(0.08724203 -0.00079080219 -0.00011578999)
(0.086570975 -0.0007065618 -0.00044707111)
(0.08597407 -0.0006181472 -0.00082083527)
(0.085442219 -0.00052733125 -0.0012343823)
(0.084966894 -0.00043849339 -0.0016973255)
(0.084548084 -0.00035176917 -0.0022231561)
(0.084194337 -0.0002617762 -0.002827235)
(0.083925852 -0.00015362898 -0.0035289407)
(0.08377786 3.9715534e-06 -0.0043538291)
(0.083893977 0.00024538774 -0.0053352818)
(0.084395015 0.00062399464 -0.0065163163)
(0.085484764 0.0012215418 -0.0079487665)
(0.087470271 0.0021566646 -0.0096800163)
(0.090848371 0.0035605993 -0.011682136)
(0.098705495 0.0055489368 -0.013659139)
(0.098344464 0.00098826376 6.6363433e-05)
(0.097934781 0.0013403022 0.00012474163)
(0.097197511 0.0013881293 0.00016651222)
(0.096205085 0.0013694664 0.00019205173)
(0.095240116 0.0013300107 0.0002058987)
(0.094389159 0.0012707235 0.00021195867)
(0.09363576 0.001196774 0.00021254041)
(0.092958751 0.0011134465 0.00020926479)
(0.092356627 0.0010200897 0.0002037062)
(0.091846762 0.00090634899 0.00019779581)
(0.091473799 0.0007412848 0.00019484899)
(0.091334424 0.00044603403 0.00020224718)
(0.091831274 -9.6262062e-05 0.00023217451)
(0.09294918 1.882726e-05 0.00036533886)
(0.094237671 0.00038179049 0.00064858842)
(0.095246509 0.00091981398 0.0010703053)
(0.095820257 0.0015962357 0.0015990863)
(0.095957983 0.0022717296 0.0021878616)
(0.095749306 0.0029128203 0.0027990875)
(0.095288111 0.0035088805 0.0034148043)
(0.094628632 0.0040564191 0.0040258778)
(0.093791024 0.0045578268 0.0046233282)
(0.092770169 0.0050205676 0.0051946247)
(0.091533505 0.0054570673 0.005721063)
(0.09000957 0.0058869783 0.0061737228)
(0.08806667 0.0063424229 0.0065063166)
(0.085476328 0.0068795515 0.0066421367)
(0.081850736 0.0076022374 0.0064501061)
(0.076507185 0.0086706251 0.0057118757)
(0.063487424 0.010665782 0.0042150749)
(0.10053797 0.00099788705 6.8409342e-05)
(0.10195329 0.0013604452 0.00012944477)
(0.10361239 0.0014295501 0.00017423247)
(0.10519119 0.0014354917 0.00020333692)
(0.10669706 0.0014183056 0.00022132453)
(0.1081808 0.0013778502 0.00023195768)
(0.10964415 0.0013177278 0.00023732407)
(0.11107202 0.0012399932 0.00023868976)
(0.11245734 0.0011393766 0.00023690054)
(0.11379727 0.0010002621 0.00023205618)
(0.11507591 0.00079009242 0.00022233953)
(0.11624113 0.00044620777 0.00020073702)
(0.11715126 -9.0570383e-05 0.00015141887)
(0.11787481 3.5343066e-05 3.2542666e-05)
(0.11862336 0.0004876646 -0.00014608604)
(0.11942116 0.0011787461 -0.00034614012)
(0.12021877 0.0020691057 -0.00053883725)
(0.12097957 0.0030211203 -0.00069626846)
(0.12164345 0.0039930787 -0.0008053472)
(0.12216511 0.0049762212 -0.00086004616)
(0.12250792 0.0059683305 -0.00086037678)
(0.12263686 0.0069727558 -0.00081032101)
(0.12251253 0.0079992799 -0.00071751903)
(0.12208313 0.0090658334 -0.00059438075)
(0.12127215 0.010204228 -0.00046093141)
(0.11995978 0.011471269 -0.00034888151)
(0.11795458 0.012970389 -0.00031054861)
(0.11494962 0.014892049 -0.00043860005)
(0.11048947 0.017585947 -0.00091921011)
(0.099640748 0.02164466 -0.0020812049)
(0.10053775 -0.00099956193 6.8398607e-05)
(0.10195225 -0.001364324 0.00012941842)
(0.10360957 -0.001436927 0.00017417714)
(0.10518497 -0.0014488098 0.00020322369)
(0.10668463 -0.0014418769 0.00022109532)
(0.10815721 -0.0014191768 0.00023149765)
(0.10960077 -0.0013897687 0.0002364108)
(0.11099419 -0.0013649907 0.00023690665)
(0.11232117 -0.0013552158 0.00023351278)
(0.11356743 -0.0013706611 0.00022594889)
(0.11471126 -0.0014195427 0.00021253984)
(0.11572046 -0.0014956346 0.00018925588)
(0.11655283 -0.0015499271 0.00014864804)
(0.11722744 -0.0014308282 7.4802549e-05)
(0.11785674 -0.0011590046 -4.2302866e-05)
(0.11853519 -0.00077803817 -0.00019977322)
(0.1192949 -0.00029734038 -0.00039249056)
(0.12014762 0.00027128268 -0.0006217238)
(0.12100168 0.00092596287 -0.00088647356)
(0.1218508 0.0016604328 -0.0011796015)
(0.12267188 0.0024735248 -0.0014951263)
(0.12343881 0.0033718239 -0.0018294086)
(0.12412048 0.0043702488 -0.0021807585)
(0.12467786 0.0054951138 -0.0025491518)
(0.12506062 0.0067908945 -0.0029419589)
(0.12520406 0.0083348275 -0.0033734335)
(0.12502623 0.010262809 -0.0038699887)
(0.12442861 0.012814154 -0.0044789112)
(0.12338706 0.016409618 -0.0052891335)
(0.12018989 0.021633713 -0.0064189227)
(0.098344009 -0.00098887069 6.6339626e-05)
(0.097932718 -0.0013417005 0.00012468265)
(0.097192148 -0.001390776 0.00016638752)
(0.096193738 -0.0013742105 0.00019179666)
(0.095218194 -0.0013383612 0.00020538214)
(0.094348662 -0.0012853427 0.00021091593)
(0.093562689 -0.0012223665 0.00021043834)
(0.092828475 -0.0011584436 0.00020502471)
(0.092125369 -0.0011000503 0.00019512979)
(0.091435347 -0.0010515173 0.00018032922)
(0.090735562 -0.0010151372 0.00015884077)
(0.089998167 -0.00098847598 0.00012692229)
(0.089197703 -0.00095993721 7.8212211e-05)
(0.088335214 -0.00089608798 3.3884738e-06)
(0.087463797 -0.00078353265 -0.0001053844)
(0.086644661 -0.00063149195 -0.0002431407)
(0.085909891 -0.00044842118 -0.00040889795)
(0.085273484 -0.00022287393 -0.00059748673)
(0.084851686 5.866135e-05 -0.00080641771)
(0.084631341 0.00038345161 -0.0010468077)
(0.084616238 0.00074572934 -0.0013306751)
(0.084811502 0.0011507364 -0.0016697578)
(0.085219247 0.001612865 -0.0020783811)
(0.085842841 0.0021568106 -0.0025767962)
(0.086696836 0.0028206952 -0.0031845594)
(0.087823604 0.0036660002 -0.0039232472)
(0.089322045 0.0047950259 -0.0048170955)
(0.091405861 0.0063799613 -0.0058865373)
(0.094642592 0.0087023357 -0.0071244808)
(0.10193913 0.012209008 -0.0083714786)
(0.098344464 0.00098826372 -6.6362256e-05)
(0.097934781 0.0013403021 -0.00012474116)
(0.097197511 0.0013881293 -0.00016651183)
(0.096205085 0.0013694664 -0.00019205141)
(0.095240116 0.0013300106 -0.00020589847)
(0.094389159 0.0012707235 -0.00021195839)
(0.09363576 0.0011967741 -0.00021254014)
(0.092958751 0.0011134465 -0.00020926434)
(0.092356627 0.0010200899 -0.00020370619)
(0.091846762 0.00090634901 -0.00019779585)
(0.091473799 0.00074128502 -0.00019484967)
(0.091334424 0.00044603398 -0.00020224787)
(0.091831274 -9.6262564e-05 -0.00023217483)
(0.092949181 1.8827451e-05 -0.00036533955)
(0.094237672 0.00038179002 -0.0006485884)
(0.095246511 0.00091981487 -0.0010703054)
(0.095820259 0.001596237 -0.0015990845)
(0.095957984 0.0022717319 -0.0021878591)
(0.095749307 0.0029128234 -0.0027990833)
(0.095288113 0.0035088854 -0.0034148001)
(0.094628632 0.0040564237 -0.0040258706)
(0.093791024 0.0045578328 -0.0046233208)
(0.09277017 0.0050205701 -0.0051946147)
(0.091533508 0.0054570747 -0.0057210534)
(0.090009577 0.0058869846 -0.0061737064)
(0.088066674 0.0063424303 -0.0065062972)
(0.08547633 0.0068795604 -0.0066421151)
(0.081850735 0.0076022473 -0.0064500832)
(0.076507178 0.0086706354 -0.0057118536)
(0.063487402 0.010665794 -0.0042150571)
(0.10053797 0.00099788703 -6.8408188e-05)
(0.10195329 0.0013604451 -0.00012944438)
(0.10361239 0.00142955 -0.00017423222)
(0.10519119 0.0014354916 -0.00020333677)
(0.10669706 0.0014183055 -0.00022132454)
(0.1081808 0.0013778503 -0.00023195775)
(0.10964415 0.0013177279 -0.00023732409)
(0.11107202 0.0012399933 -0.00023868977)
(0.11245734 0.0011393768 -0.00023690067)
(0.11379727 0.0010002622 -0.00023205636)
(0.11507591 0.00079009257 -0.00022233969)
(0.11624113 0.0004462076 -0.00020073647)
(0.11715126 -9.0571006e-05 -0.00015141782)
(0.11787481 3.5342414e-05 -3.2540723e-05)
(0.11862336 0.00048766367 0.00014608709)
(0.11942116 0.0011787461 0.00034614085)
(0.12021876 0.0020691066 0.0005388373)
(0.12097957 0.0030211225 0.00069626843)
(0.12164345 0.0039930819 0.00080534684)
(0.12216511 0.0049762263 0.00086004623)
(0.12250792 0.0059683371 0.00086037645)
(0.12263686 0.0069727626 0.00081032374)
(0.12251253 0.0079992845 0.0007175229)
(0.12208312 0.009065842 0.00059438557)
(0.12127215 0.010204239 0.00046093678)
(0.11995977 0.011471282 0.00034888734)
(0.11795457 0.012970404 0.0003105553)
(0.11494961 0.014892065 0.00043860703)
(0.11048945 0.017585965 0.00091921637)
(0.09964071 0.02164468 0.0020812074)
(0.10053775 -0.00099956194 -6.8397464e-05)
(0.10195225 -0.001364324 -0.00012941804)
(0.10360957 -0.001436927 -0.0001741769)
(0.10518497 -0.0014488099 -0.0002032236)
(0.10668463 -0.0014418768 -0.00022109533)
(0.10815721 -0.0014191769 -0.00023149766)
(0.10960077 -0.0013897686 -0.00023641093)
(0.11099419 -0.001364991 -0.00023690661)
(0.11232117 -0.0013552156 -0.000233513)
(0.11356743 -0.0013706614 -0.00022594896)
(0.11471126 -0.0014195426 -0.00021254002)
(0.11572046 -0.0014956349 -0.00018925542)
(0.11655283 -0.0015499272 -0.00014864701)
(0.11722744 -0.0014308288 -7.4801589e-05)
(0.11785674 -0.0011590047 4.2303369e-05)
(0.11853519 -0.00077803819 0.00019977311)
(0.1192949 -0.00029733981 0.00039249011)
(0.12014762 0.00027128373 0.00062172348)
(0.12100168 0.00092596449 0.00088647291)
(0.1218508 0.0016604353 0.0011796001)
(0.12267188 0.0024735291 0.0014951265)
(0.12343881 0.0033718275 0.0018294102)
(0.12412048 0.0043702532 0.0021807613)
(0.12467786 0.0054951202 0.0025491551)
(0.12506062 0.0067909033 0.0029419585)
(0.12520405 0.0083348389 0.0033734327)
(0.12502623 0.010262823 0.0038699868)
(0.1244286 0.012814171 0.0044789097)
(0.12338705 0.016409638 0.0052891303)
(0.12018986 0.021633737 0.0064189165)
(0.098344009 -0.00098887071 -6.6338536e-05)
(0.097932718 -0.0013417005 -0.00012468222)
(0.097192148 -0.0013907759 -0.00016638718)
(0.096193738 -0.0013742105 -0.00019179643)
(0.095218194 -0.0013383612 -0.00020538187)
(0.094348662 -0.0012853427 -0.00021091578)
(0.093562689 -0.0012223664 -0.00021043804)
(0.092828475 -0.0011584436 -0.0002050247)
(0.092125369 -0.0011000502 -0.00019512952)
(0.091435347 -0.0010515176 -0.0001803294)
(0.090735562 -0.0010151372 -0.00015884091)
(0.089998167 -0.0009884762 -0.00012692246)
(0.089197704 -0.00095993731 -7.8212493e-05)
(0.088335213 -0.00089608777 -3.3890259e-06)
(0.087463797 -0.00078353261 0.00010538331)
(0.08664466 -0.00063149168 0.00024313903)
(0.08590989 -0.00044842109 0.00040889517)
(0.085273483 -0.00022287374 0.00059748319)
(0.084851685 5.8661813e-05 0.00080641242)
(0.084631341 0.00038345251 0.0010468005)