/*--------------------------------*- C++ -*----------------------------------*\
| =========                 |                                                 |
| \\      /  F ield         | OpenFOAM: The Open Source CFD Toolbox           |
|  \\    /   O peration     | Version:  2412                                  |
|   \\  /    A nd           | Website:  www.openfoam.com                      |
|    \\/     M anipulation  |                                                 |
\*---------------------------------------------------------------------------*/
FoamFile
{
    version     2.0;
    format      ascii;
    arch        "LSB;label=32;scalar=64";
    class       volVectorField;
    location    "1.3";
    object      flux;
}
// * * * * * * * * * * * * * * * * * * * * * * * * * * * * * * * * * * * * * //

dimensions      [0 1 -1 1 0 0 0];

internalField   nonuniform List<vector> 
5712
(
(-0.343943 0.550991 0.320159)
(-0.421132 0.302853 0.970614)
(-0.78293 0.956081 0.243624)
(-1.22766 0.628003 1.05964)
(-1.18757 0.922095 0.132951)
(-2.31612 0.786794 1.11804)
(-0.817199 1.34952 0.224563)
(-2.45763 1.68209 1.75902)
(-0.840884 2.05875 0.36587)
(-1.96825 2.61979 2.2059)
(-1.03461 1.09487 0.376613)
(-1.70489 0.965155 1.57248)
(-0.789841 0.673356 0.403107)
(-1.04905 0.465604 1.40094)
(-0.42531 0.446069 0.39802)
(-0.433258 0.254158 1.20662)
(-0.572592 0.904134 0.186036)
(-0.656047 0.798063 0.104489)
(-0.775662 0.822196 0.563283)
(-0.707026 0.803757 0.271272)
(-0.535983 1.03573 0.173129)
(-0.806871 0.979918 0.0809119)
(-0.795511 1.20584 0.602504)
(-0.796296 1.02465 0.244276)
(-0.22872 0.321201 0.246871)
(-0.169084 0.220965 0.185443)
(-0.309516 0.167977 0.727313)
(-0.224237 0.116043 0.539996)
(-0.521489 0.464566 0.165541)
(-0.346686 0.295647 0.133399)
(-0.958371 0.258567 0.731128)
(-0.676064 0.167814 0.561999)
(-0.796799 0.938962 0.373831)
(-0.813969 0.985 0.137209)
(-0.819474 0.830762 0.288981)
(-0.845085 0.658413 0.108283)
(-0.198587 0.663633 0.133715)
(-0.171124 0.527072 0.351695)
(-1.83871 0.568193 1.73197)
(-2.27291 0.544478 0.527117)
(-0.983158 0.753491 0.523111)
(-1.30873 0.744371 0.237477)
(-2.3535 1.55505 2.08803)
(-2.89827 1.71723 0.65087)
(-1.09204 1.10044 0.481947)
(-1.3437 1.16941 0.220926)
(-1.38617 0.816315 1.15755)
(-1.81088 0.643205 0.384763)
(-1.11067 0.822173 0.591768)
(-1.53298 0.575184 0.267405)
(-0.642528 0.34975 0.951516)
(-0.80969 0.303897 0.301414)
(-0.134949 0.26765 0.247988)
(-0.0431681 0.419149 0.133679)
(-0.173954 0.133733 0.40423)
(-0.0607833 0.187917 0.165786)
(-0.302878 0.353934 0.226014)
(-0.125212 0.555396 0.139711)
(-0.517409 0.224263 0.423252)
(-0.191183 0.314821 0.162489)
(-0.347669 0.357636 0.297106)
(-0.115445 0.661596 0.18794)
(-0.342281 0.275022 0.269278)
(-0.0974947 0.464561 0.115679)
(-0.667379 0.0845064 0.463611)
(-0.195422 0.309723 0.169428)
(-0.872476 0.0137428 0.181295)
(-0.275095 0.220727 0.067701)
(-1.10739 0.754727 0.580629)
(-0.639015 0.911877 0.447385)
(-0.932428 0.804874 0.345416)
(-0.644722 0.910093 0.315926)
(-1.11893 0.947387 0.621633)
(-0.722722 0.957733 0.548618)
(-0.885773 0.979115 0.333805)
(-0.711454 0.944091 0.35744)
(-0.734096 0.728996 0.329782)
(-0.531176 0.88365 0.29181)
(-0.811684 0.719287 0.447564)
(-0.518146 0.867118 0.391931)
(-0.904435 0.812277 0.251631)
(-0.66321 0.907812 0.219917)
(-0.934835 0.799973 0.141207)
(-0.678734 0.904651 0.122406)
(-0.867462 0.99418 0.242851)
(-0.722458 0.936569 0.243079)
(-0.901586 0.999062 0.133355)
(-0.735253 0.932522 0.1341)
(-0.754169 0.687867 0.24668)
(-0.557808 0.887261 0.199389)
(-0.811611 0.628436 0.139888)
(-0.576783 0.884788 0.100946)
(-0.811875 0.776813 0.288672)
(-0.337897 0.850348 0.163843)
(-0.47024 0.977758 0.296915)
(-0.54237 1.40244 0.320846)
(-0.877491 0.815986 0.397613)
(-0.393325 0.993907 0.301086)
(-0.472542 0.97514 0.435228)
(-0.575158 1.55113 0.558193)
(-0.811434 0.733732 0.20483)
(-0.313052 0.747879 0.0891756)
(-0.488308 0.970423 0.186723)
(-0.529988 1.32226 0.189541)
(-0.838246 0.705014 0.112857)
(-0.314242 0.684588 0.0402999)
(-0.51128 0.968387 0.0835886)
(-0.532433 1.28374 0.0720431)
(-0.130839 0.214097 0.30084)
(-0.148477 0.276245 0.59308)
(-0.0464611 0.587762 0.214315)
(-0.0953827 0.982464 0.667591)
(-0.376301 0.253587 0.325836)
(-0.444155 0.288914 0.597043)
(-0.158031 0.719298 0.254493)
(-0.308351 1.08945 0.706075)
(-0.612837 0.296945 0.419049)
(-0.72863 0.310973 0.584662)
(-0.286887 0.870445 0.348212)
(-0.520309 1.20726 0.710409)
(-0.730106 1.04353 0.430256)
(-0.37935 1.12238 0.482166)
(-0.76705 0.907783 0.360791)
(-0.94716 0.852842 0.36815)
(-0.489979 1.21266 0.431458)
(-0.268847 1.13933 0.31863)
(-0.432078 1.00737 0.37866)
(-0.532739 0.903232 0.538278)
(-0.963004 0.780749 0.640291)
(-0.647755 1.39261 0.924766)
(-0.438948 1.04312 0.434647)
(-0.585369 0.98069 0.377426)
(-0.662257 0.843839 0.377263)
(-0.657211 0.903499 0.476913)
(-0.830816 1.77995 0.736165)
(-0.142787 0.0738949 0.740424)
(-0.145067 0.0977476 0.71995)
(-0.0902291 0.207145 0.864486)
(-0.0956538 0.441607 0.877756)
(-0.422555 0.103733 0.717789)
(-0.394677 0.146647 0.720486)
(-0.280934 0.268974 0.862485)
(-0.282343 0.503941 0.864957)
(-0.632037 0.153529 0.653577)
(-0.564396 0.148174 0.680498)
(-0.417708 0.354341 0.819621)
(-0.414489 0.58487 0.833723)
(-0.395298 1.09736 0.40037)
(-0.438699 1.06971 0.427386)
(-0.623182 0.926578 0.419839)
(-0.6619 0.865386 0.44756)
(-0.72941 0.805718 0.516773)
(-0.683827 0.696144 0.529687)
(-0.885255 0.598529 0.616304)
(-0.803748 0.518289 0.611556)
(-0.640224 0.488341 0.788439)
(-0.635454 0.741928 0.807608)
(-0.544135 0.97259 0.362688)
(-0.572884 0.859691 0.404856)
(-0.705114 0.913774 0.428169)
(-0.620291 0.839185 0.475157)
(-0.675956 0.788547 0.493522)
(-0.543235 0.712551 0.553964)
(-0.618669 0.701149 0.580751)
(-0.474991 0.606617 0.65708)
(-0.711357 0.574832 0.770156)
(-0.5531 0.797665 0.858454)
(-0.584537 0.949872 0.426589)
(-0.287503 1.00516 0.292288)
(-0.462838 0.987926 0.342649)
(-0.435692 1.07948 0.338381)
(-0.642709 0.941356 0.462038)
(-0.727963 0.862841 0.51216)
(-0.657137 0.960827 0.373993)
(-0.84104 0.915461 0.482056)
(-0.394462 0.878795 0.324583)
(-0.374959 0.883891 0.322933)
(-0.534534 0.864373 0.416514)
(-0.211586 0.852735 0.301402)
(-0.451924 1.00671 0.149153)
(-0.696957 1.10678 0.242478)
(-0.470973 1.00134 0.0579678)
(-0.750133 1.09822 0.0883571)
(-0.669267 0.976683 0.230208)
(-1.03686 0.956117 0.354047)
(-0.694892 0.968007 0.0862388)
(-1.06806 0.951235 0.12952)
(-0.388858 0.870201 0.131525)
(-0.621301 0.876543 0.219295)
(-0.406461 0.882393 0.0476848)
(-0.679352 0.884158 0.0788512)
(-0.482469 0.770166 0.315937)
(-0.34427 0.756906 0.267445)
(-0.63268 0.536142 0.32818)
(-0.271218 0.642103 0.209092)
(-0.515863 0.778332 0.44855)
(-0.159731 0.745794 0.324021)
(-0.596559 0.556071 0.516799)
(-0.111192 0.672503 0.352125)
(-0.506513 0.747038 0.152006)
(-0.507194 0.744383 0.169509)
(-0.665588 0.527715 0.187141)
(-0.335258 0.638898 0.109122)
(-0.460812 0.75318 0.111357)
(-0.590121 0.735605 0.118442)
(-0.61434 0.521627 0.1234)
(-0.430308 0.622014 0.0931615)
(-0.132759 0.0806926 0.63214)
(-0.120819 0.0630671 0.419907)
(-0.0997092 0.0449538 0.139428)
(-0.0863534 0.0428017 0.684363)
(-0.0829233 0.0351513 0.434802)
(-0.0703532 0.0345316 0.151108)
(-0.353524 0.122792 0.619063)
(-0.293572 0.0816336 0.409382)
(-0.245945 0.0610512 0.141613)
(-0.23692 0.100935 0.678845)
(-0.190431 0.0872089 0.432325)
(-0.154338 0.0725972 0.147858)
(-0.455248 0.125573 0.585784)
(-0.368608 0.113561 0.382125)
(-0.325505 0.116414 0.128835)
(-0.342637 0.182515 0.660932)
(-0.262299 0.15188 0.42336)
(-0.227603 0.134248 0.146373)
(-0.382505 0.983253 0.315037)
(-0.290762 0.834187 0.186666)
(-0.265236 0.738102 0.0522263)
(-0.607165 0.833443 0.394328)
(-0.423444 0.748365 0.27078)
(-0.327575 0.686133 0.0888069)
(-0.566511 0.577515 0.467492)
(-0.389974 0.530582 0.328514)
(-0.285755 0.504118 0.111439)
(-0.641214 0.424068 0.526973)
(-0.475401 0.38441 0.347695)
(-0.381441 0.363385 0.115299)
(-0.52645 0.298183 0.633532)
(-0.34007 0.207248 0.405162)
(-0.238979 0.1612 0.143431)
(-0.715715 0.778229 0.338779)
(-0.551274 0.683956 0.191826)
(-0.467596 0.621709 0.064849)
(-0.539678 0.791086 0.36121)
(-0.402556 0.702755 0.238568)
(-0.314463 0.651852 0.0850164)
(-0.493098 0.598713 0.419543)
(-0.347936 0.506184 0.280617)
(-0.255935 0.457521 0.0983383)
(-0.456496 0.442188 0.500074)
(-0.320217 0.370847 0.32454)
(-0.236579 0.33729 0.112668)
(-0.517869 0.307099 0.603012)
(-0.294786 0.213148 0.359272)
(-0.169606 0.1663 0.126102)
(-0.479016 1.18136 -0.0213495)
(-0.774686 1.21262 0.0389115)
(-0.410523 1.26582 0.0149064)
(-0.581804 1.15208 0.105188)
(-0.398882 1.16495 0.0762679)
(-0.813329 1.1516 0.0757661)
(-0.337216 1.40054 0.195444)
(-0.669361 1.19257 0.169687)
(-0.00571474 0.745505 0.0242468)
(-0.0681204 0.808616 0.0376189)
(0.011225 0.746014 0.0256717)
(-0.0410242 0.727446 0.0394332)
(-0.142818 0.991023 0.0131358)
(-0.268464 0.859841 0.0361039)
(-0.0915894 0.974908 0.0242622)
(-0.166125 0.761794 0.0529997)
(-0.0786799 1.07463 0.0703316)
(-0.160053 1.11296 0.0436642)
(-0.451297 0.915028 0.148964)
(-0.665535 1.01788 0.107124)
(-0.350799 1.18394 0.0664935)
(-0.268915 1.05045 0.106897)
(-0.48935 1.20488 0.116391)
(-0.428767 1.25598 0.0229307)
(-0.667448 1.28693 0.24841)
(-0.715984 1.38577 0.0714733)
(0.0212648 1.03276 -0.18395)
(0.229229 1.06288 -0.0419369)
(-0.346468 0.894475 0.0171968)
(-0.241641 0.884013 0.0151828)
(-0.271384 1.01765 -0.012509)
(-0.155465 0.985376 -0.0103101)
(-0.0628257 0.671555 0.398546)
(-0.0400319 0.385838 0.163824)
(-0.0522532 0.632289 0.104823)
(-0.0327828 0.426358 0.0584218)
(-0.155496 0.652949 0.391899)
(-0.048343 0.378255 0.165042)
(-0.080791 0.610395 0.113613)
(-0.0125871 0.413419 0.0683848)
(-0.400594 0.597019 0.375607)
(-0.115594 0.34972 0.177593)
(-0.307734 0.567958 0.148336)
(-0.0951735 0.392707 0.0976961)
(-0.34959 0.559374 0.112309)
(-0.104948 0.407606 0.0673308)
(-0.394392 0.537971 0.0539547)
(-0.127827 0.406763 0.0472333)
(-0.512217 0.919544 0.534555)
(-0.496843 0.711942 0.465032)
(-0.397157 0.909144 0.23044)
(-0.489406 0.723302 0.295282)
(-0.791374 1.03472 0.623986)
(-0.703906 0.913652 0.581529)
(-0.645307 1.04781 0.301485)
(-0.665493 0.906564 0.360865)
(-0.286578 0.834228 0.199767)
(-0.364845 0.563508 0.241697)
(-0.335051 0.85915 0.436419)
(-0.338659 0.540044 0.35559)
(-0.371019 0.932231 0.142461)
(-0.483879 0.72995 0.189225)
(-0.389332 0.960634 0.0760839)
(-0.48703 0.730728 0.104884)
(-0.615255 1.07973 0.197885)
(-0.649489 0.906131 0.231611)
(-0.637325 1.10247 0.108342)
(-0.652877 0.905173 0.127212)
(-0.252694 0.816077 0.108271)
(-0.36804 0.573524 0.156269)
(-0.243666 0.812359 0.0546097)
(-0.371249 0.574972 0.0908048)
(-0.0237766 0.492825 0.170678)
(-0.0457172 0.341682 0.111857)
(-0.280064 0.426427 0.192291)
(-0.140925 0.28004 0.117678)
(-0.0237722 0.451526 0.300701)
(-0.0363449 0.305717 0.163274)
(-0.245716 0.396073 0.260882)
(-0.118409 0.256773 0.155217)
(-0.0237248 0.506108 0.0964651)
(-0.0409657 0.361922 0.0740971)
(-0.294532 0.440299 0.131099)
(-0.15524 0.293266 0.0790839)
(-0.0350584 0.510121 0.0482219)
(-0.045044 0.374687 0.0432855)
(-0.29635 0.444213 0.0799948)
(-0.163397 0.300801 0.047201)
(0.00798859 0.109132 0.455857)
(0.0141038 0.0591014 0.282164)
(-0.0180167 0.207385 0.208313)
(-0.0106723 0.123273 0.202486)
(0.0362611 0.112356 0.451644)
(0.0572296 0.0672797 0.282604)
(-0.0274523 0.210092 0.204284)
(-0.0143675 0.134473 0.197815)
(-0.0398621 0.121132 0.456027)
(0.00225065 0.0882338 0.274346)
(-0.0905324 0.207767 0.205599)
(-0.0737121 0.152146 0.183532)
(0.295738 0.527621 0.537618)
(0.149557 0.896488 0.541971)
(0.174779 0.343301 0.481561)
(0.121188 0.312293 0.354476)
(0.00736642 0.231375 0.186005)
(0.280855 0.914057 0.328438)
(0.404501 0.57781 0.375868)
(0.189028 0.32166 0.37778)
(0.194536 0.286641 0.336693)
(0.00907608 0.182504 0.213122)
(-0.393891 0.883771 0.469883)
(-0.28085 0.630284 0.401514)
(-0.21879 0.458099 0.317165)
(-0.213328 0.335841 0.24228)
(-0.11113 0.220255 0.142354)
(0.0209228 0.0405397 0.221094)
(0.0169638 0.0365937 0.202821)
(-0.00511996 0.0876147 0.209954)
(-0.00717456 0.078493 0.236685)
(0.0593045 0.0498273 0.22335)
(0.0618798 0.0378546 0.200435)
(-0.0132353 0.103369 0.206248)
(-0.0167401 0.0911733 0.233538)
(0.0529978 0.069358 0.218883)
(0.0704175 0.057239 0.196939)
(-0.0429749 0.122716 0.197836)
(-0.0470501 0.108078 0.226409)
(0.11309 0.918396 0.368475)
(0.0464735 0.851178 0.349946)
(0.304456 0.572542 0.323357)
(0.202099 0.502816 0.275746)
(0.160891 0.3538 0.226556)
(0.107722 0.322762 0.221189)
(0.150058 0.270561 0.202923)
(0.118862 0.244204 0.202945)
(0.00163778 0.167958 0.173575)
(-0.0195755 0.148889 0.216286)
(-0.211577 0.800854 0.274204)
(-0.149476 0.667708 0.31076)
(0.00881968 0.572641 0.217547)
(0.0700132 0.473427 0.245036)
(0.0245055 0.421843 0.180038)
(0.0669159 0.364727 0.201981)
(-0.00693248 0.29903 0.1614)
(0.03078 0.269315 0.18709)
(-0.0145671 0.202249 0.129746)
(-0.0232974 0.209074 0.199472)
(-0.165588 0.545325 0.19518)
(-0.17836 0.412548 0.15711)
(-0.381898 0.55457 0.133594)
(-0.240621 0.391097 0.0774121)
(-0.354403 0.710947 0.310553)
(-0.335018 0.511831 0.2353)
(-0.525116 0.727981 0.249643)
(-0.403555 0.508466 0.161814)
(-0.279104 0.443746 0.0940042)
(-0.16786 0.337905 0.056481)
(-0.0943604 0.437302 0.139763)
(-0.119004 0.358654 0.125057)
(-0.450324 0.576737 0.166659)
(-0.192195 0.374948 0.0759086)
(-0.482964 0.583775 0.0733298)
(-0.179145 0.380996 0.0405564)
(-0.602015 0.768588 0.226662)
(-0.391334 0.525815 0.132423)
(-0.642146 0.769374 0.0886308)
(-0.379631 0.532026 0.061152)
(-0.336003 0.448401 0.127936)
(-0.122064 0.319075 0.0553316)
(-0.364656 0.457123 0.0617856)
(-0.105841 0.333432 0.0306005)
(-0.193156 0.317188 0.0696734)
(-0.148678 0.271433 0.0811273)
(-0.126525 0.221422 0.0779266)
(-0.225027 0.268347 0.128765)
(-0.0898951 0.320275 0.106801)
(-0.118611 0.282841 0.126208)
(-0.0774917 0.224737 0.0924506)
(-0.186364 0.2632 0.165652)
(-0.213013 0.316473 0.0863503)
(-0.135785 0.264715 0.0595067)
(-0.156158 0.216399 0.0575146)
(-0.258935 0.279603 0.0933631)
(-0.260681 0.333056 0.0353075)
(-0.125708 0.268403 0.0123247)
(-0.190307 0.224732 0.00702887)
(-0.253017 0.277008 0.0198121)
(0.0189973 0.0694681 0.155675)
(0.0220029 0.053503 0.0719479)
(0.0246724 0.0408333 0.0208713)
(-0.00455847 0.249089 0.159799)
(0.00428827 0.121133 0.043407)
(0.00553602 0.0911975 0.0116515)
(0.0667328 0.0650208 0.155855)
(0.0731844 0.0580838 0.0772824)
(0.0759792 0.0479911 0.024296)
(-0.00543676 0.264593 0.16059)
(0.0174945 0.142473 0.0454631)
(0.0203089 0.112368 0.0128334)
(0.0817495 0.081721 0.149357)
(0.105134 0.0824781 0.0755976)
(0.114071 0.0800599 0.0202292)
(-0.0241195 0.283869 0.155585)
(0.0305886 0.177582 0.0435045)
(0.0409513 0.151448 0.0103488)
(0.0151294 0.725001 0.241133)
(0.0383269 0.620807 0.136265)
(0.033784 0.555242 0.0378148)
(0.138915 0.44283 0.186633)
(0.145847 0.390161 0.104075)
(0.132705 0.359724 0.0301632)
(0.107147 0.307666 0.165843)
(0.120646 0.276168 0.0870404)
(0.114748 0.260013 0.0258047)
(0.117147 0.257678 0.14774)
(0.136377 0.228415 0.0729348)
(0.137129 0.214492 0.0183121)
(-0.0107655 0.332892 0.150659)
(0.0440831 0.234136 0.0400196)
(0.0405709 0.203228 0.00773026)
(-0.175034 0.538521 0.263059)
(-0.0899687 0.45483 0.142127)
(-0.053506 0.403598 0.0456626)
(0.025823 0.390193 0.211295)
(0.0668986 0.332614 0.116816)
(0.0805238 0.300662 0.0389582)
(0.0402649 0.328035 0.175771)
(0.0798115 0.275933 0.094316)
(0.0896915 0.243722 0.0312678)
(0.0262235 0.298953 0.153256)
(0.071124 0.250062 0.0670411)
(0.0800407 0.224394 0.0192793)
(-0.0498829 0.433444 0.160641)
(0.0286616 0.292177 0.0427546)
(0.0334197 0.257187 0.0139488)
(-0.00296847 0.208067 0.0591826)
(-0.000144457 0.11846 0.0215153)
(0.000666804 0.0753463 0.0105837)
(0.00136277 0.0545278 0.00216764)
(0.00277064 0.23104 0.0239548)
(0.0026581 0.12673 0.00910347)
(0.00314731 0.0780952 0.00475721)
(0.00262154 0.0561716 0.00137236)
(-0.00778665 0.202402 0.0605578)
(-0.000658221 0.116946 0.0227245)
(0.00197829 0.0752853 0.0122737)
(0.00370535 0.0551149 0.00356864)
(0.00628194 0.229368 0.0283295)
(0.00605133 0.1271 0.0117619)
(0.00663734 0.0792691 0.00744522)
(0.00572895 0.057184 0.00333188)
(-0.0143609 0.19231 0.068389)
(-0.00273324 0.114937 0.0266772)
(0.00156487 0.0769497 0.0156357)
(0.00579898 0.0555152 0.00559957)
(-0.00082372 0.222936 0.0468019)
(0.00426464 0.128264 0.0220215)
(0.00464048 0.0824012 0.011249)
(0.00585353 0.0579648 0.00476114)
(0.000159171 0.232741 0.0324615)
(0.00276355 0.132779 0.018329)
(0.00122151 0.0816762 0.00676546)
(0.00152662 0.0590491 0.00177638)
(-0.00597763 0.238341 0.0320945)
(-0.00101219 0.13752 0.0198145)
(0.000585023 0.0838206 0.00948051)
(0.0019502 0.0602103 0.0045102)
(-0.034568 0.203557 0.054865)
(-0.0108205 0.121293 0.024231)
(-0.00600904 0.0802008 0.0119702)
(0.00191973 0.0569208 0.0021769)
(-0.0491865 0.171385 0.0513681)
(-0.0159231 0.109568 0.0220948)
(-0.0120609 0.076035 0.0130142)
(0.0026796 0.0528815 0.000863612)
(-0.0283562 0.17969 0.0703392)
(-0.00831268 0.111387 0.0280636)
(-0.00375457 0.077388 0.0168276)
(0.00519077 0.0534657 0.00483341)
(-0.039944 0.156669 0.0619754)
(-0.0127937 0.102931 0.0244406)
(-0.0105917 0.0732927 0.0157912)
(0.00292553 0.0506487 0.000709552)
(-0.0318219 0.217695 0.0400971)
(-0.010311 0.128487 0.0199875)
(-0.00543224 0.0820948 0.00925702)
(0.00150837 0.0586556 0.00173822)
(-0.0541861 0.180718 0.0387944)
(-0.0175841 0.114785 0.0185449)
(-0.012858 0.077951 0.01074)
(0.00360142 0.0540902 0.00222417)
(-0.0334331 0.225652 0.0281831)
(-0.011647 0.133647 0.0162434)
(-0.00501315 0.0841724 0.00882752)
(0.00268246 0.0596669 0.00447023)
(-0.0568694 0.186159 0.0258106)
(-0.018565 0.118709 0.0144945)
(-0.0133947 0.0799572 0.00892442)
(0.00400234 0.0549344 0.00445983)
(-0.00262288 0.16184 0.0746868)
(-0.000368552 0.104698 0.0263578)
(-7.03908e-06 0.0714985 0.0136146)
(0.00108349 0.0517059 0.00122028)
(-0.0020081 0.115891 0.0757699)
(-0.000198525 0.088927 0.025582)
(-0.000457989 0.06656 0.0159391)
(0.00119434 0.0474804 -0.00164747)
(-0.00697118 0.157626 0.0740044)
(-0.00111588 0.103443 0.0265318)
(0.000121632 0.0716744 0.0145637)
(0.00300894 0.051804 0.0018278)
(-0.00328531 0.115554 0.0726318)
(0.000214796 0.0888819 0.0246284)
(-0.000737733 0.0666365 0.0158246)
(0.00330575 0.047686 -0.00150007)
(-0.0233617 0.151313 0.0738407)
(-0.00657083 0.101659 0.0269712)
(-0.00320349 0.0724755 0.0166516)
(0.00420447 0.0519135 0.00304268)
(-0.0174019 0.118366 0.0650003)
(-0.00420267 0.0902062 0.0221884)
(-0.00326397 0.0671525 0.0155385)
(0.00533059 0.0483313 -0.00048066)
(-0.0102805 0.145438 0.0680542)
(-0.00170229 0.0990173 0.0255432)
(-0.000646165 0.0718912 0.0175905)
(0.00592388 0.0517076 0.00566309)
(-0.00672436 0.119905 0.0714161)
(-0.000603318 0.090892 0.0247808)
(-0.00171661 0.0687603 0.0194926)
(0.00548883 0.0487778 0.000248817)
(-0.033321 0.137831 0.0520901)
(-0.0100644 0.0963991 0.0195961)
(-0.00864981 0.069695 0.013751)
(0.00553168 0.048596 0.00267821)
(0.00120876 0.0697283 0.06064)
(0.000855652 0.0746064 0.0186185)
(0.000361196 0.0546872 0.0122234)
(0.0011201 0.016926 -0.00201691)
(0.00410779 0.0201402 0.0233758)
(0.00172728 0.0671453 0.00658587)
(0.000851908 0.0492941 0.003801)
(0.000771869 0.015853 -0.000177298)
(0.000997133 0.0751954 0.0601537)
(0.00159704 0.0767258 0.0188459)
(0.000322721 0.0557187 0.0123619)
(0.00282555 0.0177894 -0.00165947)
(0.0101902 0.0278183 0.0239682)
(0.0044708 0.069559 0.00692825)
(0.00199882 0.0501125 0.00409046)
(0.0019818 0.0161478 9.86591e-05)
(-0.00206586 0.0841749 0.0569818)
(0.0010352 0.0800105 0.0182917)
(-0.000125964 0.056597 0.0125356)
(0.00439386 0.0176981 -0.00097372)
(0.0143437 0.0400042 0.0233703)
(0.00648236 0.0735552 0.00698677)
(0.00296519 0.0510557 0.00440109)
(0.00297975 0.016265 0.000469725)
(-0.00207285 0.0975277 0.0482724)
(0.00145222 0.0843105 0.0156117)
(-0.000175382 0.0583727 0.0118732)
(0.00576268 0.0188958 -0.000144841)
(0.0160045 0.0553615 0.0207424)
(0.00767725 0.0787368 0.00617454)
(0.00319246 0.0527836 0.0046277)
(0.00336554 0.0169205 0.000938411)
(-0.00840395 0.117297 0.0423542)
(6.77778e-05 0.0902983 0.014403)
(-0.00292434 0.0613734 0.0110841)
(0.0049715 0.0211444 0.000989374)
(0.0102852 0.0735847 0.0189544)
(0.00682003 0.0840554 0.0061775)
(0.00187145 0.0545025 0.00488705)
(0.00285417 0.017461 0.00151514)
(-0.0327821 0.132216 0.0319596)
(-0.00500966 0.0977614 0.0130278)
(-0.00747097 0.0632364 0.0077328)
(0.0037414 0.0201698 0.00110699)
(-0.00900901 0.0763248 0.0169311)
(0.00164138 0.0908834 0.00785823)
(-0.000756367 0.0581338 0.00432791)
(0.00153672 0.0182421 0.00197897)
(-0.0202518 0.129294 0.0346364)
(-0.00172947 0.0944449 0.0123879)
(-0.00575098 0.0618408 0.00886457)
(0.00412957 0.0201909 0.00102429)
(-0.00109942 0.0769636 0.0171954)
(0.00429489 0.0882017 0.00667238)
(0.000376039 0.0562034 0.00456929)
(0.00216502 0.0177705 0.00184832)
(-0.0433423 0.132611 0.0274804)
(-0.00911047 0.100147 0.0131656)
(-0.00924444 0.0640228 0.0072985)
(0.00390222 0.0191068 0.00181572)
(-0.0141161 0.0742329 0.0163146)
(-0.000918841 0.0931702 0.00871053)
(-0.00171978 0.0593528 0.00444508)
(0.00119065 0.018223 0.00237852)
(-0.0505799 0.132214 0.0204645)
(-0.0131442 0.102869 0.0118848)
(-0.0109721 0.0660149 0.00701654)
(0.0036463 0.0195129 0.00365573)
(-0.0184233 0.0791731 0.0143517)
(-0.00376707 0.0959559 0.00885393)
(-0.00276743 0.0610452 0.00502852)
(0.000838625 0.0186214 0.00324871)
(0.000503438 0.0408251 0.000637607)
(0.000228854 0.0268587 0.000240511)
(0.000107288 0.0164618 0.000109397)
(5.32055e-05 0.00877563 5.5482e-05)
(3.27432e-05 0.00274133 3.49144e-05)
(0.000752899 0.0411923 0.000300815)
(0.000358539 0.0269489 0.000118315)
(0.000172392 0.0164944 5.50304e-05)
(8.71212e-05 0.00878897 2.83908e-05)
(5.40721e-05 0.00274503 1.81603e-05)
(0.00104685 0.0415521 0.000975803)
(0.00048583 0.0270895 0.000428591)
(0.000227687 0.0165604 0.000206393)
(0.000113311 0.00881722 0.000106558)
(7.04834e-05 0.00275275 6.71907e-05)
(0.00197078 0.0418638 0.000801904)
(0.000979199 0.0272239 0.000389377)
(0.00047814 0.0166214 0.000191231)
(0.00024479 0.00884418 9.9034e-05)
(0.000153321 0.00276044 6.24446e-05)
(0.00154331 0.0419179 0.00184262)
(0.000715374 0.0273248 0.000909871)
(0.000337133 0.0166689 0.000452761)
(0.000169328 0.00886356 0.000237218)
(0.000106137 0.00276551 0.000150674)
(0.00287987 0.0420447 0.00316999)
(0.00140549 0.0276102 0.00160908)
(0.000689979 0.0168152 0.000809488)
(0.00035629 0.00893055 0.000424461)
(0.000224596 0.0027849 0.000268976)
(0.000943709 0.0435497 0.00314063)
(0.000454912 0.0281799 0.00166223)
(0.000225383 0.0170981 0.000853341)
(0.000117416 0.00905995 0.000452261)
(7.43711e-05 0.00282212 0.000288688)
(0.000464389 0.0442822 0.00320116)
(0.00023456 0.0286923 0.00169234)
(0.000117193 0.0173751 0.00086947)
(6.13123e-05 0.00918987 0.000461615)
(3.87957e-05 0.00285981 0.000295618)
(0.00138885 0.0431533 0.00225319)
(0.000600025 0.0278874 0.0011753)
(0.00028397 0.0169312 0.000601855)
(0.000144265 0.00897974 0.00031892)
(9.01246e-05 0.00279854 0.000202365)
(0.000246443 0.0436744 0.00173995)
(7.9664e-05 0.0279692 0.000920658)
(3.21767e-05 0.016947 0.000474421)
(1.47202e-05 0.00898324 0.000252826)
(8.6668e-06 0.00279911 0.000160962)
(0.00223056 0.0421168 0.00238479)
(0.00101993 0.0275846 0.00119429)
(0.000490237 0.0167859 0.00059991)
(0.000251276 0.00891362 0.000316601)
(0.000158059 0.00277936 0.000201318)
(0.000556656 0.0432281 0.00173501)
(0.000220061 0.0277868 0.000835369)
(0.00010016 0.0168592 0.000417402)
(4.96716e-05 0.00894313 0.000220549)
(3.04211e-05 0.00278743 0.000139727)
(0.000348175 0.0438175 0.00240247)
(0.000109213 0.0282212 0.00134215)
(4.29246e-05 0.0171032 0.000701301)
(1.95553e-05 0.00905971 0.000374774)
(1.15887e-05 0.00282177 0.000239657)
(0.000246334 0.0442062 0.00221891)
(8.88278e-05 0.0282855 0.0012281)
(3.86329e-05 0.0171126 0.000640632)
(1.88456e-05 0.00906062 0.000342522)
(1.15714e-05 0.00282166 0.00021898)
(0.000272562 0.0443602 0.00286004)
(8.77386e-05 0.0287554 0.00154335)
(3.52534e-05 0.0174023 0.000796881)
(1.6359e-05 0.00920131 0.000423831)
(9.43001e-06 0.00286302 0.000271354)
(0.000113142 0.0448136 0.00272707)
(1.73924e-05 0.0287987 0.0014839)
(2.73713e-06 0.0174026 0.000768398)
(3.17809e-08 0.00919878 0.000408995)
(-6.0319e-07 0.00286209 0.000261437)
(0.000395864 0.0403048 0.000523338)
(0.000170906 0.0267496 0.000204951)
(7.68146e-05 0.0164248 9.28025e-05)
(3.68147e-05 0.00876098 4.69312e-05)
(2.22051e-05 0.0027373 2.95354e-05)
(0.000410148 0.040307 0.0001821)
(0.000168129 0.026696 8.02724e-05)
(7.38865e-05 0.0164022 3.71716e-05)
(3.50603e-05 0.00875178 1.91743e-05)
(2.1057e-05 0.00273477 1.23553e-05)
(0.000930361 0.0407461 0.000712466)
(0.000392418 0.026931 0.00030597)
(0.000175513 0.0164994 0.000145843)
(8.41975e-05 0.00879132 7.53475e-05)
(5.11028e-05 0.00274544 4.79333e-05)
(0.000962699 0.040734 0.000213863)
(0.000383146 0.0268638 0.000102019)
(0.000168132 0.0164688 4.9232e-05)
(7.99045e-05 0.0087783 2.57146e-05)
(4.80242e-05 0.00274185 1.67196e-05)
(0.00120636 0.0413676 0.000880336)
(0.000480588 0.0271699 0.000433846)
(0.000212599 0.0165965 0.000215339)
(0.000101363 0.00883086 0.000113463)
(6.14681e-05 0.00275605 7.30911e-05)
(0.00120191 0.0415951 0.00045615)
(0.00047719 0.027106 0.000221171)
(0.000211746 0.0165605 0.000106585)
(0.000101186 0.0088148 5.46699e-05)
(6.1573e-05 0.00275155 3.51019e-05)
(0.00166834 0.0422824 0.00203167)
(0.000730784 0.0274439 0.00100299)
(0.000344348 0.0167074 0.000497344)
(0.000173983 0.00887678 0.000262693)
(0.000109169 0.0027685 0.000168543)
(0.000857854 0.0425425 0.0010235)
(0.000357468 0.0273578 0.000500072)
(0.000162519 0.0166627 0.000245087)
(7.90007e-05 0.00885669 0.000128656)
(4.905e-05 0.00276267 8.27505e-05)
(0.000982356 0.0427959 0.00233111)
(0.000444982 0.0276309 0.00107555)
(0.000213603 0.0167886 0.000524843)
(0.000109772 0.00891162 0.000274031)
(6.91751e-05 0.00277825 0.000173593)
(-0.0200622 0.432501 0.126657)
(-0.0254534 0.675311 0.220306)
(-0.0556699 0.45099 0.120538)
(-0.0730008 0.687237 0.214362)
(-0.0856646 0.481559 0.113912)
(-0.117783 0.706591 0.200358)
(-0.102841 0.518025 0.112409)
(-0.15578 0.74712 0.193509)
(-0.0980584 0.554225 0.120256)
(-0.149225 0.819025 0.216654)
(-0.0900413 0.490663 0.0723257)
(-0.125693 0.604221 0.0995583)
(-0.0770233 0.512194 0.0972767)
(-0.0965473 0.660914 0.148635)
(-0.111073 0.483498 0.0487773)
(-0.154569 0.590435 0.0601577)
(-0.119671 0.475956 0.019521)
(-0.164733 0.585968 0.0242016)
(-0.0245795 0.350578 0.373974)
(-0.00544961 0.0631529 0.0906856)
(-0.00119804 0.0140008 0.0209567)
(-0.000256709 0.00317173 0.00468121)
(-6.30403e-05 0.000562612 0.00118428)
(-0.00917337 0.417928 0.100262)
(-0.0035623 0.116126 0.026742)
(-0.000359443 0.0284764 0.00719849)
(-0.000109323 0.00650758 0.00162479)
(-4.66617e-05 0.00114415 0.000366446)
(-0.079456 0.356101 0.369132)
(-0.0177372 0.0619258 0.0882993)
(-0.00392226 0.0134848 0.0202629)
(-0.000847081 0.00302849 0.0044949)
(-0.000209579 0.000534352 0.0011322)
(-0.0235007 0.423107 0.103752)
(-0.00500586 0.115978 0.0302979)
(-0.00101673 0.0280913 0.00749284)
(-0.000198525 0.00633987 0.00174975)
(-4.22481e-05 0.00111124 0.000442378)
(-0.139162 0.365992 0.352448)
(-0.0312459 0.0613338 0.0829087)
(-0.00695204 0.0130353 0.0188317)
(-0.00151572 0.00289127 0.0041477)
(-0.000378498 0.000507001 0.00103944)
(-0.0419083 0.433593 0.100743)
(-0.0101172 0.116405 0.0292522)
(-0.00226621 0.0277093 0.00717398)
(-0.00050256 0.00618452 0.00165773)
(-0.000123474 0.00107693 0.000415134)
(-0.197346 0.37721 0.3259)
(-0.044571 0.0602612 0.0751931)
(-0.0100197 0.0124954 0.0169342)
(-0.00221109 0.00274668 0.003718)
(-0.000559418 0.000480497 0.000931633)
(-0.059215 0.44695 0.0964947)
(-0.0157599 0.116832 0.0273435)
(-0.00379768 0.0274016 0.00657122)
(-0.000888008 0.00607583 0.00149424)
(-0.000229473 0.00105548 0.000369083)
(-0.27125 0.383688 0.280869)
(-0.0630688 0.0589309 0.0638623)
(-0.0144942 0.0121502 0.0143763)
(-0.00325999 0.00268654 0.00317033)
(-0.000839893 0.000473178 0.000800238)
(-0.0796929 0.456592 0.0887475)
(-0.02419 0.116607 0.0240194)
(-0.00618864 0.0273331 0.00564546)
(-0.00149296 0.00609736 0.00126827)
(-0.000395876 0.00106576 0.000310585)
(-0.35585 0.359061 0.15366)
(-0.0905035 0.0656917 0.0373623)
(-0.0220044 0.015066 0.0087237)
(-0.00516259 0.00354697 0.00197143)
(-0.00137464 0.000647953 0.0005071)
(-0.0941692 0.402543 0.0455559)
(-0.0300104 0.116626 0.0116397)
(-0.00790386 0.0296236 0.00256157)
(-0.00193798 0.00700529 0.000535585)
(-0.000522286 0.00127318 0.000124006)
(-0.328318 0.371459 0.216698)
(-0.0808817 0.0632775 0.0511812)
(-0.0191718 0.0138131 0.0117281)
(-0.00440586 0.00314966 0.00261573)
(-0.00115365 0.000564362 0.000666855)
(-0.0900824 0.425345 0.0630227)
(-0.0292629 0.11727 0.0165005)
(-0.00771531 0.0286143 0.00379985)
(-0.00188923 0.00655682 0.000843149)
(-0.000504837 0.00116668 0.00020538)
(-0.368093 0.351805 0.0957339)
(-0.0948603 0.0671926 0.0238836)
(-0.0233614 0.0158625 0.00566157)
(-0.00554533 0.0038136 0.00129288)
(-0.00149067 0.000706285 0.000334693)
(-0.0974779 0.393278 0.0293142)
(-0.0299702 0.11611 0.00768425)
(-0.00774964 0.0301408 0.00167392)
(-0.00187611 0.00727235 0.000336134)
(-0.000503791 0.00134184 7.48427e-05)
(-0.377805 0.347572 0.0352376)
(-0.0970415 0.0658252 0.00890759)
(-0.0240045 0.0156074 0.00213129)
(-0.00573121 0.00378393 0.000490614)
(-0.00154918 0.00070563 0.000127804)
(-0.0983378 0.388522 0.0140533)
(-0.0302094 0.114479 0.00342264)
(-0.00779095 0.0299218 0.000715834)
(-0.00175156 0.00727777 0.000190537)
(-0.000497792 0.00135066 3.02313e-05)
(-0.0119357 1.50319 -0.0670799)
(-0.283737 2.11635 0.0174206)
(-0.277998 1.88884 0.176927)
(-0.15488 1.40839 -0.156925)
(0.15559 0.778289 0.0406313)
(0.21393 0.819176 0.0433558)
(0.429202 1.24124 0.1091)
(0.565882 1.24993 0.133374)
(0.242407 0.843711 0.0908351)
(0.492318 0.905558 0.146661)
(0.0862916 1.35301 0.122458)
(0.290382 1.81493 0.185042)
(0.237481 2.00659 0.118545)
(0.399131 2.73918 0.154574)
(0.442524 1.01894 0.0564706)
(0.613073 1.12403 0.0820911)
(0.53221 0.818965 0.0607453)
(0.607564 0.801548 0.0707804)
(0.303692 0.565961 0.0421244)
(0.344506 0.583294 0.0436542)