/*--------------------------------*- C++ -*----------------------------------*\
| =========                 |                                                 |
| \\      /  F ield         | OpenFOAM: The Open Source CFD Toolbox           |
|  \\    /   O peration     | Version:  2412                                  |
|   \\  /    A nd           | Website:  www.openfoam.com                      |
|    \\/     M anipulation  |                                                 |
\*---------------------------------------------------------------------------*/
FoamFile
{
    version     2.0;
    format      ascii;
    arch        "LSB;label=32;scalar=64";
    class       volScalarField;
    location    "1.3";
    object      gradTx;
}
// * * * * * * * * * * * * * * * * * * * * * * * * * * * * * * * * * * * * * //

dimensions      [0 -1 0 1 0 0 0];

internalField   nonuniform List<scalar> 
5712
(
-8598.56
-10528.3
-19573.3
-30691.4
-29689.3
-57903
-20430
-61440.8
-21022.1
-49206.3
-25865.3
-42622.2
-19746
-26226.2
-10632.8
-10831.5
-14314.8
-16401.2
-19391.6
-17675.7
-13399.6
-20171.8
-19887.8
-19907.4
-5718.01
-4227.09
-7737.89
-5605.93
-13037.2
-8667.15
-23959.3
-16901.6
-19920
-20349.2
-20486.8
-21127.1
-4964.66
-4278.09
-45967.9
-56822.8
-24578.9
-32718.2
-58837.5
-72456.8
-27301.1
-33592.4
-34654.3
-45272.1
-27766.7
-38324.6
-16063.2
-20242.3
-3373.72
-1079.2
-4348.86
-1519.58
-7571.94
-3130.31
-12935.2
-4779.58
-8691.73
-2886.12
-8557.04
-2437.37
-16684.5
-4885.55
-21811.9
-6877.37
-27684.7
-15975.4
-23310.7
-16118
-27973.2
-18068
-22144.3
-17786.3
-18352.4
-13279.4
-20292.1
-12953.7
-22610.9
-16580.3
-23370.9
-16968.3
-21686.5
-18061.5
-22539.7
-18381.3
-18854.2
-13945.2
-20290.3
-14419.6
-20296.9
-8447.43
-11756
-13559.3
-21937.3
-9833.12
-11813.6
-14378.9
-20285.8
-7826.31
-12207.7
-13249.7
-20956.1
-7856.06
-12782
-13310.8
-3270.96
-3711.92
-1161.53
-2384.57
-9407.53
-11103.9
-3950.78
-7708.78
-15320.9
-18215.7
-7172.18
-13007.7
-18252.7
-9483.75
-19176.3
-23679
-12249.5
-6721.17
-10802
-13318.5
-24075.1
-16193.9
-10973.7
-14634.2
-16556.4
-16430.3
-20770.4
-3569.67
-3626.69
-2255.73
-2391.35
-10563.9
-9866.93
-7023.34
-7058.57
-15800.9
-14109.9
-10442.7
-10362.2
-9882.46
-10967.5
-15579.6
-16547.5
-18235.3
-17095.7
-22131.4
-20093.7
-16005.6
-15886.4
-13603.4
-14322.1
-17627.8
-15507.3
-16898.9
-13580.9
-15466.7
-11874.8
-17783.9
-13827.5
-14613.4
-7187.58
-11570.9
-10892.3
-16067.7
-18199.1
-16428.4
-21026
-9861.55
-9373.97
-13363.4
-5289.65
-11298.1
-17423.9
-11774.3
-18753.3
-16731.7
-25921.6
-17372.3
-26701.6
-9721.46
-15532.5
-10161.5
-16983.8
-12061.7
-8606.74
-15817
-6780.44
-12896.6
-3993.28
-14914
-2779.8
-12662.8
-12679.8
-16639.7
-8381.46
-11520.3
-14753
-15358.5
-10757.7
-3318.97
-3020.47
-2492.73
-2158.84
-2073.08
-1758.83
-8838.11
-7339.3
-6148.62
-5923.01
-4760.78
-3858.46
-11381.2
-9215.2
-8137.63
-8565.92
-6557.48
-5690.07
-9562.63
-7269.05
-6630.89
-15179.1
-10586.1
-8189.38
-14162.8
-9749.34
-7143.87
-16030.4
-11885
-9536.03
-13161.3
-8501.74
-5974.47
-17892.9
-13781.8
-11689.9
-13492
-10063.9
-7861.59
-12327.5
-8698.4
-6398.38
-11412.4
-8005.43
-5914.48
-12946.7
-7369.65
-4240.15
-11975.4
-19367.1
-10263.1
-14545.1
-9972.05
-20333.2
-8430.41
-16734
-142.869
-1703.01
280.624
-1025.61
-3570.46
-6711.6
-2289.73
-4153.13
-1967
-4001.32
-11282.4
-16638.4
-8769.97
-6722.88
-12233.7
-10719.2
-16686.2
-17899.6
531.621
5730.72
-8661.7
-6041.04
-6784.59
-3886.63
-1570.64
-1000.8
-1306.33
-819.569
-3887.39
-1208.57
-2019.78
-314.678
-10014.9
-2889.86
-7693.34
-2379.34
-8739.76
-2623.7
-9859.81
-3195.68
-12805.4
-12421.1
-9928.93
-12235.2
-19784.4
-17597.6
-16132.7
-16637.3
-7164.45
-9121.13
-8376.27
-8466.49
-9275.48
-12097
-9733.3
-12175.7
-15381.4
-16237.2
-15933.1
-16321.9
-6317.36
-9201
-6091.66
-9281.21
-594.415
-1142.93
-7001.6
-3523.13
-594.306
-908.621
-6142.89
-2960.23
-593.119
-1024.14
-7363.31
-3881.01
-876.461
-1126.1
-7408.76
-4084.92
199.715
352.594
-450.418
-266.808
906.529
1430.74
-686.309
-359.188
-996.552
56.2663
-2263.31
-1842.8
7393.45
3738.92
4369.48
3029.7
184.161
7021.39
10112.5
4725.71
4863.41
226.902
-9847.28
-7021.26
-5469.76
-5333.2
-2778.24
523.071
424.094
-127.999
-179.364
1482.61
1547
-330.881
-418.502
1324.95
1760.44
-1074.37
-1176.25
2827.26
1161.84
7611.39
5052.47
4022.28
2693.06
3751.45
2971.55
40.9444
-489.388
-5289.42
-3736.9
220.492
1750.33
612.637
1672.9
-173.312
769.499
-364.178
-582.436
-4139.7
-4458.99
-9547.45
-6015.52
-8860.07
-8375.46
-13127.9
-10088.9
-6977.6
-4196.51
-2359.01
-2975.11
-11258.1
-4804.87
-12074.1
-4478.62
-15050.4
-9783.34
-16053.7
-9490.78
-8400.06
-3051.59
-9116.39
-2646.04
-4828.9
-3716.94
-3163.12
-5625.69
-2247.38
-2965.26
-1937.29
-4659.11
-5325.31
-3394.62
-3903.94
-6473.39
-6517.02
-3142.7
-4757.67
-6325.43
474.932
550.074
616.81
-113.962
107.207
138.401
1668.32
1829.61
1899.48
-135.919
437.363
507.722
2043.74
2628.36
2851.76
-602.987
764.714
1023.78
378.236
958.172
844.6
3472.88
3646.17
3317.63
2678.67
3016.14
2868.7
2928.68
3409.41
3428.24
-269.137
1102.08
1014.27
-4375.84
-2249.22
-1337.65
645.575
1672.47
2013.1
1006.62
1995.29
2242.29
655.588
1778.1
2001.02
-1247.07
716.54
835.493
-74.2117
-3.61143
16.6701
34.0691
69.2661
66.4524
78.6828
65.5386
-194.666
-16.4555
49.4571
92.6337
157.048
151.283
165.933
143.224
-359.023
-68.3311
39.1218
144.974
-20.593
106.616
116.012
146.338
3.97927
69.0888
30.5378
38.1654
-149.441
-25.3047
14.6256
48.7549
-864.2
-270.512
-150.226
47.9933
-1229.66
-398.078
-301.522
66.9901
-708.904
-207.817
-93.8643
129.769
-998.6
-319.842
-264.794
73.1383
-795.548
-257.776
-135.806
37.7093
-1354.65
-439.601
-321.451
90.0355
-835.828
-291.174
-125.329
67.0614
-1421.73
-464.126
-334.867
100.059
-65.5721
-9.21381
-0.175977
27.0872
-50.2025
-4.96313
-11.4497
29.8584
-174.28
-27.8969
3.0408
75.2234
-82.1328
5.36991
-18.4433
82.6437
-584.042
-164.271
-80.0873
105.112
-435.046
-105.067
-81.5992
133.265
-257.012
-42.5572
-16.1541
148.097
-168.109
-15.0829
-42.9154
137.221
-833.025
-251.61
-216.245
138.292
30.2191
21.3913
9.0299
28.0026
102.695
43.1819
21.2977
19.2967
24.9283
39.926
8.06802
70.6386
254.754
111.77
49.9704
49.545
-51.6464
25.88
-3.14909
109.846
358.592
162.059
74.1297
74.4939
-51.8214
36.3055
-4.38454
144.067
400.112
191.931
79.8114
84.1385
-210.099
1.69445
-73.1085
124.288
257.129
170.501
46.7862
71.3542
-819.552
-125.241
-186.774
93.535
-225.225
41.0345
-18.9092
38.4181
-506.296
-43.2367
-143.774
103.239
-27.4855
107.372
9.40098
54.1254
-1083.56
-227.762
-231.111
97.5556
-352.902
-22.971
-42.9944
29.7663
-1264.5
-328.605
-274.302
91.1575
-460.583
-94.1768
-69.1857
20.9656
12.586
5.72135
2.6822
1.33014
0.81858
18.8225
8.96347
4.3098
2.17803
1.3518
26.1711
12.1457
5.69218
2.83276
1.76209
49.2696
24.48
11.9535
6.11975
3.83303
38.5828
17.8844
8.42832
4.23319
2.65341
71.9967
35.1372
17.2495
8.90725
5.6149
23.5927
11.3728
5.63459
2.93539
1.85928
11.6097
5.864
2.92983
1.53281
0.969892
34.7213
15.0006
7.09926
3.60664
2.25311
6.16108
1.9916
0.804417
0.368005
0.21667
55.764
25.4983
12.2559
6.28189
3.95149
13.9164
5.50152
2.50401
1.24179
0.760527
8.70439
2.73033
1.07312
0.488883
0.289717
6.15836
2.22069
0.965821
0.47114
0.289286
6.81405
2.19347
0.881334
0.408974
0.23575
2.82856
0.43481
0.0684282
0.000794522
-0.0150798
9.89661
4.27265
1.92036
0.920367
0.555128
10.2537
4.20321
1.84716
0.876507
0.526426
23.259
9.81044
4.38783
2.10494
1.27757
24.0675
9.57866
4.20331
1.99761
1.20061
30.159
12.0147
5.31498
2.53406
1.5367
30.0479
11.9297
5.29364
2.52965
1.53932
41.7085
18.2696
8.60869
4.34958
2.72923
21.4464
8.93669
4.06299
1.97502
1.22625
24.5589
11.1245
5.34007
2.7443
1.72938
-501.556
-636.336
-1391.75
-1825.02
-2141.61
-2944.58
-2571.02
-3894.5
-2451.46
-3730.61
-2251.03
-3142.32
-1925.58
-2413.68
-2776.82
-3864.23
-2991.76
-4118.32
-614.489
-136.24
-29.9511
-6.41773
-1.57601
-229.334
-89.0575
-8.98606
-2.73308
-1.16654
-1986.4
-443.43
-98.0565
-21.177
-5.23946
-587.518
-125.146
-25.4183
-4.96312
-1.0562
-3479.05
-781.147
-173.801
-37.8929
-9.46245
-1047.71
-252.929
-56.6551
-12.564
-3.08686
-4933.64
-1114.27
-250.493
-55.2773
-13.9854
-1480.37
-393.999
-94.9421
-22.2002
-5.73683
-6781.24
-1576.72
-362.354
-81.4997
-20.9973
-1992.32
-604.751
-154.716
-37.324
-9.89689
-8896.24
-2262.59
-550.109
-129.065
-34.366
-2354.23
-750.26
-197.596
-48.4495
-13.0572
-8207.96
-2022.04
-479.294
-110.146
-28.8413
-2252.06
-731.573
-192.883
-47.2307
-12.6209
-9202.32
-2371.51
-584.035
-138.633
-37.2666
-2436.95
-749.254
-193.741
-46.9028
-12.5948
-9445.11
-2426.04
-600.112
-143.28
-38.7294
-2458.44
-755.234
-194.774
-43.7891
-12.4448
-298.392
-7093.42
-6949.96
-3871.99
3889.74
5348.25
10730.1
14147
6060.18
12308
2157.29
7259.54
5937.03
9978.27
11063.1
15326.8
13305.3
15189.1
7592.31
8612.65
-19047.2
-14025
-3642.1
-2650.78
-2022.15
-3209.6
-2350.24
-12134
-11356.9
-9867.42
-10022.8
-7924.63
-5447.57
-7807.23
-4515.6
-3432.79
-4176.07
-2656.13
-20151
-9619.17
-2610.05
-4486.71
-7146.28
-4706.53
-5305.2
-3924.72
-1813.29
-3039.01
-2812.08
-3304.25
-19024.3
-11575.6
-11535.4
-7157.33
-7435.42
-7636.09
-3409.9
-4225.37
-4694.33
-12505.6
-11476.2
-9335.15
-8627.46
-7263.53
-9833.06
-7121.61
-5645.34
-4422.64
-1897.88
-3197.32
-2627.79
-1950.93
-1204.71
-407.633
-2356.01
-1960.13
-1465.6
-905.917
-306.504
-1785.41
-1473.94
-1093.48
-671.801
-226.619
-2856.32
-2378.49
-1777.93
-1097.62
-371.036
-2074.54
-1713.06
-1272.62
-783.465
-264.645
-7870.05
-6479.63
-4943.89
-4294.58
-4292.52
-6119.13
-4691.95
-3187.29
-2439.93
-1915.24
-6796.57
-4585.79
-3350.3
-2386.34
-1003.01
-5392.37
-3928.45
-2630.99
-1939.14
-1269.93
-4003.25
-2731.87
-1761.87
-1353.16
-760.875
-4308.63
-3210.25
-2248.97
-1375.79
-479.99
-5586.98
-3855.61
-2685.44
-1717.27
-662.344
-3158.11
-2082.78
-1390.74
-856.843
-317.052
-2818.07
-2165.46
-1531.92
-926.859
-315.111
-3346.74
-2507.7
-1742.39
-1044.2
-354.671
-2206.13
-1711.83
-1214.56
-731.611
-246.719
-13384.7
-10708
-8487.23
-7369.67
-6353.33
-7303.2
-5352.35
-3963.19
-2731.41
-1105.72
-2155.37
-1669.09
-1193
-730.178
-250.146
-3767.73
-2970.96
-2160.41
-1340.58
-461.847
-5833.57
-4500.48
-3287.8
-2101.17
-748.21
-3981.32
-3161.33
-2316.3
-1444.56
-495.166
-4570.03
-3685.65
-2714.57
-1681.56
-568.967
-3393.49
-2746.66
-2017.24
-1241.01
-420.614
-1553.67
-1243.03
-899.951
-545.937
-183.618
-2655.35
-2169.03
-1597.16
-978.409
-330.035
-2374.67
-1875.49
-1350.9
-822.436
-278.53
-2836.58
-2279.34
-1664.75
-1021.59
-346.549
-12437.9
-10725
-8734.4
-7865.51
-6425.06
-8433.93
-6158.62
-4786.83
-3583.48
-1525.02
-9056.19
-7127.69
-5442.27
-4055.51
-1716.75
-5773.57
-4283.46
-3185.3
-2119.62
-670.765
-6193.43
-4821.66
-3546.62
-2253.17
-754.557
-6137.6
-4528.78
-3354.01
-2225.44
-685.925
-2913.35
-2331.24
-1705.29
-1053.1
-358.094
-3692.91
-3019.75
-2230.1
-1371.58
-463.677
-4008.46
-3208.18
-2350.47
-1455.02
-495.7
-6927.02
-15278.8
-12087.1
-39693.1
-11301.6
-51416.8
-7644.77
-20279.8
-9852.46
-8348.18
-19556.7
-15268.2
-9905.22
-11875.3
-21218.5
-17498.2
-4375.7
-2996.66
-10139.4
-7168.01
-7628.31
-3994.33
-27874.3
-19770.7
-16624.3
-11472.6
-17386.6
-11329.4
2005.38
-1627.71
-47334.4
-57362.2
-23829.5
-32619
-59933.5
-72914.7
-26398.5
-33380.8
-35559
-45786.3
-27054.7
-38328
-17315.8
-20754.9
-2381.55
-457.919
-5226.62
-1688.67
-4499.92
-2148.44
-14599.7
-5232.64
-2246.5
-1093.56
-6331.57
-1765.17
-16747.5
-4842
-22021.3
-6924.63
-19991.1
-12399.8
-20728
-14348.2
-19128.1
-13720.6
-19191.8
-15723
-16571.2
-11925.9
-15196.3
-10350.1
-21585
-15772.4
-23123
-16741.4
-20471.7
-17146.6
-22207.1
-18122
-18215
-13314.5
-20151.7
-14240.1
-19305.7
-8185.53
-10770.1
-13108.4
-18854
-8990.23
-9847.01
-13502.1
-20015.1
-7748.73
-11751.8
-13032.9
-20928.6
-7847.63
-12650.7
-13250
-719.276
-554.355
118.942
-818.466
-2723.04
-3432.18
-1981.24
-5226.59
-4164.1
-5647.37
-4413.41
-9616.1
-17880.5
-16843.5
-14661.9
-17477.2
-10759
-11061
-8891.26
-8151.54
-17313.3
-14654.6
-13519.2
-13164.8
-12787.8
-12277.7
-18806.5
-814.646
-1032.02
-558.382
-810.222
-3454.73
-3093.88
-3972.78
-3912.42
-3460.22
-1923.05
-6586.56
-6227.2
-12007.4
-12757.9
-11365.1
-11311.8
-10795.5
-8993.62
-14791
-12674.9
-13541.2
-12745.2
-15694.2
-15829.5
-15047.7
-13143.7
-12616.1
-10106.2
-11594
-8846.89
-15908.5
-11617.2
-13611.9
-7715.2
-11151.4
-11047.6
-16505.6
-19222.3
-16437.9
-21383.3
-9273.6
-9387.34
-11875.8
-5536.18
-11106.9
-17419.2
-11706.5
-18735.5
-16725.8
-26179.6
-17342.7
-26718.7
-9462.54
-15456.7
-10080.2
-16954
-11581
-8630.67
-15601.1
-6889.2
-11676.9
-4340.59
-14428.2
-3362.93
-12456.6
-12627.2
-16535.7
-8394.63
-11455.4
-14729.1
-15329.2
-10747.9
-1237.88
-959.998
-735.922
-904.44
-2414.84
-1262.51
-3253.4
-3249.42
-756.528
-568.36
-5697.34
-5490.25
-13637.6
-11547
-11100.5
-8380.32
-7531.75
-5018.03
-10127
-7596.49
-11013.4
-7340.04
-19888
-16597.8
-10672.9
-8379.62
-8542.37
-6066.28
-7641.56
-5095.42
-8820.05
-4320.63
-5878.85
-11303.4
-5372.48
-11155.9
-7622.77
-12417.1
-9052.12
-14097.7
-1628.66
-1514.53
-1415.55
-1409.72
-4569.58
-4747.62
-4207.66
-4323.22
-1627.44
-2051.51
-9042.44
-9846.76
-5431.77
-6101.07
-10873.4
-10374.2
-15426.8
-17528.2
784.541
5676.09
-7771
-5838.45
-6381.04
-3839
-1317.63
-1232.24
-1424.49
-1201.04
-2947.74
-1869.53
-2257.4
-1294.71
-8014.5
-3737.54
-7531.5
-3420.51
-8565.47
-3196.51
-9811.04
-3422.47
-6749.25
-9745.06
-7689.23
-10762
-11899.9
-13461.4
-13322.2
-14611.9
-5874.31
-8389.7
-5023.49
-7449.29
-8301.51
-11445.7
-9443.78
-11989.4
-14155
-15351.6
-15570.4
-16069.6
-5757.77
-8868.71
-5921.8
-9185.4
-542.957
-1457.54
-6901.47
-3692.75
-667.061
-1518.78
-6208.99
-3242.41
-634.358
-1283.91
-7313.32
-4005.83
-898.584
-1234.38
-7381.53
-4143.48
-1197.69
-1340.91
-1233.94
-1362.87
-2910.17
-3189.76
-2086.52
-2336.1
-7177.54
-7651.16
-3853.66
-4131.53
-4127.21
-9713.86
-2603.46
-130.587
-1094.23
-4114.08
-1057.4
-1865.62
1958.95
-624.86
-14282.5
-10120.2
-7453.73
-6924.76
-3463.75
-1593.89
-1688.67
-1570.74
-1836.45
-3738.22
-3925.25
-2728.56
-3289.14
-8016.39
-8798.59
-4119.96
-5020.26
-6144.8
-7424.84
-2024.01
-4041.88
-3230.58
-4455.77
-660.808
-1510.18
-1411.28
-2251.89
-11437.3
-8805.55
-6063.55
-4168.04
-4277.74
-2934.28
-3835.12
-2526.06
-1850.77
-2273.82
-7194
-7621.84
-10857.9
-7354.18
-11219.8
-11013.7
-13928.7
-11212
-8554.85
-5542.03
-5293.34
-5931.71
-11845.5
-5543.63
-12219.2
-4642.25
-15363.9
-10419.2
-16108.1
-9612.13
-9165.65
-3795.78
-9325.38
-2829.84
-6353.2
-4952.44
-4482.92
-7029.81
-4756.98
-5495.75
-3673.89
-6969.33
-6113.81
-4114.44
-4679.7
-7294.53
-6752.75
-3354.32
-5001.71
-6535.21
-1379.07
-1453.54
-1282.9
-1054.86
-4212.79
-4746.27
-2011.71
-1210.28
-9280.54
-7703.74
-2907.38
-372.604
-9206
-7859.54
-5839.01
-4818.01
-4759.09
-3810.14
-1693.17
-916.837
-1598.71
534.51
-8421.16
-6855.74
-4193.78
-3004.72
-2775.38
-1576.68
-2042.75
-821.023
-2956.7
302.947
-246.981
-95.2077
-30.3611
11.3368
-251.823
-112.169
-17.2529
14.251
-632.193
-248.489
-64.1735
44.8025
-571.843
-260.863
-67.1148
2.60716
-937.735
-379.81
-129.611
63.1141
-893.563
-404.626
-209.124
-74.217
-523.222
-250.858
-160.564
-58.7659
-374.475
-166.713
-70.3106
3.54153
-1164.72
-453.029
-280.236
-39.4328
-1325.82
-442.318
-347.846
61.7875
-1162.63
-450.092
-264.359
-4.24674
-1126.26
-377.588
-323.751
66.5617
-1025.68
-400.604
-219.47
8.66787
-1429.71
-475.173
-361.096
71.7117
-934.407
-353.684
-163.114
50.2509
-1455.03
-480.76
-350.083
94.8753
-235.427
-83.2303
-34.9113
15.5384
-235.608
-73.708
-47.6471
19.1172
-604.165
-218.724
-87.8277
45.307
-594.176
-192.644
-118.654
55.7783
-1047.76
-383.559
-199.863
73.763
-1011.92
-344.157
-218.551
98.3588
-1007.09
-396.407
-218.558
36.8968
-749.067
-268.457
-173.325
109.511
-1132.42
-388.201
-328.404
106.4
-176.915
-53.5185
-23.3508
14.9945
-109.151
-37.1226
-10.884
1.93467
-479.433
-148.338
-79.5451
35.1725
-295.099
-104.069
-40.8666
0.936648
-650.173
-214.535
-125.14
56.5758
-391.023
-157.283
-63.7635
0.703653
-737.785
-265.253
-162.557
70.6894
-470.346
-205.925
-92.33
-5.39844
-864.931
-294.956
-240.605
39.816
-626.856
-237.165
-138.589
-27.9009
-1505.11
-479.96
-385.36
-5.04714
-792.881
-260.985
-168.873
-41.7424
-1288.66
-413.461
-352.023
-0.372996
-816.076
-269.126
-171.146
-43.8283
-1517.42
-468.665
-366.681
31.6188
-687.083
-217.913
-141.603
-20.6744
-1407.09
-411.418
-321.074
68.7759
-565.34
-159.098
-102.44
4.14638
-4.12411
-4.00638
-2.42384
-1.38806
-0.922336
-11.1565
-7.12526
-3.95646
-2.19632
-1.44588
-9.96903
-8.49975
-5.07408
-2.88462
-1.89625
-35.815
-20.3397
-10.9179
-5.95817
-3.88782
-19.7514
-13.3468
-7.54167
-4.19724
-2.73224
-54.1505
-29.5883
-15.5065
-8.34832
-5.40933
-18.7533
-9.91102
-5.11674
-2.73166
-1.76395
-10.2688
-5.23546
-2.71149
-1.45334
-0.947075
-17.9487
-11.4393
-6.2004
-3.38536
-2.21125
0.29187
-0.991934
-0.701441
-0.423272
-0.288198
-37.0597
-20.556
-10.7772
-5.80211
-3.75793
-4.76531
-3.92532
-2.21277
-1.23058
-0.815898
-0.094371
-1.12068
-0.823463
-0.505603
-0.34668
-1.59858
-1.37822
-0.818686
-0.465317
-0.309822
-0.115984
-1.05164
-0.754172
-0.46537
-0.338399
2.00065
0.180387
-0.0510606
-0.0676118
-0.0675576
-1.47452
-2.71749
-1.79141
-1.06082
-0.714253
-1.59365
-2.60721
-1.70591
-1.0095
-0.679792
-4.60901
-6.54294
-4.16199
-2.43439
-1.62582
-4.50449
-6.35691
-4.01647
-2.34814
-1.57545
-5.81366
-8.48745
-5.25425
-3.05077
-2.03042
-10.1411
-9.15907
-5.36088
-3.06849
-2.03062
-25.5684
-14.755
-7.80071
-4.23726
-2.74294
-11.9577
-7.58811
-4.13966
-2.31358
-1.50491
-18.1803
-9.10333
-4.63147
-2.46413
-1.58894
-184.743
-331.637
-634.669
-1070.03
-1261.06
-2014.47
-1856.38
-3055.73
-2061.14
-3268.25
-2337.73
-3235.97
-1927.28
-2527.92
-2834.46
-3904.52
-3009.82
-4129.41
-587.225
-132.62
-29.3691
-6.31612
-1.55515
-169.256
-80.8394
-7.54718
-2.52123
-1.13503
-1917.43
-433.942
-96.4901
-20.8976
-5.18075
-440.636
-102.008
-21.8289
-4.41845
-0.965161
-3371.77
-765.187
-171.079
-37.4019
-9.35862
-871.781
-224.452
-52.1031
-11.8458
-2.96079
-4791.32
-1091.14
-246.382
-54.5219
-13.8247
-1334.42
-368.875
-90.639
-21.4681
-5.59862
-6618.18
-1547.04
-356.711
-80.4226
-20.7632
-1918.7
-587.713
-151.224
-36.6479
-9.75568
-8805.94
-2239.55
-544.868
-127.956
-34.1092
-2363.6
-748.812
-196.832
-48.2356
-13.0013
-8070.56
-1991.5
-472.914
-108.867
-28.556
-2243.09
-723.779
-190.718
-46.7413
-12.5092
-9151.41
-2357.69
-580.724
-137.908
-37.094
-2442.94
-749.376
-193.583
-46.8474
-12.5787
-9428.75
-2421.53
-599.001
-143.034
-38.67
-2460.04
-755.362
-194.765
-43.7914
-12.4436
-127.146
-6913.92
-6338.93
-2936.59
-1517.66
-826.22
-3191.16
-2373.05
-5766.66
-6269.04
-3345.62
-3131.05
-245.9
-387.746
-676.796
-1088.24
-1601.88
-2159.76
-173.795
-375.911
-785.617
-1378.26
-2110.6
-2915.27
-188.578
-81.6835
-343.427
-210.275
-657.783
-482.205
-1094.57
-929.311
-1568.32
-1529.69
-2029.93
-2174.93
-2787.32
-3501.42
-4425.61
-6553.09
-7158.8
-8845.88
-3708.38
-4339.07
-4617.11
-4584.12
-3916.08
-3610.72
-221.83
-187.575
-142.179
-88.6157
-30.0931
-349.464
-295.177
-223.496
-139.181
-47.2428
-609.295
-513.974
-388.675
-241.823
-82.0458
-978.184
-823.724
-621.923
-386.517
-131.066
-1436.67
-1206.89
-909.316
-564.381
-191.267
-1930.31
-1615.68
-1213.83
-752.226
-254.785
-156.663
-132.383
-100.278
-62.4646
-21.2028
-338.541
-285.722
-216.172
-134.54
-45.6513
-706.766
-595.759
-450.225
-279.991
-94.9714
-1237.98
-1041.74
-786.066
-488.368
-165.581
-1891.44
-1587.69
-1195.6
-741.936
-251.44
-2603.75
-2178.07
-1635.98
-1014
-343.541
-170.232
-144.011
-109.207
-68.0931
-23.1339
-73.746
-62.3967
-47.3235
-29.5101
-10.0265
-309.721
-261.77
-198.319
-123.561
-41.9563
-189.687
-160.376
-121.543
-75.7447
-25.7228
-592.592
-500.252
-378.554
-235.643
-79.9732
-434.565
-367.009
-277.839
-172.999
-58.7198
-984.523
-829.625
-626.734
-389.643
-132.149
-836.077
-704.725
-532.491
-331.086
-112.291
-1407.29
-1182.78
-891.43
-553.321
-187.51
-1372.7
-1153.69
-869.362
-539.488
-182.787
-1814.17
-1518.11
-1140.06
-706.179
-239.11
-1943.58
-1625.84
-1220.08
-755.069
-255.516
-2477.38
-2062.08
-1543.35
-955.171
-323.489
-3082.69
-2543.18
-1894.55
-1172.79
-397.753
-3831.07
-3113.84
-2308.48
-1436.88
-489.991
-5513.89
-4376.38
-3242.5
-2059.91
-712.192
-5707.88
-4397.39
-3302.77
-2220.18
-829.084
-6766.05
-5108.28
-3897.49
-2748.36
-1067.88
-3296.17
-2744.44
-2055.21
-1272.83
-431.337
-3830.42
-3169.47
-2366.07
-1465.98
-497.518
-4034.77
-3310.04
-2463.89
-1531.32
-521.758
-3938.33
-3187.6
-2368.48
-1486.26
-511.304
-3260.99
-2586.73
-1928.63
-1243
-441.745
-2901.3
-2251.46
-1690.73
-1127.97
-414.559
-258.043
-426.38
-747.882
-1197.76
-1754.9
-2349.82
-188.867
-424.189
-874.016
-1512.32
-2287.18
-3115.14
-200.48
-90.1501
-382.297
-239.109
-733.209
-542.149
-1218.68
-1040.8
-1754.13
-1749.79
-2267.93
-2589.02
-3009.11
-3749.92
-4692.41
-6757.69
-7292.25
-8894.85
-3898.58
-4481.78
-4687.95
-4578.92
-3878.97
-3591.68
-232.854
-196.971
-149.36
-93.1217
-31.6288
-384.562
-325.107
-246.387
-153.553
-52.1444
-673.918
-569.145
-430.921
-268.376
-91.1053
-1077.9
-909.007
-687.358
-427.714
-145.136
-1576.3
-1326.63
-1001.46
-622.541
-211.159
-2104.43
-1765.74
-1329.91
-825.822
-280.023
-170.358
-144.055
-109.199
-68.0636
-23.1123
-382.391
-323.114
-244.767
-152.493
-51.7729
-787.13
-664.377
-502.776
-313.024
-106.243
-1360.06
-1146.19
-866.239
-538.859
-182.827
-2052.64
-1726.05
-1302.17
-809.242
-274.467
-2787
-2336.2
-1758.46
-1091.73
-370.209
-181.021
-153.2
-116.225
-72.4946
-24.6336
-81.4245
-68.9338
-52.3141
-32.6395
-11.0933
-345.015
-291.85
-221.31
-137.989
-46.8762
-215.855
-182.666
-138.57
-86.4252
-29.3633
-661.139
-558.744
-423.32
-263.768
-89.5679
-489.026
-413.469
-313.386
-195.325
-66.335
-1097.48
-926.208
-700.811
-436.267
-148.071
-937.597
-791.574
-599.142
-373.057
-126.628
-1576.72
-1327.96
-1003.04
-623.718
-211.582
-1573.39
-1325.65
-1001.59
-622.903
-211.315
-2031.92
-1705.56
-1284.9
-797.917
-270.539
-2321.37
-1949.94
-1469.67
-912.768
-309.487
-2682.01
-2239.93
-1682.16
-1043.85
-354.033
-3314.78
-2747.67
-2056.48
-1277.56
-434.086
-4085.73
-3343.3
-2494.47
-1559.85
-533.105
-5723.07
-4576.23
-3414.6
-2180.58
-755.383
-5854.95
-4543.69
-3435.39
-2320.47
-868.585
-6824.18
-5168.6
-3955.12
-2795.23
-1086.71
-3471.97
-2897.58
-2175.03
-1349.54
-457.787
-3964.64
-3288.71
-2461.29
-1528.02
-519.13
-4105.17
-3376.19
-2519.71
-1569.43
-535.38
-3941.05
-3197.03
-2381.99
-1498.76
-516.373
-3233.91
-2569.43
-1920.92
-1242.37
-442.719
-2887.09
-2241.94
-1686.11
-1127.33
-414.954
-18995.3
-14084.3
-4011.47
-3000.54
-2561.81
-3827.27
-2821.08
-13018
-13883.5
-11452.2
-13165.6
-6685.11
-10811.8
-4786.06
-5067.67
-3499.17
-20993.4
-10579.3
-3205.93
-5151.88
-7807.02
-5111.01
-5939.23
-4491.14
-2174.86
-3763.44
-3515.47
-3853.4
-18970.4
-11799
-12095.4
-7543.67
-7829.8
-8118.47
-4061.25
-4898.41
-5166.54
-12499.4
-11518
-9415.44
-8761.94
-7394.65
-9918.47
-7213.74
-5740.05
-4510.69
-1935.47
-3543.76
-2934.36
-2194.71
-1362.98
-462.625
-2677.71
-2238.82
-1682.38
-1044.02
-353.982
-2282.4
-1905.13
-1429.78
-886.806
-300.777
-3423.24
-2868.37
-2158.07
-1339.37
-454.096
-2509.74
-2092.09
-1569.16
-973.426
-330.217
-9353.79
-8182.3
-6658.26
-5854.91
-5553.71
-9538.81
-8504.8
-6784
-5488.6
-3969.74
-8718.46
-6462.23
-5033.59
-3683.68
-1556.9
-9407.61
-7904.05
-6136.65
-4817.81
-2892.66
-5623.35
-4462.67
-3314.54
-2119.64
-758.696
-8655.82
-6561.96
-4922.24
-3312.25
-1306.6
-4115.85
-3327.81
-2469.89
-1550.38
-538.022
-4340.89
-3497.69
-2594.23
-1632.02
-568.407
-3031.22
-2466.17
-1831.68
-1144.19
-394.007
-14687.8
-12176.8
-9967.67
-8717.81
-7371.62
-8377.15
-6413.88
-4912.38
-3441.49
-1394.63
-2750.43
-2220.78
-1650.86
-1040.54
-362.317
-4426.99
-3583.35
-2670.77
-1687.3
-586.814
-6527.98
-5173.59
-3874.49
-2519.82
-905.795
-4387.07
-3542.87
-2638.53
-1665.97
-575.171
-5174.24
-4228.4
-3153.06
-1970.59
-670.124
-3937.01
-3238.59
-2416.72
-1505.1
-513.586
-1909.92
-1572.96
-1172.68
-728.505
-248.394
-3331.71
-2764.56
-2068.47
-1283.51
-436.094
-3056.92
-2496.33
-1857.46
-1159.73
-398.341
-3368.56
-2764.64
-2061.6
-1285.63
-440.005
-12542.3
-10955.7
-9050.59
-8266.78
-6843.53
-8713.77
-6443.2
-5058.14
-3809.63
-1625.06
-9780.98
-7890.93
-6179.01
-4663.97
-1992.87
-6186.25
-4683.17
-3537.07
-2374.68
-754.667
-6609.28
-5223.47
-3897.86
-2503.07
-844.147
-6666.45
-5038.2
-3806.79
-2556.35
-800.729
-3533.54
-2887.84
-2154.24
-1348.77
-461.989
-4324.69
-3579.29
-2675.27
-1660.82
-564.367
-4473.95
-3639.91
-2709.76
-1698.06
-582.533
-394.576
-1097.08
-1709.1
-2301.01
-2910.73
-3476.07
-2564.32
-6577.75
-6104.66
-2543.47
-7500.19
-6898.08
-7903.97
-10650
-1457.96
-155.341
-2745.29
1488.71
-10723.6
-9131.84
2268.65
-1851.7
-5152.59
-4882.1
-1933.71
-5652.76
-3219.11
-6217.69
-6378.15
-631.799
1071.34
-1147.64
3915.03
-7398.89
-4922.9
4353.14
-1112.57
-3419.2
-3475.79
-1293.88
-3404.28
-409.127
-4497.95
-4428.16
-144.566
1261.04
201.817
4043.54
-4345.55
-349.031
4897.81
-713.087
-2360.24
-2709.33
-957.527
-1697.6
1063.24
-3668.79
-4037.7
80.8614
892.162
580.153
3319.89
-3151.81
1823.72
4605.1
-598.36
-2176.77
-2538.36
-856.938
-1530.2
754.624
-3850.86
-5253.1
161.775
647.436
678.204
2779.12
-3029.51
1745.91
3077.92
-570.258
-2127.11
-2447.57
-820.153
-1962.29
-130.172
-3748.61
-5167.06
204.226
995.574
540.189
2810.9
-3668.87
627.807
2169.44
-1316.75
-3108.78
-4326.89
-1774.47
-6430.66
-11589.3
-7174.32
-12732.6
-1579.3
-1382.6
-5106.08
-4233.15
-2136.33
-9223.02
-4544.79
-1275.85
-2999.03
-3818.51
-1517.05
-6026.92
-9785.85
-6369.74
-9158.71
-1628
-1261.36
-4916.73
-3993.07
-1487.51
-8431.9
-4379.13
-1155.54
-2737.97
-3104.51
-1195.99
-5342.72
-8330.35
-5236.92
-7895
-1365.22
-1594.78
-4227.1
-4666.95
-1777.02
-7353.9
-4854.25
-1127.06
-2911.27
-2776.88
-1022.37
-5512.04
-7928.28
-5026.31
-7555.86
-1385.5
-1909.96
-4236.84
-5551
-2263.73
-7875.47
-5696.38
-1110.37
-2832.83
-2674.82
-962.973
-5306.86
-8353.6
-4955.83
-8216.95
-1465.79
-2384.19
-4444.6
-6869.95
-3231.36
-9115.76
-7168.14
-1107.34
-2792.88
-2610.13
-937.685
-5344.01
-8505.48
-4792.63
-8061.66
-1628.09
-2935.93
-4847.78
-7749.44
-4334.75
-9985.82
-7927.52
7885.64
9569.8
19570.2
30640.2
29693.4
57886.1
20433.3
61436.2
21026.5
49201.3
25879.9
42617.3
19781.4
26213.9
9163.89
9310.89
14317.3
16401.6
19386.7
17674.1
13402.3
20173.3
19887.9
19907.9
5269.98
3913.01
7095.72
5145.34
13044.3
8663
23921.7
16870.8
19904.6
20347.4
20480.7
21123.9
4960.44
4261.67
45969
56824
24578.8
32718.6
58837.7
72457.1
27301.5
33592.7
34655.3
45273.8
27765.7
38325.2
16066.2
20244.2
3163.01
1021.03
4013
1410.07
7555.02
3131.82
12908.3
4773.78
8682.95
2883.49
8545.02
2433.7
16684.7
4885.46
21813.3
6877.82
27683.9
15975
23309.7
16117.6
27973.6
18068.3
22144.4
17786.4
18350.6
13278.6
20290.3
12952.7
22610.5
16580
23370.8
16968.1
21686.6
18061.5
22539.7
18381.3
18853.7
13944.8
20290.3
14419.3
20293.7
8446.59
11755
13558.9
21933
9832.05
11811.9
14378.4
20285.2
7826.17
12207.2
13249.6
20956.4
7856.19
12781.8
13310.8
3066.15
3465.33
1096.92
2225.86
9375.98
11053.3
3949.76
7685.9
15307.1
18198.2
7168.07
13000.4
18251.6
9483.4
19174.4
23672.9
12248.1
6720.81
10801.2
13317.1
24068.1
16192.2
10973.7
14633.7
16554.9
16427.2
20769.2
3292.09
3345.24
2053.98
2213.14
10553.9
9839.28
7046.99
7063.57
15793.5
14101.2
10446.1
10364.3
9882.16
10967.2
15578.8
16546.9
18233.8
17094.6
22127.5
20090.6
16006.9
15888.1
13603.1
14321.9
17627.1
15506.8
16897.6
13580.2
15465
11874
17784.3
13828.3
14612.9
7187.35
11570.6
10892.1
16067.6
18198.9
16428.3
21025.8
9861.04
9373.78
13362.6
5289.37
11297.9
17423.8
11774.2
18753.2
16731.6
25921.4
17372.2
26701.4
9721.16
15532.4
10161.3
16983.7
12061.3
8606.65
15817
6780.54
12895.8
3993.08
14914
2779.99
12662.7
12679.8
16639.8
8381.53
11520.2
14753
15358.6
10757.8
3024.86
2750.07
2279.84
2003.56
1925.98
1638.56
8828.05
7329.97
6145.08
5927.55
4764.34
3864.03
11376.8
9212.27
8136.51
8567.4
6558.68
5692.01
9562.45
7268.95
6630.83
15178.7
10585.9
8189.27
14162.1
9749.03
7143.75
16028.6
11884
9535.67
13162.3
8502.43
5975.29
17892.6
13781.7
11689.8
13491.7
10063.7
7861.5
12327.2
8698.24
6398.32
11412.1
8005.24
5914.43
12947.1
7369.9
4240.43
11984.7
19370.9
10275.4
14548.4
9977.04
20336.1
8435.78
16736.2
164.169
1577.67
-228.131
944.529
3530.98
6696.2
2247.47
4142.21
1958.48
3993.73
11280.5
16635.7
8762.79
6716.18
12234.9
10719.7
16687.2
17900.1
-532.429
-5730.89
8661.25
6041.22
6784.03
3886.59
1429.3
927.418
1183.5
751.243
3892.82
1201.94
2022.7
312.299
10013.4
2886.91
7691.96
2377.34
8739.2
2623.11
9859.88
3195.55
12806.7
12421.6
9929.8
12235.5
19785.9
17598.3
16133.6
16637.7
7164.2
9121.15
8375.81
8466.44
9275.98
12097.3
9733.73
12176
15381.9
16237.5
15933.5
16322.1
6317.37
9201.11
6091.87
9281.43
593.475
1142.03
7001.41
3522.77
593.157
907.175
6142.6
2959.67
592.641
1023.69
7363.27
3880.84
876.405
1125.92
7408.88
4084.89
-189.226
-327.327
423.179
251.506
-902.472
-1427.33
679.552
351.543
996.791
-55.5788
2259.88
1839.95
-7393.29
-3738.79
-4369.47
-3029.86
-185.569
-7021.33
-10112.4
-4725.6
-4863.03
-228.062
9847.47
7021.46
5469.69
5332.95
2777.38
-494.482
-395.162
106.528
153.681
-1474.7
-1543.81
334.611
421.664
-1322.4
-1757.79
1075.07
1178.15
-2827.12
-1161.7
-7611.09
-5052.1
-4021.91
-2692.53
-3750.25
-2969.93
-40.9722
490.189
5289.54
3737
-220.233
-1750.03
-612.372
-1672.48
173.678
-768.901
364.088
582.841
4139.97
4459.17
9547.63
6015.62
8860.27
8375.51
13128
10088.9
6977.69
4196.59
2359.17
2975.32
11258.2
4804.96
12074.2
4478.73
15050.4
9783.36
16053.7
9490.8
8400.14
3051.67
9116.53
2646.14
4828.88
3716.99
3162.98
5625.67
2247.46
2965.48
1937.17
4659.26
5325.31
3394.65
3903.85
6473.36
6517.1
3142.77
4757.67
6325.46
-451.428
-515.088
-576.473
87.2788
-112.026
-138.38
-1657.68
-1821.58
-1894
145.522
-431.582
-504.116
-2039.42
-2624.87
-2849.31
606.149
-762.305
-1022.11
-378.108
-958.036
-844.469
-3472.46
-3645.78
-3317.31
-2677.96
-3015.5
-2868.2
-2926.56
-3407.52
-3426.78
270.353
-1100.95
-1013.38
4375.92
2249.32
1337.77
-645.257
-1672.15
-2012.8
-1006.12
-1994.8
-2241.86
-654.832
-1777.34
-2000.35
1247.69
-715.945
-835.024
70.6497
4.05127
-14.686
-31.1113
-64.6353
-61.8143
-72.835
-60.4252
193.669
16.2722
-49.7824
-92.7898
-155.799
-150.732
-165.663
-142.988
358.168
68.0235
-39.4106