/*--------------------------------*- C++ -*----------------------------------*\
| =========                 |                                                 |
| \\      /  F ield         | OpenFOAM: The Open Source CFD Toolbox           |
|  \\    /   O peration     | Version:  2412                                  |
|   \\  /    A nd           | Website:  www.openfoam.com                      |
|    \\/     M anipulation  |                                                 |
\*---------------------------------------------------------------------------*/
FoamFile
{
    version     2.0;
    format      ascii;
    arch        "LSB;label=32;scalar=64";
    class       volScalarField;
    location    "1.3";
    object      gradTy;
}
// * * * * * * * * * * * * * * * * * * * * * * * * * * * * * * * * * * * * * //

dimensions      [0 -1 0 1 0 0 0];

internalField   nonuniform List<scalar> 
5712
(
13774.8
7571.31
23902
15700.1
23052.4
19669.8
33738
42052.2
51468.7
65494.7
27371.7
24128.9
16833.9
11640.1
11151.7
6353.96
22603.4
19951.6
20554.9
20093.9
25893.2
24498
30145.9
25616.2
8030.03
5524.13
4199.43
2901.07
11614.2
7391.19
6464.17
4195.34
23474.1
24625
20769.1
16460.3
16590.8
13176.8
14204.8
13612
18837.3
18609.3
38876.2
42930.8
27510.9
29235.3
20407.9
16080.1
20554.3
14379.6
8743.75
7597.42
6691.26
10478.7
3343.33
4697.92
8848.35
13884.9
5606.58
7870.53
8940.9
16539.9
6875.56
11614
2112.66
7743.07
343.571
5518.18
18868.2
22796.9
20121.8
22752.3
23684.7
23943.3
24477.9
23602.3
18224.9
22091.3
17982.2
21678
20306.9
22695.3
19999.3
22616.3
24854.5
23414.2
24976.5
23313.1
17196.7
22181.5
15710.9
22119.7
19420.3
21258.7
24443.9
35060.9
20399.6
24847.7
24378.5
38778.1
18343.3
18697
24260.6
33056.6
17625.3
17114.7
24209.7
32093.4
5352.42
6906.12
14694.1
24561.6
6339.67
7222.85
17982.4
27236.2
7423.63
7774.34
21761.1
30181.4
26088.1
28059.6
22694.6
21321.1
30316.4
28483.3
25184.1
22580.8
19518.7
34815.2
26078.1
24517.3
21096
22587.5
44498.7
1847.37
2443.69
5178.64
11040.2
2593.32
3666.19
6724.36
12598.5
3838.23
3704.35
8858.53
14621.7
27434.1
26742.8
23164.5
21634.7
20143
17403.6
14963.2
12957.2
12208.5
18548.2
24314.8
21492.3
22844.4
20979.6
19713.7
17813.8
17528.7
15165.4
14370.8
19941.6
23746.8
25129.1
24698.1
26987
23533.9
21571
24020.7
22886.5
21969.9
22097.3
21609.3
21318.4
25167.8
27669.5
25033.4
27455.5
24417.1
23902.9
24200.2
23780.9
21755
21913.6
22059.8
22104
19254.2
18922.6
13403.6
16052.6
19458.3
18644.9
13901.8
16812.6
18676
18609.6
13192.9
15972.5
18829.5
18390.1
13040.7
15550.3
2017.31
1576.68
1123.85
1070.04
878.782
863.289
3069.8
2040.84
1526.28
2523.39
2180.22
1814.93
3139.34
2839.02
2910.36
4562.87
3797
3356.2
24581.3
20854.7
18452.5
20836.1
18709.1
17153.3
14437.9
13264.6
12602.9
10601.7
9610.24
9084.64
7454.56
5181.21
4030.01
19455.7
17098.9
15542.7
19777.1
17568.9
16296.3
14967.8
12654.6
11438
11054.7
9271.17
8432.24
7677.47
5328.71
4157.49
29533.9
30315.4
31645.6
28802
29123.7
28790.1
35013.4
29814.3
18637.6
20215.4
18650.4
18186.2
24775.6
21496
24372.7
19044.9
26865.8
27824.1
22875.7
25446.9
29598.5
26261.2
30121.9
31399.5
32173.2
34644.2
25819
26572
22361.9
22100.3
25441.4
24634.4
16788.9
9645.95
15807.2
10659
16323.7
9456.37
15259.9
10335.5
14925.5
8743
14198.9
9817.67
13984.3
10190.1
13449.3
10169.1
22988.6
17798.6
22728.6
18082.6
25868.1
22841.3
26195.2
22664.1
20855.7
14087.7
21478.8
13501.1
23305.8
18248.7
24015.9
18268.2
26993.3
22653.3
27561.6
22629.3
20401.9
14338.1
20309
14374.3
12320.6
8542.05
10660.7
7001
11288.1
7642.91
9901.83
6419.32
12652.7
9048.04
11007.5
7331.64
12753
9367.19
11105.3
7520.04
2728.29
1477.53
5184.61
3081.83
2808.89
1681.99
5252.3
3361.84
3028.3
2205.84
5194.17
3803.64
13190.5
22412.2
8582.52
7807.32
5784.37
22851.4
14445.3
8041.49
7166.03
4562.6
22094.3
15757.1
11452.5
8396.02
5506.37
1013.49
914.842
2190.37
1962.32
1245.68
946.365
2584.22
2279.33
1733.95
1430.98
3067.91
2701.94
22959.9
21279.5
14313.6
12570.4
8845.01
8069.06
6764.03
6105.1
4198.94
3722.24
20021.3
16692.7
14316
11835.7
10546.1
9118.17
7475.74
6732.87
5056.23
5226.85
13633.1
10313.7
13864.2
9777.43
17773.7
12795.8
18199.5
12711.6
11093.6
8447.64
10932.6
8966.35
14418.4
9373.7
14594.4
9524.91
19214.7
13145.4
19234.3
13300.7
11210
7976.87
11428.1
8335.81
7929.69
6785.84
5535.56
6708.68
8006.87
7071.03
5618.42
6580.01
7911.82
6617.86
5409.99
6990.09
8326.4
6710.07
5618.3
6925.21
1736.7
1337.58
1020.83
6227.24
3028.33
2279.94
1625.52
1452.09
1199.78
6614.83
3561.82
2809.2
2043.03
2061.95
2001.5
7096.73
4439.56
3786.21
18125
15520.2
13881.1
11070.7
9754.02
8993.09
7691.66
6904.2
6500.32
6441.96
5710.39
5362.3
8322.29
5853.4
5080.7
13463
11370.7
10089.9
9754.82
8315.35
7516.56
8200.87
6898.34
6093.04
7473.83
6251.54
5609.85
10836.1
7304.43
6429.68
5201.67
2961.5
1883.66
1363.19
5776.01
3168.24
1952.38
1404.29
5060.06
2923.64
1882.13
1377.87
5734.19
3177.51
1981.73
1429.6
4807.74
2873.43
1923.74
1387.88
5573.41
3206.6
2060.03
1449.12
5818.52
3319.48
2041.91
1476.23
5958.53
3437.99
2095.52
1505.26
5088.92
3032.32
2005.02
1423.02
4284.61
2739.21
1900.87
1322.04
4492.24
2784.68
1934.7
1336.64
3916.73
2573.26
1832.32
1266.22
5442.38
3212.16
2052.37
1466.39
4517.95
2869.61
1948.77
1352.26
5641.31
3341.19
2104.31
1491.67
4653.96
2967.72
1998.93
1373.36
4046.01
2617.45
1787.46
1292.65
2897.26
2223.18
1664
1187.01
3940.66
2586.08
1791.86
1295.1
2888.85
2222.05
1665.91
1192.15
3782.82
2541.47
1811.89
1297.84
2959.16
2255.16
1678.81
1208.28
3635.95
2475.43
1797.28
1292.69
2997.62
2272.3
1719.01
1219.45
3445.77
2409.98
1742.37
1214.9
1743.21
1865.16
1367.18
423.15
503.506
1678.63
1232.35
396.324
1879.89
1918.14
1392.97
444.735
695.458
1738.97
1252.81
403.695
2104.37
2000.26
1414.93
442.453
1000.1
1838.88
1276.39
406.626
2438.19
2107.76
1459.32
472.396
1384.04
1968.42
1319.59
423.013
2932.42
2257.46
1534.34
528.611
1839.62
2101.38
1362.56
436.524
3305.39
2444.03
1580.91
504.246
1908.12
2272.08
1453.35
456.053
3232.35
2361.12
1546.02
504.773
1924.09
2205.04
1405.08
444.262
3315.29
2503.68
1600.57
477.67
1855.82
2329.26
1483.82
455.575
3305.36
2571.72
1650.37
487.824
1979.33
2398.9
1526.13
465.534
1020.63
671.468
411.545
219.391
68.5333
1029.81
673.721
412.361
219.724
68.6258
1038.8
677.238
414.01
220.43
68.8188
1046.6
680.598
415.535
221.104
69.011
1047.95
683.121
416.724
221.589
69.1377
1051.12
690.254
420.38
223.264
69.6225
1088.74
704.498
427.453
226.499
70.5531
1107.06
717.308
434.377
229.747
71.4952
1078.83
697.184
423.279
224.494
69.9636
1091.86
699.229
423.675
224.581
69.9777
1052.92
689.615
419.648
222.841
69.4841
1080.7
694.669
421.48
223.578
69.6857
1095.44
705.53
427.579
226.493
70.5443
1105.15
707.137
427.815
226.516
70.5414
1109.01
718.885
435.059
230.033
71.5754
1120.34
719.968
435.065
229.969
71.5523
1007.62
668.741
410.621
219.025
68.4325
1007.68
667.4
410.055
218.794
68.3692
1018.65
673.274
412.486
219.783
68.6361
1018.35
671.596
411.719
219.457
68.5462
1034.19
679.247
414.913
220.771
68.9013
1039.88
677.649
414.013
220.37
68.7887
1057.06
686.097
417.685
221.919
69.2124
1063.56
683.946
416.568
221.417
69.0668
1069.9
690.774
419.716
222.791
69.4563
10812.5
16882.8
11274.7
17180.9
12039
17664.8
12950.6
18678
13855.6
20475.6
12266.6
15105.5
12804.8
16522.8
12087.5
14760.9
11898.9
14649.2
8764.44
1578.82
350.021
79.2933
14.0653
10448.2
2903.14
711.91
162.69
28.6037
8902.53
1548.15
337.119
75.7122
13.3588
10577.7
2899.45
702.283
158.497
27.781
9149.8
1533.35
325.883
72.2818
12.675
10839.8
2910.13
692.733
154.613
26.9231
9430.25
1506.53
312.386
68.6669
12.0124
11173.7
2920.81
685.04
151.896
26.3869
9592.19
1473.27
303.756
67.1636
11.8294
11414.8
2915.16
683.328
152.434
26.6441
8976.52
1642.29
376.649
88.6741
16.1988
10063.6
2915.65
740.59
175.132
31.8294
9286.48
1581.94
345.327
78.7415
14.1091
10633.6
2931.75
715.358
163.921
29.1671
8795.12
1679.82
396.562
95.34
17.6571
9831.95
2902.75
753.519
181.809
33.546
8689.3
1645.63
390.184
94.5982
17.6408
9713.04
2861.98
748.046
181.944
33.7664
37579.8
52908.9
47220.9
35209.9
19457.2
20479.4
31031.1
31248.1
21092.8
22639
33825.3
45373.1
50164.7
68479.5
25473.4
28100.8
20474.1
20038.7
14149
14582.4
3982.45
2703.76
522.555
379.876
467.082
387.263
501.136
3814.23
3719.96
2301.64
3011.24
2611.43
1144.4
1699.73
1405.16
903.551
1041.93
837.484
3348.34
1791.06
1016.21
928.268
1205.87
1020.72
757.864
745.869
660.875
584.505
800.914
749.437
3504.33
2116.15
2262.88
1480.58
1188.05
1768.29
779.309
576.215
880.916
8221.42
8213.22
8042.79
9438.08
15637.4
5938.95
6505.86
6779.21
7669.03
8780.9
1362.36
1917.42
2320.81
2586.8
2721.14
999.033
1424.73
1743.19
1954.49
2060.33
1224.85
1738.46
2116.39
2363
2485.11
1018.91
1453.79
1778.65
1993.05
2099.77
1309.97
1850.76
2245.62
2503.91
2632.77
8281.68
8609.25
8166.16
8848.13
13891.6
7806.13
7848.41
7480.71
7803.53
9141.88
5216.95
5899.91
6075.69
6461.14
6966.5
6410.36
6637.69
6391.96
6459.4
6983.95
5633.74
5967.58
5770.23
5784.29
6081.76
2814.16
3627.81
4093.14
4393.26
4571
3974.69
4742.1
5056.68
5319.09
5556.63
3355.5
4128.02
4482.11
4707.2
4858.67
2278.63
3049.03
3534.77
3834.81
3989.65
2583.92
3370.75
3829.29
4108.44
4258.49
2127.36
2876.63
3359.74
3654.77
3801.6
7422.14
7967.61
7772.04
8650.09
13710.6
4231.79
5102.77
5513.35
5970.14
6398.62
2542.57
3362.63
3871.75
4205.61
4394.22
2344.02
3143.4
3661.15
4003.93
4193.28
2971.64
3838.51
4354.67
4736.37
4987.57
2566.15
3414.17
3957.37
4334.88
4550.76
1942.9
2665.03
3162.61
3495.91
3671.65
1915.18
2633.58
3127.15
3449.14
3615.5
1709.38
2375.52
2838.67
3130.85
3274.51
1520.33
2131.23
2566.88
2846.62
2985
2044.18
2785.21
3277.57
3588.02
3746.08
1923.21
2642.19
3132.29
3446.68
3607.21
7503.37
7804.33
7680.01
8856.47
14316.5
4840.52
5620.66
6035.61
6726.48
7475.71
5570.29
6588.89
6767.24
7577.36
8553.44
3610.17
4557.24
5103.32
5617.33
5974.46
2958.37
3866.42
4426.23
4852.53
5108.51
4261
5188.56
5606.65
6138.18
6500.88
1995.38
2731.97
3235.28
3568.68
3743.94
1497.77
2098.09
2527.56
2806.51
2946.23
2236.04
3021.44
3540.7
3885.5
4072.14
20563.8
13462.4
21749.6
16513.2
26055.9
37389
27892.8
39081.3
22684
22016.8
20104.1
20679.9
23637.1
23287.2
29369.5
24894.5
15995
14287
7149.65
5739.87
18610.2
15039.8
9891.82
6686.1
24029.5
26400.2
21822.6
19307
23062.2
15361.1
14194.4
13670.1
19096.1
18697.2
39064.9
43074.7
27272.4
29205.5
21057.2
16259.8
21336.8
14552.3
9325.61
7715.72
15242.7
18392.4
6147.93
7491.63
16273.1
20513
8237.69
10478.5
14112.8
20783.9
8783.2
13626.1
2446.42
8466.08
369.971
5660.72
19875.4
21698.4
20185.4
22201.5
22568.3
22307.7
23761
22732.1
19048.5
21952.4
20462.6
21336.8
20303.8
22427.5
19989
22530.7
24515.8
22984.1
24886.6
23176.8
17493
22117.1
15770.3
22097.8
20149.6
22426.6
24672
35368.8
21594.8
26935.6
24771.9
39327.3
18693.9
19248.2
24372.4
33214.1
17721.1
17266.2
24242.1
32143.5
20454.8
23304.4
27134.3
38478
19449.6
20949.4
27967.7
38142.6
16873.5
17365.7
28126.5
36525.3
20064.7
21549.4
20994.3
21955.6
33088.2
21123.1
18807.1
22051.9
20241.8
37883.4
21286.1
20669.9
19619.1
23163.6
45400.2
14278.3
13522.8
12049.6
15295.1
13881
13306.5
12293.7
15824
12733.5
11486.7
12162.8
15914.2
20509.8
19640.7
18123.5
17102.2
19856.1
18015.3
15934.9
14035.5
13478
18098.3
20373
18794.1
19796.5
19059.9
18463.7
17010.6
17786.8
15201.2
14472.3
18609.1
22166.2
23727.2
23836.7
26121.4
21672.3
20228.3
23042.4
22131.3
21486.4
21532.9
20757.1
20441.3
24774.3
27292.7
24919.1
27346.4
23971
23583.6
24070.9
23688.2
21524.7
21638.3
21993
22027
19080.6
18614.2
13376.2
15860.3
19255.4
18216.8
13924
16434.3
18578.9
18442.8
13163.8
15869.5
18796.2
18337.2
13027.5
15515.2
12951.4
14003
5021.34
5143.12
12609.6
12656.2
5781.32
6004.22
10123.6
9773.84
6340.39
6133.55
18809.2
17608.5
17314.5
16889.1
15792.3
15104.2
11871.9
10774.2
8046.26
6157.7
18296.2
17275.5
19449.4
18257.7
15117.8
13602.7
11579.2
10211.7
7212.85
5479.36
24612.2
24349.6
29433.9
26058.2
26441.8
25303.7
35055.5
28436.7
19948.8
15482.1
21565.8
16716.6
20808.1
15516.8
22443
16683.4
23280.5
21288.1
20262
19438.3
21276.4
22808.4
28789.3
31003.8
31483.6
34443.7
24140.1
26060.7
21163.3
21760.3
23641.8
24098.2
12843.3
10220.2
13939.2
10628.6
12488.8
9956.61
13600.8
10327
11823.7
9179
12845.1
9751.47
13200
10072
13208.2
10118.6
18948
16658.9
20848.1
17288.3
22786.8
20880.9
24744.5
21571.4
18896.5
13732.4
17430.9
13272.2
22389.3
17800.7
23744
18119.5
26294.5
22094.7
27359.1
22450.8
19454.6
14089.4
20031.9
14284.2
11825.6
8775.99
10759.6
7386.9
11007.2
8442.26
10435.2
7264.72
12309
9095.44
10993.2
7504.99
12634.2
9365.39
11094.8
7579.86
11082.2
11318
9440.16
9061.74
10558.6
10942.9
9108.73
8742.42
9841.55
10114.3
8284.87
7875.49
16524
20923.9
14445.9
10118.7
7986.75
20336.6
17578
15806.9
10183.7
7540.41
20275.5
16359.5
13058.3
10398.2
7241.34
12561.4
14441.6
9478.33
10443.6
11850.8
13120.1
8935.13
9688.57
10560.2
11138.5
7686.25
7804.85
19493.3
17785.2
15599.5
14206.3
14149.5
14133.8
10281.7
10567.7
7376.27
7303.1
18064.9
15194.3
14535.3
12176.4
12140
10927.9
9724.63
9258.42
6854.52
7308.07
13421.6
10514.3
13700.6
9929.07
16652.5
12251.5
17569.7
12464.2
11308.9
8874.42
11438.7
9783.07
14288.4
9426.93
14545.5
9534.5
18891.8
13029.2
19135.3
13266.1
11249.7
8130.32
11414.1
8365.72
8336.19
7346.71
6005.01
7438.1
8927.41
8214.99
6597.1
7973.06
8056.9
6842.59
5621.33
7351.17
8373.32
6779.51
5699.81
7038.16
18031.2
18752.8
20908.9
17676.6
15740.9
16347.3
19583.3
16646.1
12841.3
13234.9
16882.3
14575.3
16152.1
15035.6
13569.5
13064.3
14250.7
14151.9
11656.2
11133.3
15961.2
13976.1
12625.6
11936.4
10643
10392.2
10570.5
10266.3
10822.5
10259.9
16702.5
13942.3
6429.82
3766.12
2339.13
1653.1
6606.42
3833.69
2362.28
1676.06
6182
3674.84
2299.78
1646.45
6443.23
3758.89
2338.78
1670.08
5770.04
3542.87
2291.87
1620.45
6101.88
3672.02
2359.64
1648.11
6115.31
3609.71
2246.27
1614.16
6053.81
3537.57
2163.94
1553.43
5583.68
3414.19
2246.75
1587.92
4743.29
3079.25
2106.82
1458.42
5347.04
3350.37
2257.8
1539.71
4680.04
3088.7
2116.75
1437.13
5697.73
3431.8
2198.45
1570.22
4762.88
3061.79
2077.06
1444.21
5716.83
3414.41
2155.53
1528.29
4733.28
3030.49
2043.37
1404.91
6064.21
3633.52
2313.42
1604.7
5518.91
3434.85
2263.27
1509.89
5779.2
3548.97
2288.82
1590.42
5246.14
3365.23
2237.57
1503.48
5366.27
3420.7
2270.06
1568.21
4867.33
3258.97
2192.77
1492.83
4958.12
3234.76
2189.15
1518.37
4603.29
3158.87
2167.66
1462.15
4585.42
3087
2098.87
1401.27
4602.3
3176.85
1939.72
562.846
2996.15
3010.15
1815.32
546.748
4417.4
3142.03
1938.7
583.17
2930.53
2979.48
1807.65
548.765
4147.18
3070.64
1899.79
564.752
2810.26
2923.57
1773.52
537.556
4111.75
3015.75
1894.7
589.326
2907.73
2880.27
1752.28
540.054
4155.07
2961.69
1899.81
636.487
3054.2
2823.69
1719.59
536.704
3727.67
2780.39
1815.38
584.565
2202.86
2600.06
1652.95
517.283
3989.78
2875.1
1854.57
601.029
2536.66
2713.75
1682.54
525.091
3519.76
2690.53
1745.6
529.05
1967.97
2508.48
1602.52
492.938
3358.17
2630.59
1698.66
505.173
2003.84
2454.49
1564.79
477.874
1211.97
774.659
463.714
243.298
75.3958
1209.21
772.998
463.018
243.01
75.3161
1220.76
773.032
462.143
242.453
75.1383
1208.48
769.388
460.67
241.832
74.9654
1215.33
770.163
460.242
241.478
74.844
1182.04
761.682
456.663
239.936
74.4137
1173.06
748.991
450.22
237.009
73.5791
1138.75
734.678
443.337
233.899
72.6931
1193.36
759.13
454.73
238.951
74.1196
1205.51
760.927
454.939
238.946
74.1071
1200.61
766.554
458.107
240.429
74.5323
1223.03
765.847
457.006
239.837
74.3541
1173.08
750.002
450.508
237.087
73.5948
1179.51
751.402
450.79
237.144
73.6029
1135.07
733.926
442.906
233.678
72.6284
1145.54
735.527
443.275
233.792
72.6579
1215.43
776.84
464.546
243.63
75.4867
1234.56
779.039
465.077
243.821
75.5379
1220.17
776.226
463.516
243.026
75.2969
1239.57
778.749
464.238
243.307
75.3755
1226.39
774.9
462.002
242.19
75.0381
1251.2
777.922
462.877
242.535
75.1347
1236.52
772.309
460.033
241.196
74.738
1260.35
774.879
460.934
241.574
74.8414
1233.44
769.078
458.428
240.457
74.5241
12776
17188.8
12728.1
17142.3
12755.6
17111.9
13150.4
17752.8
13641.3
19159.7
12180.8
14911.2
12666.8
16071.6
12038.6
14668.5
11885
14623.9
9320.77
1630.58
355.879
79.9783
14.1292
10774.1
2968.91
722.247
164.06
28.7377
9307.79
1582.9
340.642
76.0539
13.3792
10745.3
2936.48
707.888
159.128
27.8205
9317.65
1542.22
325.891
72.1042
12.629
10766.1
2903.25
691.145
154.131
26.8185
9388.71
1492.28
309.232
68.0162
11.9049
10894.2
2874.5
676.824
150.357
26.1427
9417.74
1446.19
298.844
66.2291
11.6821
11017.6
2848.99
671.508
150.258
26.309
8874.56
1621.77
372.069
87.6831
16.0322
9929.93
2876.65
731.251
173.114
31.4922
9132.27
1554.23
339.774
77.6256
13.9289
10387.4
2873.7
703.227
161.517
28.7859
8739.01
1667.72
393.655
94.6734
17.5413
9764.84
2881.23
747.903
180.518
33.3219
8671.99
1641.8
389.23
94.372
17.6007
9693.27
2855.39
746.248
181.514
33.6908
37178.8
52905.9
47247.1
33996.9
25201.4
30314.5
24926.4
30279.6
28423.9
44935.6
30786.9
49025.1
66.51
77.1424
100.782
139.851
196.99
275.641
75.1594
86.0927
110.168
149.295
206.089
284.267
59.6432
56.2605
70.1146
66.531
93.8189
90.0167
134.445
131.589
194.597
195.632
278.941
288.19
379.477
525.334
746.26
1103.6
1470.1
1770.22
389.312
530.263
717.247
947.644
1167.75
1316.79
177.821
260.089
325.647
371.097
394.349
206.04
300.919
376.25
428.299
454.858
268.784
391.645
488.577
555.186
589.053
372.212
540.61
672.343
762.235
807.744
522.82
756.083
936.564
1058.71
1120.27
728.704
1047.57
1290.8
1453.93
1535.88
200.786
293.362
366.963
417.875
443.871
229.751
335.144
418.589
476.101
505.391
293.518
427.057
532.056
604.011
640.529
396.865
575.396
714.508
809.182
857.043
546.191
788.248
974.732
1100.68
1164.14
750.293
1076.1
1323.56
1489.41
1572.87
159.503
233.439
292.492
333.506
354.506
150.463
220.263
276.085
314.891
334.765
187.346
273.831
342.669
390.324
414.667
177.791
259.953
325.444
370.832
394.021
250.34
365.105
455.901
518.419
550.238
240.241
350.532
437.93
498.181
528.855
358.022
520.494
647.924
735.023
779.141
350.496
509.785
634.904
720.502
763.864
516.731
747.899
927.107
1048.47
1109.61
519.537
752.116
932.498
1054.63
1116.11
737.712
1061.15
1308.06
1473.5
1556.42
762.123
1096.1
1350.73
1520.94
1606.04
997.458
1421.63
1739.07
1950.28
2056.49
1368.41
1924.42
2329.49
2598.53
2735.74
1914.28
2631.95
3134.16
3475.15
3658.12
2758.07
3648.41
4234.7
4675.97
4947.69
3560.65
4515.97
5121.55
5667.21
6081.81
4186.98
5140.51
5731.62
6371.73
6925.28
1021.64
1452.77
1774.3
1988.56
2096.79
1380.24
1939.46
2347.04
2618.67
2757.97
1846.03
2552.08
3052.39
3390.6
3570.57
2404.06
3255.82
3841.19
4253.08
4487.83
2919.07
3874.7
4517.29
4997.88
5297.03
3258.84
4268.1
4939.99
5470
5820.61
67.7757
81.0728
108.009
151.364
214.005
299.367
76.5106
90.2663
117.66
160.812
222.372
305.787
60.8163
57.3838
73.8384
70.1249
100.836
96.8674
146.089
143.221
212.629
214.159
306.102
318.711
410.022
561.281
783.525
1132.92
1487.26
1775.36
415.694
559.828
746.613
971.945
1183.39
1322.12
181.201
265.062
331.94
378.332
402.068
216.627
316.591
396.114
451.162
479.291
288.261
420.513
525.223
597.422
634.222
403.284
586.775
731.1
830.101
880.411
568.848
824.722
1024.26
1160.32
1229.26
793.101
1144.11
1414.77
1598.21
1691.02
204.408
298.709
373.741
425.677
452.203
241.002
351.821
439.755
500.489
531.467
313.726
457.045
570.176
647.995
687.594
427.966
621.658
773.463
877.351
930.077
590.255
854.021
1058.86
1198.26
1268.86
808.711
1163.75
1436.25
1620.69
1714.1
162.647
238.07
298.349
340.234
361.684
153.474
224.698
281.689
321.325
341.625
197.366
288.643
361.421
411.889
437.699
187.456
274.229
343.507
391.592
416.187
269.237
393.083
491.383
559.282
593.917
258.68
377.814
472.512
537.988
571.394
389.434
567.136
707.254
803.52
852.463
381.866
556.35
694.124
788.862
837.032
565.511
820.645
1020.05
1156.17
1225.14
569.683
826.98
1028.26
1165.71
1235.34
811.441
1171.69
1450.05
1638.78
1734.18
845.036
1220.57
1510.86
1707.6
1806.98
1080.8
1547.59
1902.14
2141.32
2262.7
1467.47
2076.32
2528.88
2834.73
2992.35
2019.03
2797.02
3356.19
3743.45
3952.95
2844.72
3792.94
4437.9
4930.92
5234.11
3615.37
4613.43
5264.19
5853.27
6297.61
4204.83
5174.29
5782.77
6441.01
7007.86
1093.6
1561.56
1915.28
2153.83
2275.23
1461.52
2063.81
2510.03
2811.55
2967.36
1927.82
2679.53
3222.3
3594.48
3793.7
2473.19
3366.48
3992.16
4437.81
4692.4
2964.68
3949.74
4621.91
5128.42
5443.6
3274.62
4294.55
4977.41
5517.38
5874.33
3972.6
2705.71
568.985
416.619
529.989
434.937
558.345
3665.67
3489.64
2328.07
2811.47
1244.37
1756.01
1016.65
1176.95
948.173
3296.49
1846.43
1109.58
1011.94
1283.53
1087.69
810.221
817.398
768.241
673.803
899.66
835.242
3479.82
2130.39
2270.59
1516.22
1240.23
1812.07
842.354
646.108
956.02
8223.65
8251.1
8115.85
9576.23
15909.1
5955.57
6548.05
6849.56
7775.76
8919.37
1490.25
2113.59
2578.59
2892.45
3053.32
1099.12
1575.82
1938.76
2183.61
2307.62
1396.67
1998.81
2454.82
2761.21
2916.23
1148.54
1648.88
2030.53
2287.72
2417.69
1467
2090.39
2559.01
2874.18
3034.47
8268.85
9137.39
9249.74
10612.5
16973.8
7918.42
8842.79
9199.02
10437.4
12975.5
5475.24
6573.87
7185.33
8031.67
8911.59
6792.37
8039.18
8467.54
9388.49
10843.5
3145.83
4232.54
4974.85
5521.54
5859.73
4293
5472.93
6201.81
6863.68
7398.58
2614.69
3610.32
4318.5
4807.96
5078.53
2996.59
4075.4
4823.37
5355.84
5668.06
2452.02
3413.24
4105.4
4576.7
4829.39
7456.86
8303.94
8440.31
9727.29
15623.9
4454.03
5563.42
6235.44
6952.94
7570.55
2827.16
3850.56
4565.33
5077.78
5377.13
2590.2
3552.23
4232.38
4713.84
4987.05
3215.73
4270.04
4982.2
5541.29
5906.85
2764.72
3746.92
4426.14
4921.78
5209.39
2091.16
2900.88
3482.38
3884.62
4100.1
2117.53
2955.15
3562.56
3977.59
4197.7
2006.36
2833.54
3444.29
3854.7
4066.37
1765.25
2504.66
3055.61
3425.67
3614.93
2328.88
3247.04
3911.23
4364.29
4606.5
2166.81
3030.79
3659.59
4087.51
4313.93
7527.37
7947.94
7936.47
9283.42
15140.6
4903.31
5753.67
6244.56
7019.39
7836.03
5677.97
6878.16
7248.88
8287.21
9448.06
3726.48
4768.77
5416.96
6029.02
6447.2
3117.68
4140.51
4819.33
5352.66
5674
4434.66
5539.6
6149.88
6877.96
7369.51
2174.59
3018.44
3625.06
4043.65
4268.37
1690.72
2394.92
2918.72
3271.72
3453
2453.8
3377.63
4033.6
4493.79
4749.09
6309.24
5939.29
5360.45
4588.2
3438.19
1367.17
20468.2
21750.9
23015.1
23780.5
21947.7
22011.4
22037
22406.5
18138.8
21527.4
20485.5
21407.2
27350.5
18752.1
30246.5
19125.2
20472.2
21471.4
21793.3
20940.4
22070.3
20937.1
21983.3
18725
28532.6
21067.2
27651.1
28375.8
22982.3
34999.2
17641.7
18797.2
19304.8
19220.5
19604.7
21325.3
19312.5
21056
21077.7
27309.3
23631.4
26859.3
29470.3
25803.7
33363.8
16204.2
17254.6
17201.3
16898.5
18380.6
20689.3
17601.6
19928.2
19015.2
24898.8
21149.7
23602.3
25683
22547.1
29663.9
14815.3
15874.5
15561.1
15205.1
17266.4
19936.9
15984.4
18180.6
16695.9
19993.3
18819.1
18600.8
22090
18691.8
23427.2
13542.7
14562.1
14285.6
13927.6
15645
17705.5
14699.4
16515.1
14217.4
15841.8
16198
15229.7
19106.6
15390.1
20004.3
22787.6
22820.1
23939
25116
23277.6
23793.4
22807.6
23469.7
19324.8
12284.7
20432.3
12098.5
20479.3
16759.8
17362.3
21574.9
21929.2
22059.8
22685.3
22417.1
23038.6
21409.3
22258.4
16926.8
12102.6
17667.9
11809.7
17455.3
15586.5
15869.6
18620.1
19007.3
19434.3
19559.8
19654.1
20186
19328.6
20553.7
15278.4
12444.2
16118.2
11884.2
16552
13841.2
16061.9
15699.5
16224.1
16921.6
16751.6
17046.3
17572.2
17352.9
18655.1
13009
12777
13873.8
12051.7
14391
12119
16156.1
13734.9
14369.6
15081.5
14832.6
15292
16297.4
15532.3
16682.2
11720.7
13457.7
12909.2
13383.7
14010.5
12888.7
17502.2
12116.2
12827.3
13716.4
13436.5
14200.6
15645.8
14175.4
15544.2
11195.1
14211.9
12749.8
14790.5
14335.3
13337.3
18991.6
13474.1
7264.65
23883.6
15654.2
23048
19653.9
33732.5
42040.8
51464.4
65477.7
27379
24118.8
16841.1
11617.8
10777.9
6003.89
22598.1
19948.6
20548.9
20091.3
25889.4
24495.6
30140.9
25613.9
7844.25
5428.12
4068.05
2842.21
11604.4
7383.68
6464.42
4200.03
23468.4
24618.1
20766
16457.9
16586.8
13177.7
14203
13611.3
18836
18608.6
38874.1
42929.7
27509.4
29234.2
20407.4
16080.3
20553.8
14379.4
8743.7
7597.44
6575.9
10280.5
3269.57
4575.42
8853.11
13897.2
5617.12
7885.16
8943.76
16545.9
6879.71
11619.4
2113.25
7745.03
343.567
5518.84
18866.7
22796.2
20120.8
22751.8
23683.3
23942.5
24476.7
23601.6
18224.7
22091.1
17981.2
21677.6
20306.2
22694.9
19998.8
22616
24853.6
23413.7
24975.7
23312.5
17196.4
22181.5
15710.7
22119.7
19421
21261
24444.6
35062.2
20400.3
24850.7
24379.2
38779.8
18343.8
18698.4
24261.1
33057.6
17625.8
17115.7
24210.1
32094.2
5288.04
6858.14
14495.7
24387.7
6350.27
7234.5
17999.6
27258.7
7427.99
7778.76
21768.7
30188.3
26086.8
28058.6
22692.8
21321.7
30319.9
28482.4
25182.8
22578.6
19519.3
34818.6
26077.3
24516.4
21095.4
22588.5
44500.9
1820.69
2410.93
5118.46
10954.2
2604.21
3672.3
6738.31
12611.7
3842.08
3707.15
8864.54
14627
27433.3
26742.1
23163.5
21633.9
20141.7
17402.8
14964.3
12958.1
12211.5
18550.8
24314.1
21491.8
22843.8
20979.3
19713.4
17813.7
17529.6
15166.1
14372.2
19942.8
23746.4
25128.8
24697.8
26986.8
23533.4
21570.7
24020.3
22886.3
21969.8
22097.2
21609.2
21318.3
25167.5
27669.3
25033.2
27455.3
24416.7
23902.7
24199.8
23780.7
21755
21913.5
22059.8
22103.9
19254.4
18922.8
13403.9
16052.9
19458.7
18645.2
13902.5
16813.1
18676.1
18609.7
13193.1
15972.7
18829.7
18390.2
13040.9
15550.5
1977.18
1546.39
1104.54
1055.99
868.284
856.158
3072.46
2042.75
1528.62
2528.66
2184.42
1818.73
3140.71
2840.03
2911.25
4564.9
3798.49
3357.66
24580.8
20854.3
18452.2
20835.6
18708.8
17153.1
14437.4
13264.3
12602.8
10602.2
9610.48
9084.92
7455.62
5181.89
4030.62
19455.4
17098.6
15542.5
19776.9
17568.7
16296.2
14967.8
12654.6
11438
11055.1
9271.38
8432.44
7677.92
5329
4157.75
29538.6
30317.6
31649.8
28803.7
29121.5
28789.2
35010.1
29813.3
18487.3
20177.9
18461.1
18139.1
24798.5
21489.5
24400.5
19038.1
26871.7
27830.8
22878.2
25449.6
29598.3
26261
30122.5
31399.4
32172.4
34643.3
25821
26572.6
22362.8
22100.5
25442.2
24635
16770.5
9625.36
15785
10641.7
16320.5
9457.02
15257
10335.3
14924.4
8742.92
14198.2
9817.46
13984.5
10190.1
13449.6
10169.3
22989.4
17798.6
22729.2
18082.5
25867.6
22840.9
26194.7
22663.7
20856.3
14087.9
21479.3
13501.3
23305.9
18248.6
24015.7
18268
26992.8
22652.9
27561
22628.9
20402.3
14338.2
20309.2
14374.3
12321
8542.07
10660.8
7001.06
11288.6
7642.96
9902.02
6419.39
12653
9048.11
11007.6
7331.7
12753.3
9367.35
11105.4
7520.12
2715.72
1464.37
5169.63
3064.56
2811.43
1684.45
5253.53
3363.34
3029.18
2206.64
5194.51
3804.16
13190.4
22411.6
8582.67
7807.7
5784.58
22850.8
14445
8041.33
7166.2
4562.92
22093.8
15756.9
11452.5
8396.21
5506.48
997.492
898.321
2168.57
1948.6
1246.98
946.93
2585.51
2279.86
1734.54
1431.35
3068.42
2702.15
22959.3
21278.9
14313.1
12569.8
8844.55
8068.37
6763.98
6104.87
4199.21
3722.35
20020.9
16692.3
14315.8
11835.4
10546
9117.97
7475.83
6732.85
5056.35
5226.85
13633
10313.6
13864.1
9777.33
17773.3
12795.6
18199.2
12711.5
11093.6
8447.59
10932.5
8966.28
14418.3
9373.61
14594.2
9524.81
19214.4
13145.2
19234.1
13300.5
11210
7976.82
11428
8335.75
7929.74
6785.83
5535.59
6708.69
8006.94
7071.03
5618.49
6580.05
7911.84
6617.85
5410.01
6990.08
8326.4
6710.04
5618.32
6925.21
1711.99
1317.4
1005.18
6188.69
3001.5
2256.71
1624.87
1451.93
1200.17
6619.49
3565.63
2812.43
2043.34
2062.18
2001.67
7098.35
4440.98
3787.55
18124.5
15519.7
13880.7
11070.1
9753.45
8992.61
7690.84
6903.49
6499.75
6441.65
5710.03
5361.98
8323.08
5854.17
5081.48
13462.7
11370.5
10089.7
9754.53
8315.08
7516.31
8200.65
6898.12
6092.85
7473.78
6251.46
5609.78
10836.5
7304.83
6430.18
5200.63
2962.42
1883.63
1362.56
5773.92
3168.44
1952.11
1403.11
5058.53
2923.27
1882.02
1377.73
5733.08
3177.4
1981.71
1429.55
4807.09
2873.21
1923.65
1387.8
5572.89
3206.47
2059.98
1449.06
5818.27
3319.39
2041.87
1476.19
5958.48
3437.96
2095.5
1505.24
5088.72
3032.23
2004.98
1422.98
4284.56
2739.17
1900.85
1322.01
4491.99
2784.57
1934.64
1336.6
3916.66
2573.22
1832.29
1266.19
5442.28
3212.11
2052.34
1466.36
4517.93
2869.6
1948.76
1352.24
5641.31
3341.18
2104.3
1491.66
4653.98
2967.72
1998.93
1373.35
4044.7
2618.31
1787.69
1292.34
2892.88
2222.6
1664.03
1186.71
3939.23
2585.72
1791.71
1294.94
2887.99
2221.92
1665.74
1192.05
3782.25
2541.28
1811.79
1297.76
2958.96
2255.13
1678.76
1208.24
3635.79
2475.37
1797.24
1292.65
2997.58
2272.3
1718.99
1219.42
3445.74
2409.96
1742.35
1214.88
1738.12
1864.59
1367.58
423.396
498.685
1677.2
1232.02
396.199
1880.63
1918.62
1393.06
444.834
696.786
1739.52
1253.05
403.785
2104.69
2000.45
1414.98
442.494
1000.73
1839.16
1276.52
406.672
2438.35
2107.84
1459.34
472.411
1384.37
1968.55
1319.64
423.033
2932.48
2257.47
1534.34
528.614
1839.78
2101.43
1362.58
436.531
3305.39
2444.02
1580.89
504.24
1908.13
2272.08
1453.34
456.051
3232.36
2361.11
1546.01
504.769
1924.14
2205.05
1405.08
444.261
3315.29
2503.67
1600.56
477.666
1855.83
2329.25
1483.82
455.573
3305.37
2571.73
1650.38
487.824
1979.33
2398.91
1526.13
465.535
1019.91
671.161
411.417
219.339
68.5189
1028.72
673.343
412.198
219.655
68.6062
1038.73
677.211
414.003
220.431
68.8196
1046.56
680.577
415.531
221.107
69.0129
1047.9
683.11
416.726
221.594
69.1401
1051.09
690.241
420.379
223.267
69.6247
1088.72
704.488
427.452
226.501
70.5545
1107.04
717.301
434.376
229.749
71.4963
1078.81
697.174
423.278
224.496
69.9651
1091.83
699.218
423.673
224.583
69.9788
1052.89
689.604
419.649
222.844
69.4859
1080.67
694.658
421.478
223.58
69.687
1095.42
705.52
427.578
226.495
70.5454
1105.13
707.128
427.814
226.517
70.5424
1108.99
718.879
435.058
230.034
71.5765
1120.33
719.962
435.064
229.971
71.5533
1007.1
668.48
410.516
218.983
68.4211
1007.18
667.159
409.957
218.757
68.3603
1018.58
673.246
412.479
219.784
68.6375
1018.29
671.561
411.703
219.454
68.5473
1034.14
679.232
414.912
220.775
68.9037
1039.83
677.629
414.007
220.372
68.7908
1057.02
686.083
417.684
221.922
69.2142
1063.52
683.93
416.566
221.42
69.0687
1069.86
690.761
419.714
222.793
69.4578
10776.5
16841.9
11276
17184.5
12040.2
17666.6
12951.4
18679
13856.2
20476.3
12266.8
15105.8
12805.2
16523.3
12087.7
14761.1
11899.1
14649.4
8754.03
1571.61
348.226
78.8855
13.9939
10434.7
2898.29
710.663
162.396
28.5522
8899.86
1545.55
336.245
75.4773
13.3135
10575.4
2896.64
701.169
158.173
27.7155
9148.44
1532.43
325.517
72.1703
12.652
10839
2908.78
692.12
154.417
26.8814
9429.71
1506.2
312.232
68.6142
12.0008
11173.5