/*--------------------------------*- C++ -*----------------------------------*\
| =========                 |                                                 |
| \\      /  F ield         | OpenFOAM: The Open Source CFD Toolbox           |
|  \\    /   O peration     | Version:  2412                                  |
|   \\  /    A nd           | Website:  www.openfoam.com                      |
|    \\/     M anipulation  |                                                 |
\*---------------------------------------------------------------------------*/
FoamFile
{
    version     2.0;
    format      ascii;
    arch        "LSB;label=32;scalar=64";
    class       volScalarField;
    location    "1.3";
    object      gradTz;
}
// * * * * * * * * * * * * * * * * * * * * * * * * * * * * * * * * * * * * * //

dimensions      [0 -1 0 1 0 0 0];

internalField   nonuniform List<scalar> 
5712
(
8003.98
24265.3
6090.6
26491.1
3323.78
27951
5614.08
43975.4
9146.74
55147.4
9415.32
39312.1
10077.7
35023.6
9950.51
30165.6
4650.89
2612.23
14082.1
6781.8
4328.22
2022.8
15062.6
6106.9
6171.79
4636.07
18182.8
13499.9
4138.53
3334.97
18278.2
14050
9345.78
3430.23
7224.52
2707.07
3342.87
8792.37
43299.1
13177.9
13077.8
5936.93
52200.7
16271.8
12048.7
5523.15
28938.7
9619.08
14794.2
6685.13
23787.9
7535.35
6199.69
3341.98
10105.7
4144.65
5650.35
3492.77
10581.3
4062.22
7427.65
4698.5
6731.95
2891.98
11590.3
4235.7
4532.37
1692.52
14515.7
11184.6
8635.4
7898.15
15540.8
13715.4
8345.12
8935.99
8244.56
7295.25
11189.1
9798.27
6290.78
5497.92
3530.18
3060.15
6071.29
6076.97
3333.87
3352.5
6167
4984.72
3497.21
2523.64
7216.81
4096.08
7422.89
8021.14
9940.34
7527.14
10880.7
13954.8
5120.75
2229.39
4668.08
4738.54
2821.42
1007.5
2089.71
1801.08
7521
14827
5357.88
16689.8
8145.9
14926.1
6362.34
17651.9
10476.2
14616.5
8705.29
17760.2
10756.4
12054.2
9019.77
9203.75
10786.4
7965.75
9466.5
13457
16007.3
23119.1
10866.2
9435.65
9431.58
11922.8
18404.1
18510.6
17998.7
21612.1
21943.9
17944.7
18012.2
21562.1
21623.9
16339.4
17012.5
20490.5
20843.1
10009.2
10684.6
10496
11189
12919.3
13242.2
15407.6
15288.9
19711
20190.2
9067.2
10121.4
10704.2
11878.9
12338
13849.1
14518.8
16427
19253.9
21461.3
10664.7
7307.2
8566.23
8459.53
11550.9
12804
9349.82
12051.4
8114.58
8073.32
10412.8
7535.05
3728.83
6061.96
1449.19
2208.93
5755.2
8851.17
2155.97
3238
3288.14
5482.37
1192.12
1971.28
7898.42
6686.13
8204.51
5227.31
11213.8
8100.52
12920
8803.12
3800.15
4237.72
4678.52
2728.06
2783.91
2961.06
3084.99
2329.04
15803.5
10497.7
3485.71
17109.1
10870.1
3777.69
15476.6
10234.5
3540.33
16971.1
10808.1
3696.44
14644.6
9553.13
3220.87
16523.3
10584
3659.32
7875.93
4666.66
1305.66
9858.21
6769.49
2220.17
11687.3
8212.84
2785.97
13174.3
8692.38
2882.47
15838.3
10129
3585.78
8469.48
4795.65
1621.22
9030.25
5964.19
2125.41
10488.6
7015.41
2458.46
12501.9
8113.49
2816.69
15075.3
8981.79
3152.54
-533.738
972.788
372.66
2629.69
1906.7
1894.15
4886.1
4242.18
606.169
940.474
641.792
985.829
328.395
902.598
606.555
1324.99
1758.29
1091.61
3724.1
2678.1
1662.34
2672.44
2909.78
573.268
6210.24
1786.83
-4598.75
-1048.42
429.921
379.569
-312.725
-257.753
9963.65
4095.6
2620.58
1460.54
9797.47
4126.04
2840.32
1709.62
9390.18
4439.82
3708.4
2442.4
2807.72
1683.27
1348.87
1180.83
13363.9
11625.8
5761.01
7382.04
15599.6
14538.2
7537.12
9021.62
4994.18
6042.42
10910.5
8889.75
3561.52
4730.63
1902.1
2622.09
4947.13
5790.27
2708.54
3180.3
2706.78
3906.72
1365.24
2270.12
4266.95
2796.43
4807.27
2941.95
7517.53
4081.86
6522.05
3880.42
2411.63
1852.43
3277.48
1977.1
1205.55
1082.14
1999.87
1180.02
11396.4
7054.09
5207.82
5062.15
11291.1
7065.1
5107.1
4945.38
11400.7
6858.64
5139.97
4588.29
13440.4
13549.3
12039
8861.9
4650.13
8210.96
9396.69
9444.5
8417.32
5328.06
11747.1
10037.9
7929.12
6056.99
3558.86
5527.35
5070.52
5248.84
5917.14
5583.76
5010.88
5156.21
5838.46
5472.07
4923.47
4945.89
5660.23
9211.86
8748.65
8083.93
6893.64
5663.89
5529.73
5073.07
5073.63
4339.38
5407.14
6855.09
7768.99
5438.68
6125.91
4500.94
5049.51
4035.01
4677.25
3243.64
4986.8
4879.49
3927.75
3339.84
1935.3
7763.83
5882.49
6241.08
4045.36
2350.1
1412.03
3494.08
3126.44
4166.47
1897.71
1833.25
1013.91
5666.56
3310.57
2215.77
1528.8
3198.41
1383.29
1544.64
765.012
1741.83
2028.18
1948.17
3219.12
2670.03
3155.21
2311.27
4141.29
2158.76
1487.67
1437.86
2334.08
882.689
308.117
175.722
495.303
3891.89
1798.7
521.783
3994.98
1085.18
291.287
3896.37
1932.06
607.399
4014.75
1136.58
320.836
3733.92
1889.94
505.729
3889.63
1087.61
258.719
6028.31
3406.63
945.37
4665.83
2601.87
754.08
4146.07
2176.01
645.118
3693.49
1823.37
457.802
3766.48
1000.49
193.256
6576.48
3553.19
1141.57
5282.37
2920.39
973.955
4394.28
2357.9
781.694
3831.39
1676.03
481.981
4016.02
1068.86
348.719
1479.56
537.882
264.592
54.1911
598.871
227.587
118.93
34.309
1513.95
568.113
306.843
89.2159
708.237
294.046
186.131
83.297
1709.73
666.931
390.893
139.989
1170.05
550.539
281.226
119.029
811.537
458.225
169.136
44.4096
802.362
495.364
237.013
112.755
1371.62
605.776
299.256
54.4224
1284.2
552.369
325.355
21.5903
1758.48
701.591
420.691
120.835
1549.39
611.015
394.781
17.7388
1002.43
499.686
231.425
43.4555
969.859
463.624
268.501
55.6041
704.579
406.085
220.688
111.756
645.264
362.362
223.111
111.496
1867.17
658.945
340.364
30.5069
1894.25
639.55
398.478
-41.1868
1850.11
663.295
364.092
45.695
1815.79
615.71
395.614
-37.5018
1846.02
674.28
416.29
76.067
1625.01
554.711
388.462
-12.0165
1701.36
638.58
439.763
141.577
1785.4
619.52
487.315
6.22042
1302.25
489.903
343.775
66.9553
1516
465.463
305.586
-50.4229
584.395
164.647
95.0251
-4.43245
1503.84
471.148
309.047
-41.4868
599.206
173.206
102.261
2.46648
1424.54
457.293
313.39
-24.343
584.259
174.669
110.027
11.7431
1206.81
390.293
296.83
-3.62102
518.56
154.363
115.693
23.4603
1058.85
360.074
277.103
24.7343
473.861
154.437
122.176
37.8786
798.99
325.696
193.32
27.6746
423.277
196.456
108.198
49.4741
865.909
309.698
221.614
25.6073
429.884
166.809
114.232
46.2081
687.009
329.139
182.463
45.393
407.864
217.763
111.127
59.4629
511.613
297.12
175.413
91.3933
358.793
221.348
125.713
81.2177
15.9402
6.01277
2.73491
1.38705
0.87286
7.52037
2.95787
1.37576
0.709769
0.454008
24.3951
10.7148
5.15983
2.66396
1.67977
20.0476
9.73443
4.78078
2.47585
1.56111
46.0655
22.7468
11.319
5.93045
3.76685
79.2498
40.2269
20.2372
10.6115
6.72441
78.5158
41.5558
21.3335
11.3065
7.2172
80.029
42.3085
21.7367
11.5404
7.39044
56.3297
29.3825
15.0464
7.97301
5.05912
43.4986
23.0165
11.8605
6.32064
4.02406
59.6198
29.8573
14.9978
7.91503
5.03295
43.3753
20.8842
10.4351
5.51372
3.49317
60.0617
33.5538
17.5325
9.36936
5.99143
55.4727
30.7024
16.0158
8.56305
5.4745
71.5009
38.5837
19.922
10.5958
6.78384
68.1768
37.0975
19.2099
10.2249
6.53594
13.0834
5.12379
2.32006
1.17328
0.738385
4.5525
2.00681
0.92929
0.479356
0.308883
17.8116
7.64925
3.64607
1.88369
1.19833
5.34657
2.55047
1.2308
0.642865
0.417991
22.0084
10.8462
5.38346
2.83657
1.82728
11.4037
5.52928
2.66463
1.36675
0.877547
50.7917
25.0747
12.4336
6.56732
4.21358
25.5875
12.5018
6.12718
3.21641
2.06876
58.2778
26.8888
13.1211
6.85078
4.33982
3166.44
5507.64
3013.46
5359.05
2847.79
5008.96
2810.23
4837.71
3006.41
5416.35
1808.14
2488.96
2431.92
3715.87
1219.43
1503.94
488.024
605.04
9349.35
2267.14
523.918
117.03
29.6071
2506.56
668.549
179.962
40.6198
9.16114
9228.3
2207.48
506.571
112.372
28.305
2593.8
757.447
187.321
43.7437
11.0595
8811.2
2072.72
470.793
103.692
25.986
2518.56
731.304
179.349
41.4433
10.3783
8147.5
1879.83
423.355
92.95
23.2908
2412.37
683.589
164.281
37.356
9.22708
7021.73
1596.56
359.409
79.2584
20.006
2218.69
600.486
141.136
31.7068
7.76462
3841.5
934.058
218.093
49.2858
12.6775
1138.9
290.993
64.0393
13.3896
3.10014
5417.45
1279.53
293.203
65.3932
16.6714
1575.57
412.513
94.9963
21.0787
5.1345
2393.35
597.091
141.539
32.3219
8.36732
732.855
192.106
41.848
8.40335
1.87107
880.941
222.69
53.2822
12.2654
3.1951
351.333
85.5661
17.8958
4.76341
0.755783
-1677
435.514
4423.17
-3923.13
1015.78
1083.9
2727.49
3334.36
2270.88
3666.53
3061.46
4626.06
2963.63
3864.34
1411.77
2052.28
1518.63
1769.51
1053.11
1091.35
2877.37
2179.04
-81.6674
-590.759
-651.43
-889.279
-349.738
12733.5
3900.02
4599.12
3757.89
607.089
296.907
3514.46
-586.274
-92.9275
-459.294
-125.289
6246.31
3395.84
1802.56
1008.21
3387.2
1739.52
405.728
641.062
-725.912
-651.907
1060.45
950.728
9477.62
4539.86
4698.18
2682.04
3389.82
3489.22
325.046
-625.242
612.395
1957.01
1660.58
1392.9
1224.71
868.477
1708.64
1347.22
1058.81
754.795
289.793
-76.9566
-66.2288
-48.5056
-28.0108
-8.93221
-525.138
-436.443
-325.396
-200.345
-67.5824
-580.176
-482.901
-359.97
-221.303
-74.6075
-792.148
-659.773
-492.494
-303.281
-102.334
-308.11
-252.618
-184.484
-111.058
-37.0039
9180.97
8019.17
6484.18
5620.57
4784.17
3385.24
2616.27
2196.99
1705.75
723.035
3677.26
2841.25
2248.76
1660.31
714.251
2865.56
2162.73
1687.82
1192.39
436.348
488.311
340.614
294.071
212.547
97.5203
304.75
290.267
246.351
170.02
61.0771
2877.12
2247.1
1685.76
1120.12
411.452
-328.542
-138.866
-47.0587
-9.23809
-2.22194
-61.4409
-27.4547
1.05799
14.2131
8.04677
-308.24
-177.259
-88.6674
-37.2135
-10.1911
-124.243
-109.866
-81.0745
-46.7811
-14.5834
4189.51
3914.41
3233.66
2960.2
2715.97
2751.91
2112.22
1671.02
1202.67
450.707
1591.44
1328.06
1027.75
673.931
238.161
870.587
711.642
542.711
352.389
123.662
2810.46
2207.14
1638.94
1056.59
374.424
1530.33
1256.97
951.337
602.485
198.931
347.783
282.911
216.368
141.066
49.0063
565.522
469.94
357.986
228.063
78.1514
-626.434
-502.744
-361.507
-215.913
-71.6481
-573.19
-468.879
-341.9
-205.61
-68.4002
922.852
757.552
571.263
363.12
125.943
827.624
679.067
511.689
324.577
112.071
6157.05
4802.05
4039.67
3643.39
2791.53
3498.36
2707.25
2098.81
1490.46
593.879
3644.53
2964.03
2381.85
1849.62
745.807
2116.29
1704.79
1322.89
920.466
390.209
2873.82
2302.36
1723.47
1103.32
382.71
2871.53
2045.31
1590.71
1110.94
234.149
283.732
235.333
183.864
121.652
42.2384
-555.094
-458.981
-337.924
-204.642
-68.3431
541.429
450.987
350.159
228.62
77.889
-32365.7
-50234.4
-24583.6
-42648.2
-25906.2
-59363.6
-33981.3
-72224.8
-18458.3
-12553.4
-20283.1
-11096.1
-17119.6
-11370.4
-20352.1
-9860.32
-26910.5
-19099.5
-36952.4
-26849.2
-21264.2
-15725.3
-31767.7
-23965.1
-16191
-16661.3
-11455.6
-11286.5
-14030.5
-14602.4
-47537.9
-14611.9
-15388.2
-7351.32
-55605
-17706.7
-13949.3
-6798.74
-33474.7
-11022.9
-17071.3
-7982.04
-28282.7
-8598.88
-13074.3
-5582.82
-17750.7
-6697.86
-11419.7
-5128.53
-16396.5
-5880.4
-11909.7
-5805.14
-10069.2
-3878.78
-14063.1
-5024.67
-5493.73
-2043.53
-11761.5
-8690.43
-9576.03
-7274.11
-10116.9
-8730.06
-8464.7
-7449.84
-9619.9
-7198.16
-11225.9
-9015.83
-7158.41
-5349.88
-4231.27
-3064.47
-6463.85
-5463.68
-3732.74
-3031.25
-7229.91
-5088.65
-4291.42
-2688.72
-8614.22
-4576.5
-7493.92
-7959.11
-11277.7
-7932.73
-10686.4
-13600.7
-6085.57
-2571.86
-4815.74
-4767.05
-3502.48
-1259.21
-2257.46
-1854.38
-11599.7
-14862.9
-6686.12
-16933.5
-11522.3
-14496.1
-7328.28
-17517.9
-12768.1
-13988.1
-9133.15
-17146.5
-7215.34
-4531.39
-9269.45
-10774.4
-11043.2
-6425.58
-9042.68
-13550.8
-15662.1
-22237.8
-5944.08
-6884.64
-8388.32
-11321.9
-17702.5
-15745
-12939
-19715.7
-16365
-15265.2
-13243.6
-19726.3
-16487.7
-13950.3
-12370
-18634.5
-16363.7
-9169.64
-8548.89
-9450.23
-8539.21
-10908.2
-9787.5
-12675.5
-11296.3
-17827.3
-16392.2
-7501.1
-8194.25
-8586.42
-8539.3
-10010.8
-9933.35
-12272.2
-12348.9
-17629.8
-17471.4
-8935.32
-6091.5
-7519.4
-7509.53
-9150.4
-11155.7
-7775.25
-10631
-7484.06
-7406.82
-9280.53
-6560.92
-3087.46
-5396.69
-965.535
-1701.96
-4717.82
-7884.7
-1385.91
-2510.76
-2911.2
-5032.85
-906.465
-1626.5
-7513.04
-6218.95
-7916.64
-4882.01
-10436.7
-7272.8
-12338.5
-8024.6
-3566.88
-3942
-4493.72
-2521.06
-2593.9
-2724.5
-2939.76
-2164.02
-9426.93
-3636.19
-10196.8
-3550.69
-9645.39
-3627.36
-10688.6
-3940.38
-9279.45
-3427.42
-11514.6
-4544.57
-4908.34
-1228.27
-5989.25
-2157.3
-7054.1
-2746.08
-8578.14
-3243.23
-11473.7
-4452.36
-5820.55
-1079.98
-5392.74
-1860.44
-6317.36
-2346.6
-8161.34
-3029.88
-10495.2
-3477.79
-6935.84
-6684.96
-4729.25
-4457.67
-11125.6
-8847.82
-8748.27
-6895.66
-5715.52
-5089.64
-2229.07
-1769.46
-5380.49
-5032.1
-1970.85
-1815.39
-2945.64
-6098.36
-4143.99
-7338.37
-4946.76
-2412.18
-3660.29
-1106.87
-7474
-2775.04
3828.56
873.014
-515.064
-349.059
701.109
850.61
-2605.91
-1257.08
-1059.22
-377.541
-2643.14
-1414.5
-1206.8
-400.32
-2930.43
-1694.53
-1478.03
-340.635
-1392.02
62.5451
-65.8862
666.585
-5543.07
-5417.54
-4177.09
-4646.99
-8163.07
-7865.86
-6689.6
-6647.17
-2761.31
-3365.88
-4275.29
-4019.11
-2917.14
-3207.8
-1501.98
-1526.99
-4800.53
-4636.58
-2731.66
-2444.37
-1538.94
-2204.36
-518.657
-927.969
-1713.12
-899.118
-2500.74
-1274.87
-2694.95
-1705.15
-3004.1
-1859.71
-831.166
-288.901
-1614.18
-559.047
33.3177
347.336
-573.323
132.096
-2795.7
-2622.85
-2091.08
-3139.18
-2902.92
-2803.93
-2202.59
-3222.5
-3460.24
-2962.39
-2500.64
-3173.49
-2574.87
-3186.97
-2940.46
-2630.02
-2055.81
-4927.75
-3829.82
-3323.89
-3717.95
-3465.12
-5101.24
-3760.14
-2988.84
-2525.17
-1637.13
-3356.1
-4128.03
-5323.04
-9134.84
-3253.74
-3529.21
-4981.51
-8461.32
-3369.14
-3978.19
-4575.66
-7540.46
-8095.2
-6959.06
-6238.79
-5385.32
-4098.04
-4403.05
-3928.33
-4620.18
-3925.92
-6732.39
-5487.92
-6285.12
-3837.81
-4829.61
-2918.36
-3969.46
-2791.3
-4043.92
-2181.04
-5229.76
-2503.54
-2597.63
-1508.08
-599.62
-5144.4
-4453.43
-4378.11
-2663.94
-699.794
-213.404
-1557.14
-2000.91
-2749.41
-865.154
-670.295
-154.642
-4318.56
-2256.5
-1188.09
-682.164
-1850.09
-453.712
-356.17
43.0561
-432.302
-1159.18
-1034.29
-2817.26
-1242.24
-2419.39
-1465.95
-4055.96
-1004.53
-741.313
-453.936
-1800.32
233.671
417.46
808.662
102.656
-3438.29
-1141.67
-6611.44
-882.639
-3007.43
-1278.48
-6223.06
-873.745
-2766.87
-847.203
-5086.61
-380.784
-3831.77
-888.866
-3136.61
-780.918
-3235.7
-983.666
-2761.49
-475.177
-4575.46
-336.612
-4541.31
-672.221
-3777.09
-611.814
-3475.6
-693.726
-3218.17
-330.836
-4619.73
-456.595
-563.079
-190.344
-114.271
32.4002
-182.886
-58.2658
-44.2478
2.92818
-551.642
-169.4
-120.563
24.5512
-98.5159
-6.94811
-40.7718
-0.78417
-606.34
-162.578
-126.25
48.9891
66.1118
123.897
140.037
177.552
451.132
304
311.726
262.1
678.746
442.345
338.694
213.863
-296.15
-11.5903
64.8337
194.814
-269.889
24.2885
10.8798
209.654
-683.126
-167.267
-116.914
123.914
-528.614
-81.7
-112.245
204.318
67.7859
148.426
170.801
214.307
8.23342
136.256
104.212
194.001
384.133
286.058
225.387
171.457
312.471
249.352
170.953
154.244
-886.771
-296.06
-201.114
71.6025
-1171.98
-347.13
-326.729
146.889
-868.54
-276.846
-209.659
69.0959
-1141.01
-331.527
-322.641
143.236
-871.11
-255.796
-243.738
54.5869
-1037.21
-292.555
-314.507
119.89
-610.346
-130.941
-196.193
70.1702
-982.324
-243.842
-354.069
152.023
-444.227
-70.7301
-115.195
173.276
-1130.93
-265.759
-267.723
132.237
-491.567
-97.2889
-76.617
30.9457
-1014.63
-231.951
-253.586
127.699
-454.909
-87.2654
-75.5099
28.4086
-830.691
-170.799
-237.409
110.919
-381.745
-65.109
-71.3416
25.8879
-657.222
-121.838
-213.373
89.9399
-325.09
-51.7625
-72.6017
20.4551
-444.441
-61.7037
-150.788
89.7789
-183.689
-12.3748
-51.0663
25.2574
-179.12
37.3088
24.735
148.593
91.9904
103.127
67.4174
83.8448
-372.959
-46.8648
-76.8983
110.827
-28.3513
43.6892
3.58928
49.6937
53.7555
137.959
102.047
162.435
176.019
156.408
114.276
104.744
279.559
225.457
144.289
133.887
255.681
196.416
127.326
99.7087
12.5352
5.28532
2.43371
1.24125
0.787127
5.64109
2.49151
1.15998
0.587046
0.366346
21.6785
9.73863
4.67757
2.43189
1.55891
18.8774
8.83182
4.39289
2.31962
1.49549
46.1813
20.6678
10.0543
5.23337
3.3482
75.3353
37.0309
18.5421
9.77278
6.29376
80.3832
39.9496
19.9746
10.4825
6.71335
82.8349
41.886
21.2166
11.1992
7.17176
62.0627
28.5451
13.9051
7.23687
4.6576
52.0065
22.5781
10.8303
5.59264
3.58842
59.813
26.6383
12.9462
6.71009
4.2962
40.0904
18.0116
8.76099
4.52888
2.91379
72.3221
34.052
16.7037
8.69468
5.56462
66.7232
31.0187
15.1901
7.90574
5.07054
76.7268
38.5991
19.4968
10.2744
6.57544
74.1473
37.3927
18.8598
9.9285
6.35803
13.5032
4.61695
2.03007
1.02257
0.645389
6.4662
1.76435
0.727806
0.353461
0.215127
17.5074
6.86885
3.16764
1.6183
1.02154
7.59622
2.32635
1.00489
0.498298
0.303646
25.2583
9.75563
4.51661
2.29467
1.43442
12.163
4.90165
2.37293
1.24736
0.783926
48.6034
20.5477
9.90616
5.08103
3.20461
22.931
9.84119
4.81276
2.48469
1.56012
45.1805
21.6325
10.7748
5.63016
3.61375
-3315.4
-5062.32
-3179.34
-4966.81
-2958.77
-4645.9
-2829.26
-4454.36
-2846.71
-4844.45
-1662.87
-2295.41
-2278.29
-3401.25
-1074.9
-1361.5
-350.22
-484.411
-9573.85
-2299.9
-528.159
-117.456
-29.6161
-2535.37
-676.761
-181.598
-40.8187
-9.1697
-9382.65
-2228.26
-508.922
-112.516
-28.2692
-2630.83
-767.405
-188.914
-43.9337
-11.0709
-8842.79
-2073.83
-470.111
-103.389
-25.8798
-2546.48
-737.703
-180.221
-41.509
-10.3688
-8065.78
-1862.94
-419.89
-92.233
-23.1192
-2407.97
-682.973
-163.95
-37.2323
-9.18722
-6884.83
-1571.52
-354.685
-78.3546
-19.8064
-2173.55
-592.887
-139.707
-31.4188
-7.69928
-3765.37
-917.378
-214.619
-48.5899
-12.5221
-1081.72
-279.108
-61.7237
-12.9487
-3.00664
-5302.15
-1256.4
-288.671
-64.5196
-16.4808
-1516.85
-402.025
-93.0827
-20.7198
-5.05889
-2343.58
-585.506
-138.979
-31.7855
-8.2432
-681.305
-179.703
-39.1588
-7.85411
-1.74778
-844.607
-213.876
-51.2338
-11.819
-3.08816
-304.286
-73.2719
-15.0207
-4.14314
-0.611215
269.059
-2069.71
-6368.14
1384.41
-7345.16
-3245.63
-7208.43
-3341.81
-12368.3
-6748.17
-14443.9
-7873.21
-87.7498
-313.53
-484.524
-563.42
-490.89
-217.976
-141.232
-492.759
-751.475
-847.738
-701.451
-231.021
-66.9847
-62.873
-221.258
-204.602
-282.956
-273.49
-190.409
-207.075
-106.5
-154.233
-191.538
-166.345
501.383
1622.97
3179.18
2543.82
2295.88
1057.16
662.51
1933.53
3269.42
3656.69
3126.62
1393.51
-78.9987
-66.6325
-50.373
-31.328
-10.626
-282.573
-238.686
-180.725
-112.542
-38.1993
-436.561
-368.624
-279.015
-173.711
-58.9572
-507.313
-428.043
-323.75
-201.449
-68.3501
-441.801
-372.541
-281.559
-175.068
-59.3705
-197.386
-167.396
-126.901
-78.9013
-26.7218
-127.035
-107.035
-80.834
-50.2344
-17.0322
-443.718
-374.409
-283.205
-176.231
-59.7947
-676.327
-570.336
-431.18
-268.225
-90.9989
-762.139
-641.936
-484.803
-301.379
-102.216
-629.868
-529.828
-399.682
-248.285
-84.1829
-208.452
-176.164
-133.299
-82.8886
-28.1021
-60.354
-50.9641
-38.5722
-24.0097
-8.14675
-56.689
-47.908
-36.2895
-22.6043
-7.67296
-199.527
-168.666
-127.804
-79.6303
-27.0339
-184.564
-156.07
-118.299
-73.7278
-25.0337
-255.09
-215.568
-163.292
-101.716
-34.5263
-246.562
-208.354
-157.822
-98.3081
-33.3704
-171.735
-145.224
-110.063
-68.5737
-23.2739
-186.549
-157.514
-119.213
-74.2058
-25.1772
-96.2198
-81.5029
-61.8009
-38.4744
-13.0424
-138.642
-116.755
-88.1155
-54.7188
-18.539
-172.446
-145.341
-109.56
-67.8431
-22.9253
-149.276
-125.387
-94.3153
-58.3772
-19.7383
442.494
366.133
273.426
169.522
57.5674
1425.76
1175.36
877.08
544.911
185.437
2756.24
2250.48
1679.95
1053.72
361.886
2188.82
1802.8
1360.9
868.545
311.461
1985.59
1635.19
1233.45
783.025
271.122
942.163
790.428
601.201
379.374
129.085
585.929
485.597
362.714
224.624
76.1917
1704.11
1408.57
1051.62
652.333
221.686
2862.09
2354.15
1756.68
1093.85
373.415
3184.71
2614.81
1954.7
1223.88
421.251
2717.13
2228.71
1668.73
1048.25
360.844
1221.68
1010.96
762.768
481.301
165.773
157.013
385.769
561.697
646.114
579.623
325.971
241.374
595.708
856.321
947.225
784.616
292.162
117.38
102.362
271.869
245.528
330.516
313.662
226.283
236.673
143.848
149.353
299.765
200.284
-370.349
-1438.76
-2852.54
-2124.14
-1799.54
-515.26
-616.703
-1864.89
-3107.86
-3364.21
-2695.77
-872.424
141.798
120.08
91.1624
56.8915
19.333
348.135
294.522
223.367
139.286
47.3154
506.632
428.356
324.681
202.376
68.7302
582.49
492.223
372.896
232.339
78.8906
522.586
441.625
334.555
208.432
70.7664
295.716
251.478
191.405
119.516
40.5998
217.873
184.383
139.893
87.262
29.6463
537.183
454.053
344.067
214.42
72.8148
771.58
651.598
493.357
307.281
104.32
852.646
719.278
544.087
338.674
114.947
705.638
594.686
449.488
279.667
94.9065
264.133
223.776
169.821
105.882
35.9577
106.038
89.8317
68.2237
42.5872
14.4735
92.4803
78.3522
59.5096
37.1491
12.6252
245.437
207.75
157.641
98.3358
33.4074
221.686
187.671
142.422
88.8508
30.1866
298.257
252.352
191.403
119.355
40.5386
283.033
239.441
181.587
113.224
38.4552
204.325
173.029
131.341
81.9397
27.8324
213.463
180.502
136.825
85.2808
28.9565
130.28
110.701
84.2591
52.6434
17.8868
134.676
113.854
86.2746
53.7522
18.2446
271.072
229.805
174.477
108.788
36.9297
180.605
152.633
115.587
71.9645
24.4187
-323.625
-264.823
-195.973
-120.91
-41.0037
-1259.04
-1033.72
-769.219
-477.489
-162.508
-2459.19
-1996.54
-1485.48
-931.796
-320.328
-1797.65
-1459.63
-1090.45
-694.427
-252.083
-1516.61
-1218.8
-900.156
-563.742
-193.818
-427.467
-330.323
-229.823
-132.572
-41.5349
-544.614
-450.717
-336.333
-208.219
-70.6232
-1642.67
-1357.17
-1013.17
-628.693
-213.719
-2715.81
-2229.9
-1662.17
-1034.92
-353.416
-2915.64
-2381.96
-1773.84
-1108.85
-381.869
-2317.12
-1878.98
-1393.81
-871.097
-299.42
-735.977
-584.169
-425.275
-262.517
-89.623
-2140.39
-1528.6
435.8
884.556
949.934
1325.08
812.809
-10608.6
-1959.29
-3353.46
-1465.39
457.441
-3978.42
761.758
2104.4
656.157
-5260.3
-2294.03
-830.426
-473.701
-2995.08
-976.994
-14.6701
-86.3992
1474.44
1346.87
-594.102
-458.028
-8659.86
-3941.98
-3830.91
-2018.13
-2911.73
-2514.01
312.08
1328.68
31.3689
-1190.63
-945.883
-774.285
-768.846
-681.587
-1074.89
-769.951
-581.696
-427.409
-170.411
400.336
343.94
262.581
163.371
55.2905
793.317
666.688
502.869
312.57
106.005
853.342
718.041
541.697
336.497
114.13
1188.98
999.405
753.53
468.041
158.725
732.212
618.019
467.213
290.506
98.6336
-7404.82
-6706.29
-5646.56
-5354.71
-5239.44
-1365.34
-845.541
-800.546
-778.886
-338.59
-2508.86
-1837
-1474.21
-1173.85
-550.495
-990.574
-668.819
-588.487
-489.34
-157.093
407.373
338.223
250.801
153.136
52.2847
-3250.54
-2547.43
-1924.96
-1290.83
-476.005
679.458
566.266
421.941
259.013
87.0426
1810.05
1463.36
1085.09
680.104
235.872
590.569
496.447
371.748
228.171
76.3667
-3292.17
-3146.65
-2660.22
-2670.75
-2813.34
-1696.9
-1168.9
-919.613
-714.094
-278.741
-669.641
-514.751
-386.167
-259.182
-93.0593
-373.597
-278.269
-204.562
-136.597
-49.2003
-2470.82
-1931.17
-1442.22
-944.817
-339.999
-816.102
-627.334
-453.336
-279.567
-85.2544
12.4403
29.6357
26.9344
13.9572
4.40989
-54.2016
-26.4639
-12.8434
-7.94625
-2.24175
1309.98
1090.11
816.117
505.64
171.645
1207.32
1013.3
762.299
472.471
160.15
-495.525
-389.933
-287.608
-183.395
-64.2142
-375.506
-289.304
-210.45
-133.716
-46.5672
-5399.22
-4146.51
-3532.33
-3357.17
-2781.38
-2937.35
-2210.6
-1704.33
-1236
-507.3
-2796.37
-2222.57
-1780.53
-1456.94
-594.941
-1494.08
-1155.64
-888.091
-640.922
-298.158
-2433.3
-1921.08
-1427.55
-915.446
-317.34
-1964.72
-1227.97
-943.123
-692.441
-71.3797
303.575
274.31
213.027
131.516
45.0607
1194.8
1006.03
758.456
470.394
159.418
59.526
76.842
65.5531
39.3094
15.3592
-80.2665
-181.536
-241.219
-318.638
-466.217
-645.392
-22948.4
-18961.5
-17633.5
-21079.7
-16254.2
-12589
-14770.7
-11296.3
-20511.1
-16421
-17340.9
-14813.8
-14974.3
-11549.2
-14166.8
-19434.5
-17070
-15029.7
-17053.1
-14503.1
-11307.8
-12768.2
-9616.34
-18990.6
-16092.4
-17146.5
-15071
-14838.2
-12391.5
-14425.7
-15215.7
-13958.3
-12105.9
-13181.3
-12167.9
-10095
-10745
-9170.24
-15740.6
-14512.8
-14938
-14025.6
-13611.3
-11796
-13435.8
-10504.4
-10075.2
-8646.98
-9009.72
-9325.89
-8729.26
-8208.59
-8101.65
-11411.2
-12637.3
-11057
-12170.1
-10566.5
-9653.69
-11603
-6764.22
-6653.8
-5577.04
-5681.66
-6546.47
-6615.83
-5477.94
-5616.24
-7946.14
-9715.83
-7815.53
-9113.51
-7723.65
-7513.09
-8726.46
-2467.89
-2449.6
-2010.05
-2034.39
-2460.51
-2580.21
-1972.42
-1957.91
-3221.35
-4076.81
-3152.68
-3624.84
-3152.95
-3139.87
-3471.29
-8328.63
-8329.56
-11953.8
-13185.6
-8304.82
-7806.27
-11085.3
-9219.34
-7460.78
-4583.08
-7565.37
-4517.32
-7603.91
-7673.64
-4610.87
-7920.73
-7698.88
-11034.5
-11944.3
-7388.91
-6439.8
-9999.24
-8146.14
-5280.79
-1749.91
-5189.6
-1982.94
-4374.72
-4187.92
-2322.72
-6667.01
-6498.28
-9303.47
-9843.2
-6445.77
-5840.85
-8658.62
-7671.06
-2834.46
-1616.38
-2757.11
-2189.08
-2614.15
-2880.58
-2829.48
-4915.54
-4879.71
-6836.96
-7028.7
-4945.19
-4777.6
-6661.28
-6457.45
-2881.73
-1509.43
-3033.51
-2370.98
-3219.72
-3744.17
-3200.3
-3082.37
-3066.02
-4374.3
-4438.24
-2973.57
-2919.13
-4309.51
-4208.59
-1672.63
-1144.55
-1827.3
-1882.37
-2219.76
-2678.59
-2499.12
-1055.03
-1052.34
-1554.66
-1571.47
-1038.71
-1066.23
-1527.26
-1470.48
-355.496
-492.627
-496.551
-861.827
-774.508
-986.847
-1054.99
7910.61
23769
6079.61
26504
3319.02
27956.2
5611.74
43974
9142.86
55142.8
9406.75
39309
10062.8
35018.8
9819.63
29467.6
4648.78
2611.82
14083.5
6782.13
4326.81
2022.36
15061.7
6106.56
6096.69
4579.42
17845.3
13250.8
4128.91
3330.85
18294.1
14069.2
9351.59
3428.47
7225.88
2706.88
3342.86
8800.73
43302.5
13178.3
13078.6
5936.86
52200.4
16271.3
12048.6
5522.85
28946.4
9620.54
14796.1
6685.56
23798.9
7537.22
6152.25
3300.88
9907.63
4056.91
5654.89
3492.94
10599
4066.39
7430.45
4699.02
6737.72
2893.79
11596.8
4237.86
4533.97
1693.12
14515.6
11184.7
8635.55
7898.23
15541
13715.6
8345.04
8936
8245.17
7295.47
11189.2
9798.42
6291.04
5498.01
3530.04
3060.08
6071.24
6076.97
3333.71
3352.45
6167.7
4984.92
3497.27
2523.63
7218.12
4096.63
7423.2
8021.3
9941.21
7527.41
10881
13954.8
5121.95
2229.88
4668.34
4738.69
2821.72
1007.64
2089.75
1801.12
7527.86
14864.7
5337.05
16725.9
8152.44
14916.5
6365.07
17642.2
10477.2
14613
8705.06
17756.8
10756.5
12054.5
9019.93
9204.79
10786.3
7965.82
9466.39
13456.4
16006.2
23117.4
10866.3
9435.71
9431.63
11922.9
18404
18545.6
18016.7
21654.9
21924.8
17936.9
18009
21554.4
21628.2
16336.3
17010.8
20488
20843.9
10009.2
10684.5
10495.7
11188.7
12918.5
13241.6
15405.8
15288
19709.9
20190.3
9067.15
10121.3
10704
11878.7
12337.6
13848.8
14518.2
16426.7
19253.7
21461.3
10664.6
7307.16
8566.21
8459.52
11550.9
12803.9
9349.81
12051.3
8114.6
8073.36
10412.7
7535.05
3728.86
6061.96
1449.19
2208.93
5755.22
8851.14
2155.98
3238
3288.19
5482.41
1192.12
1971.28
7898.49
6686.19
8204.58
5227.34
11213.7
8100.56
12920
8803.16
3800.22
4237.77
4678.58
2728.07
2783.94
2961.07
3085.01
2329.04
15803.7
10489.7
3489.46
17095.9
10855.7
3771.34
15472.7
10232.3
3538.97
16972.4
10807.8
3695.86
14643.3
9552.23
3220.46
16523.9
10583.9
3659.13
7875.8
4666.56
1305.62
9857.96
6769.3
2220.1
11686.9
8212.55
2785.85
13173.8
8692.01
2882.33
15838.5
10129
3585.68
8469.37
4795.57
1621.19
9030.07
5964.05
2125.35
10488.3
7015.24
2458.39
12501.7
8113.34
2816.62
15075.3
8981.68
3152.46
-535.688
972.133
367.862
2628.79
1905.25
1893.54
4883.22
4241.38
596.045
937.428
629.762
978.876
330.93
904.514
609.359
1326.71
1761.49
1093.23
3724.56
2678.36
1664.15
2675.74
2909.4
573.577
6209.87
1786.73
-4597.34
-1046.96
430.3
380.418
-310.405
-255.982
9949.54
4093.8
2616.1
1456.94
9795.69
4127.26
2839.85
1711.3
9389.25
4440.06
3709.07
2443.7
2808.99
1684.45
1350.34
1181.79
13364.1
11625.9
5760.88
7382.07
15600
14538.5
7536.94
9021.62
4994.29
6042.46
10910.3
8889.63
3561.53
4730.72
1902.4
2622.3
4947.01
5790.28
2708.57
3180.36
2707.12
3906.9
1365.8
2270.42
4267.14
2796.77
4807.3
2942
7517.07
4081.66
6521.78
3880.16
2412.15
1852.93
3277.68
1977.3
1206.24
1082.64
2000.2
1180.29
11395.8
7064.2
5213.21
5069.45
11288.7
7062
5105.51
4939.58
11398.7
6856.82
5138.67
4585.75
13440.8
13549.7
12038.6
8860.89
4649.41
8211.11
9396.73
9443.97
8416.07
5326.6
11747.3
10038
7928.91
6056.56
3558.42
5532.47
5068.77
5251.95
5911.49
5581.49
5009.12
5150.49
5836.05
5470.72
4922.69
4943.5
5659.14
9211.93
8748.6
8083.89
6893.54
5663.59
5529.49
5072.43
5073.19
4338.23
5406.56
6855.14
7768.95
5438.7
6125.85
4500.81
5049.39
4034.71
4677.03
3243.11
4986.47
4879.56
3927.76
3339.89
1935.32
7763.94
5882.49
6241.12
4045.37
2350.1
1412.02
3494.01
3126.39
4166.52
1897.75
1833.34
1013.96
5666.58
3310.59
2215.82
1528.83
3198.47
1383.32
1544.77
765.075
1741.8
2028.15
1948.12
3219.07
2669.86
3155.11
2311.04
4141.15
2158.82
1487.69
1437.93
2334.1
882.823
308.184
175.857
495.375
3886.94
1795.25
521.841
3993.15
1086.49
291.439
3895.22
1933.37
607.989
4014.06
1137.75
321.407
3733.59
1890.31
505.938
3889.28
1087.84
258.87
6028.24
3406.57
945.349
4665.75
2601.84
754.07
4145.96
2176.03
645.135
3693.26
1823.4
457.809
3766.28
1000.55
193.291
6576.42
3553.14
1141.55
5282.3
2920.35
973.936
4394.19
2357.86
781.678
3831.26
1675.96
481.947
4015.89
1068.86
348.734
1475.42
535.274
261.979
52.4953
593.917
224.996
116.942
33.2206
1514.6
568.359
307.037
89.3189
708.913
294.296
186.333
83.4067
1709.84
666.978
390.952
140.03
1170.37
550.649
281.331
119.061
811.859
458.344
169.225
44.4424
802.74
495.53
237.101
112.788
1371.76
605.834
299.302
54.4471
1284.25
552.403
325.385
21.6186
1758.41
701.574
420.713
120.869
1549.27
610.988
394.79
17.7701
1002.64
499.781
231.481
43.4824
969.983
463.695
268.547
55.6338
704.824
406.205
220.754
111.787
645.432
362.458
223.167
111.528
1869.26
659.182
339.404
29.3608
1898.36
640.737
398.563
-41.8368
1849.53
663.1
364.035
45.6863
1813.37
614.91
395.219
-37.4566
1845.5
674.113
416.248
76.1084
1623.91
554.343
388.321
-11.9679
1701.04
638.473
439.757
141.623
1784.78
619.311
487.257
6.26785
1302.07
489.845
343.778
66.9953
1522.09
467.609
306.765
-50.8176
588.105
165.886
95.6038
-4.50157
1501.15
470.282
308.652
-41.4081
598.932
173.17
102.296
2.51369
1423.35
456.916
313.28
-24.2725
583.885
174.569
110.021
11.7906
1206.28
390.115
296.785
-3.58604
518.333
154.293
115.68
23.4856
1058.61
359.993
277.089
24.7601
473.744
154.4
122.171
37.8957
798.985
325.708
193.337
27.6984
423.273
196.465
108.212
49.4922
865.816
309.672
221.614
25.629
429.829
166.795
114.235
46.2242
687.074
329.187
182.496
45.4202
407.909
217.8
111.153
59.4848
511.728
297.196
175.459
91.4237
358.877
221.408
125.749
81.2431
15.508
5.7876
2.60884
1.31231
0.819498
7.24457
2.80894
1.28862
0.655222
0.413175
24.4156
10.7237
5.16057
2.66155