/*--------------------------------*- C++ -*----------------------------------*\
| =========                 |                                                 |
| \\      /  F ield         | OpenFOAM: The Open Source CFD Toolbox           |
|  \\    /   O peration     | Version:  2412                                  |
|   \\  /    A nd           | Website:  www.openfoam.com                      |
|    \\/     M anipulation  |                                                 |
\*---------------------------------------------------------------------------*/
FoamFile
{
    version     2.0;
    format      ascii;
    arch        "LSB;label=32;scalar=64";
    class       volScalarField;
    location    "1.3";
    object      T;
}
// * * * * * * * * * * * * * * * * * * * * * * * * * * * * * * * * * * * * * //

dimensions      [0 0 0 1 0 0 0];

internalField   nonuniform List<scalar> 
5712
(
537.57
555.469
523.799
545.21
505.523
530.144
477.536
504.141
481.381
508.222
507.365
533.91
519.362
543.67
530.668
551.718
495.805
478.132
514.459
487.416
468.475
449.633
485.831
457.473
545.716
552.617
559.88
563.353
535.109
544.157
551.853
557.269
533.943
519.912
506.442
498.402
534.612
546.363
535.857
541.835
496.117
503.727
510.899
517.028
465.997
472.498
547.954
553.339
516.583
526.756
559.036
565.218
557.399
566.402
566.051
570.273
549.665
563.466
560.646
568.28
539.131
558.456
549.524
563.889
556.812
566.454
561.174
568.034
462.949
447.149
471.35
451.113
428.565
414.671
437.009
419.119
499.956
480.32
492.375
476.106
477.021
453.732
480.23
455.052
442.851
422.015
446.079
423.469
505.465
483.092
508.551
484.437
527.19
556.542
510.006
544.638
520.197
551.946
504.995
540.423
531.929
558.794
512.931
547.027
534.402
559.726
514.219
548.449
551.677
539.286
562.703
553.505
542.98
530.546
558.997
548.673
530.421
517.502
552.557
540.907
445.842
406.588
481.582
510.381
543.279
405.107
443.375
476.275
503.17
532.884
404.419
440.363
470.802
498.088
532.016
514.78
492.02
519.139
497.37
509.22
486.578
517.134
494.994
500.134
478.351
513.543
491.389
397.493
383.168
435.029
419.953
465.318
447.05
488.705
468.351
510.215
488.152
396.332
380.73
430.773
415.136
459.575
442.129
484.694
464.948
508.288
485.733
430.595
418.792
430.459
419.051
395.987
374.901
395.386
372.514
461.023
451.902
460.482
450.013
430.442
418.688
431.311
419.738
395.791
371.822
397.019
373.52
461.073
451.825
462.029
452.918
489.326
480.48
514.016
505.819
487.757
477.223
512.18
501.28
489.458
480.542
514.646
507.094
489.952
481.195
514.829
506.842
465.527
443.325
431.085
468.8
445.672
433.234
461.002
438.467
426.239
466.298
442.364
429.558
452.191
429.21
416.698
462.237
437.024
423.651
364.579
350.608
343.344
399.413
380.341
370.013
424.523
402.409
390.065
442.798
419.505
406.886
457.505
430.894
416.662
361.075
346.627
338.736
396.045
378.289
368.756
420.212
399.322
387.972
438.465
414.273
401.182
452.084
425.273
411.177
404.438
390.593
408.433
394.952
434.767
417.793
443.749
424.342
375.372
354.76
376.613
356.67
376.329
355.309
378.082
357.759
376.104
372.974
375.522
369.116
354.321
358.329
397.693
400.478
428.889
432.824
377.527
379.669
377.929
379.446
360.508
361.818
333.036
313.937
338.369
316.949
334.584
313.695
339.792
317.085
335.691
313.252
342.072
317.655
344.891
319.557
346.674
321.006
368.577
356.563
375.847
361.528
395.593
381.865
404.13
387.161
354.768
341.496
347.573
337.031
379.867
364.439
382.166
365.932
409.151
390.297
411.949
391.801
358.324
344.145
360.184
345.566
337.1
315.15
325.937
310.221
330.944
311.54
322.41
307.858
340.532
317.545
328.185
311.793
342.416
319.152
329.536
312.772
316.112
306.063
307.792
301.56
317.315
307.682
307.583
301.753
318.855
311.105
307.255
302.581
348.296
371.788
331.687
320.704
306.605
369.737
344.839
325.967
314.642
303.062
369.999
346.717
329.728
317.544
305.076
298.548
291.953
295.509
289.377
300.797
294.023
296.401
290.387
304.708
298.097
297.926
292.113
362.629
349.608
337.997
327.059
321.037
313.218
309.976
303.14
299.885
294.362
362.391
348.963
340.218
329.369
324.176
315.599
312.532
305.043
302.307
296.728
343.336
330.024
344.589
329.704
364.046
347.142
365.296
345.46
328.424
317.184
327.171
316.877
345.66
329.524
347.01
330.905
366.857
344.204
368.39
345.721
329.377
317.504
330.486
318.586
315.018
306.588
304.611
297.466
314.636
305.871
303.925
297.214
315.303
307.316
304.993
297.585
316.663
307.997
305.557
298.577
284.302
280.078
278.409
279.393
276.554
275.591
286.665
282.057
280.111
280.351
277.347
276.231
290.52
285.421
283.322
281.865
278.517
277.293
335.182
324.853
319.804
316.52
308.945
305.469
304.284
298.143
295.554
294.765
289.233
286.888
283.37
279.823
278.375
333.661
322.717
317.299
317.494
308.749
304.417
305.609
298.532
295.171
295.378
289.946
287.697
284.398
280.836
279.05
298.615
289.293
283.884
280.175
299.86
289.761
284.108
280.229
298.498
289.298
283.943
280.255
300.022
289.896
284.265
280.354
298.243
289.274
284.041
280.384
300.221
290.082
284.467
280.511
301.142
290.58
284.636
280.564
302.011
291.102
284.821
280.624
299.347
289.852
284.388
280.582
297.575
289.254
284.009
280.598
297.741
289.164
284.063
280.518
296.506
288.764
283.777
280.564
300.523
290.421
284.597
280.616
298.439
289.696
284.196
280.653
301.408
290.906
284.813
280.713
299.133
290.093
284.409
280.777
296.552
288.559
283.563
280.137
294.181
287.728
283.147
280.123
296.415
288.539
283.585
280.196
294.208
287.76
283.166
280.174
296.188
288.501
283.616
280.297
294.453
287.887
283.241
280.267
295.84
288.428
283.616
280.425
294.599
287.979
283.319
280.394
295.436
288.33
283.541
280.526
292.088
287.049
282.648
280.246
290.928
286.726
282.422
280.266
292.413
287.177
282.722
280.296
291.298
286.866
282.494
280.311
292.957
287.397
282.838
280.378
291.928
287.112
282.61
280.39
293.639
287.669
283.02
280.503
292.742
287.431
282.781
280.498
294.536
288.028
283.237
280.631
293.578
287.772
282.953
280.606
295.789
288.699
283.501
280.803
294.75
288.446
283.276
280.82
295.223
288.36
283.37
280.722
294.266
288.124
283.12
280.716
296.274
289.033
283.617
280.872
295.195
288.773
283.409
280.913
296.81
289.389
283.796
280.985
295.731
289.122
283.587
281.034
277.383
275.739
274.697
274.093
273.819
277.394
275.744
274.699
274.094
273.82
277.412
275.752
274.703
274.096
273.821
277.429
275.761
274.707
274.098
273.822
277.442
275.767
274.71
274.1
273.823
277.481
275.786
274.72
274.105
273.826
277.557
275.825
274.739
274.115
273.833
277.628
275.863
274.759
274.126
273.84
277.516
275.802
274.727
274.109
273.829
277.524
275.803
274.727
274.109
273.829
277.475
275.782
274.717
274.103
273.826
277.5
275.791
274.721
274.106
273.827
277.561
275.825
274.739
274.115
273.833
277.567
275.826
274.739
274.115
273.833
277.636
275.867
274.76
274.126
273.84
277.64
275.866
274.76
274.126
273.84
277.37
275.735
274.695
274.092
273.818
277.363
275.732
274.693
274.092
273.818
277.392
275.744
274.699
274.094
273.82
277.383
275.74
274.697
274.093
273.819
277.422
275.757
274.705
274.097
273.821
277.413
275.752
274.702
274.096
273.821
277.456
275.771
274.711
274.1
273.824
277.444
275.765
274.708
274.099
273.822
277.479
275.782
274.716
274.103
273.825
529.399
523.57
528.836
523.014
527.762
522.007
526.547
520.644
525.847
519.637
528.251
524.92
527.026
522.715
528.957
525.861
529.482
526.379
563.739
570.946
572.532
572.895
572.973
556.038
568.862
572.056
572.793
572.949
563.931
571.023
572.553
572.9
572.975
556.09
568.93
572.079
572.799
572.951
564.034
571.091
572.574
572.906
572.976
556.059
568.991
572.102
572.806
572.953
564.205
571.171
572.595
572.91
572.977
556.005
569.034
572.117
572.809
572.953
564.398
571.22
572.603
572.911
572.977
556.026
569.039
572.113
572.807
572.952
563.327
570.779
572.473
572.877
572.967
555.918
568.692
571.977
572.766
572.94
563.724
570.97
572.534
572.894
572.972
555.886
568.848
572.045
572.787
572.946
563.077
570.657
572.432
572.865
572.963
555.968
568.612
571.937
572.753
572.935
563.271
570.692
572.436
572.865
572.963
556.168
568.641
571.935
572.75
572.934
411.708
452.182
449.176
409.5
390.463
392.375
397.944
401.244
411.365
414.791
439.005
446.584
443.697
450.959
420.219
422.965
410.589
413.161
401.657
403.741
349.601
331.918
290.408
286.032
288.826
286.291
289.817
347.362
339.951
323.534
328.24
321.961
304.538
313.373
308.108
299.837
302.31
298.405
342.723
317.407
302.598
300.875
306.745
303.276
296.923
296.603
294.315
292.244
297.763
296.626
343.782
323.281
329.253
313.255
307.194
318.079
297.472
291.967
299.896
334.604
321.167
309.86
298.223
282.907
322.455
312.75
302.938
292.412
279.931
288.579
286.06
282.827
279.097
275.066
284.703
282.845
280.429
277.616
274.565
287.191
284.918
281.976
278.569
274.887
284.935
283.04
280.574
277.704
274.595
288.063
285.636
282.511
278.899
274.999
332.937
318.749
307.109
295.658
281.984
325.878
312.893
302.1
291.563
279.645
315.478
306.732
297.778
288.505
278.395
316.892
306.072
296.786
287.764
278.272
312.254
302.523
294.109
285.957
277.502
300.532
295.523
289.649
283.244
276.469
307.424
300.599
293.198
285.429
277.241
303.189
297.338
290.805
283.892
276.684
296.675
292.55
287.528
281.945
276.023
298.663
294.037
288.551
282.55
276.226
295.474
291.604
286.844
281.525
275.88
330.068
317.113
306.184
295.097
281.655
311.138
303.816
295.83
287.276
277.92
299.041
294.462
288.953
282.847
276.336
297.626
293.379
288.196
282.396
276.184
302.524
297.227
291.009
284.163
276.8
299.704
295.068
289.461
283.196
276.457
294.27
290.715
286.275
281.227
275.788
293.992
290.484
286.091
281.103
275.744
292.002
288.857
284.876
280.341
275.483
290.198
287.391
283.805
279.69
275.265
294.96
291.23
286.605
281.398
275.841
294.003
290.482
286.077
281.085
275.737
330.587
317.913
307.173
296.074
282.003
315.874
307.701
299.012
289.594
278.833
321.007
310.785
301.188
290.979
278.893
308.073
301.684
294.401
286.374
277.549
303.036
297.725
291.437
284.446
276.879
311.89
304.412
296.325
287.592
277.91
294.744
291.096
286.548
281.39
275.842
289.95
287.185
283.656
279.603
275.236
296.812
292.747
287.748
282.125
276.092
496.082
540.636
487.558
529.754
462.22
508.36
470.029
520.406
477.657
465.863
508.128
482.01
451.935
438.872
480.455
452.842
515.031
530.809
549.683
556.106
508.581
524.505
542.583
550.513
526.843
501.972
501.059
486.51
519.379
540.31
533.707
541.359
493.671
503.101
508.808
516.474
463.843
471.89
545.784
552.908
514.317
526.205
557.408
564.962
545.011
562.224
561.749
568.832
537.866
559.67
556.327
566.876
529.699
555.511
545.234
562.487
555.233
565.888
560.856
567.91
458.997
447.334
468.795
451.027
426.986
417.124
435.645
420.176
496.996
479.682
487.455
475.113
475.747
453.665
479.879
455.035
442.105
422.497
445.866
423.623
504.039
482.763
508.158
484.338
524.594
555.63
509.36
544.442
515.604
550.358
503.876
540.134
530.713
558.353
512.61
546.925
534.072
559.602
514.123
548.417
531.959
517.318
556.256
546.215
524.624
510.632
553.454
542.607
516.056
502.949
548.517
537.018
448.412
417.474
477.771
504.38
541.269
417.53
446.201
471.417
495.863
530.804
413.85
443.266
469.885
496.345
531.738
494.855
477.143
511.977
495.813
491.187
473.351
511.708
494.787
486.961
469.732
510.831
493.317
409.62
398.007
438.02
425.534
461.768
446.944
483.561
467.371
509.638
491.637
406.01
392.076
435.031
422.716
460.606
447.428
484.932
469.565
509.342
490.372
433.576
423.376
432.335
421.765
401.639
382.127
398.669
376.815
462.012
453.654
461.815
453.002
431.427
420.073
431.614
420.15
397.382
373.839
397.497
374.117
461.644
452.757
462.21
453.2
489.915
481.637
514.527
506.692
488.476
479.388
512.962
503.062
489.828
481.157
514.937
507.529
490.079
481.395
514.916
506.968
463.834
456.823
481.158
474.306
459.747
452.04
479.532
471.177
455.91
447.731
476.794
466.124
386.17
379.564
413.872
405.722
434.827
425.554
453.397
443.604
472.868
459.814
376.512
370.966
411.006
403.761
434.392
425.321
452.873
441.335
467.312
454.162
393.813
385.789
403.09
392.908
421.774
410.119
438.858
420.944
374.338
355.738
379.121
359.377
372.59
355.814
377.99
359.691
375.281
369.537
375.436
368.232
355.56
359.824
396.775
400.222
427.228
432.324
377.287
379.639
377.971
379.477
361.469
362.181
341.861
323.207
343.956
324.002
342.644
322.351
344.52
323.243
342.962
320.968
345.743
322.526
346.972
322.512
347.366
322.012
372.543
363.57
377.329
365.166
396.964
387.055
404.188
389.654
357.771
345.842
354.007
344.811
380.514
366.255
382.352
366.515
409.06
391.488
411.915
392.179
359.763
346.399
360.609
346.299
341.325
319.471
330.399
314.158
338.919
318.31
329.909
313.909
342.662
319.977
330.592
314.024
343.055
319.928
330.334
313.508
338.251
335.214
321.197
318.208
338.748
335.755
320.152
317.211
338.373
335.543
318.566
315.825
366.526
388.982
348.918
335.607
316.307
389.775
367.095
348.318
333.991
314.596
384.878
362.289
343.883
329.481
313.425
331.772
326.626
313.676
305.883
332.532
327.723
313.089
305.705
332.337
327.402
312.143
305.257
382.65
372.625
361.477
353.587
344.661
339.139
330.621
324.992
311.809
305.596
377.209
364.457
356.467
346.261
339.297
331.134
325.255
317.751
311.172
305.551
352.415
339.263
349.613
334.852
372.267
356.161
369.843
350.607
333.422
321.942
335.974
325.358
348.094
331.927
347.745
331.616
369.004
346.584
369.029
346.421
331.863
319.758
331.252
319.264
319.459
310.571
308.354
300.569
322.365
312.871
309.925
302.424
317.618
309.298
307.016
299.165
317.435
308.628
306.16
299.041
321.348
319.147
291.834
289.836
323.813
321.097
292.37
290.224
322.428
318.514
292.744
290.132
363.02
357.381
346.167
341.846
332.701
328.904
318.237
314.079
292.933
289.752
351.738
347.437
335.994
332.195
322.079
318.708
308.288
305.783
291.447
288.94
304.602
292.713
285.868
281.296
305.016
292.849
285.956
281.291
304.113
292.525
285.818
281.311
304.569
292.649
285.93
281.315
303.271
292.189
285.759
281.365
303.883
292.331
285.845
281.303
303.479
292.055
285.531
281.058
302.834
291.63
285.147
280.81
302.378
291.71
285.537
281.265
300.308
290.941
285.059
281.271
302.024
291.676
285.567
281.399
300.43
291.091
285.15
281.393
302.353
291.579
285.338
281.082
300.058
290.725
284.861
281.104
302.026
291.304
285.067
280.87
299.671
290.441
284.636
280.933
303.755
292.423
285.72
281.346
302.487
292.008
285.43
281.421
303.274
292.253
285.663
281.363
302.1
291.883
285.371
281.433
302.495
291.967
285.569
281.406
301.498
291.668
285.292
281.46
301.359
291.521
285.381
281.455
300.89
291.427
285.204
281.502
300.38
291.15
285.138
281.471
301.026
291.614
284.969
281.684
300.004
291.408
284.78
281.785
300.824
291.54
284.965
281.691
299.83
291.335
284.769
281.783
300.445
291.389
284.926
281.685
299.518
291.194
284.722
281.77
300.103
291.204
284.915
281.696
299.25
291.016
284.686
281.758
299.701
290.962
284.878
281.693
298.885
290.79
284.616
281.729
298.497
290.402
284.519
281.499
297.416
290.16
284.287
281.527
299.163
290.714
284.73
281.623
298.192
290.502
284.478
281.652
297.85
290.065
284.248
281.317
296.722
289.802
284.029
281.354
297.32
289.731
284.008
281.136
296.218
289.459
283.793
281.181
277.94
276.024
274.841
274.169
273.868
277.931
276.021
274.839
274.169
273.867
277.928
276.015
274.836
274.166
273.866
277.909
276.007
274.832
274.164
273.865
277.91
276.004
274.83
274.163
273.864
277.867
275.985
274.82
274.158
273.861
277.799
275.95
274.803
274.149
273.855
277.723
275.912
274.784
274.139
273.848
277.851
275.974
274.814
274.155
273.858
277.858
275.974
274.814
274.155
273.858
277.889
275.992
274.823
274.16
273.861
277.883
275.985
274.819
274.157
273.86
277.803
275.951
274.803
274.149
273.855
277.809
275.952
274.803
274.149
273.855
277.718
275.91
274.782
274.138
273.848
277.725
275.911
274.783
274.138
273.848
277.95
276.029
274.843
274.17
273.868
277.96
276.031
274.844
274.171
273.869
277.944
276.022
274.839
274.168
273.867
277.956
276.026
274.841
274.169
273.867
277.933
276.013
274.834
274.165
273.865
277.947
276.018
274.836
274.166
273.866
277.917
276.002
274.828
274.162
273.863
277.929
276.006
274.83
274.163
273.863
277.899
275.993
274.823
274.159
273.861
526.764
522.126
526.922
522.263
526.982
522.318
526.768
521.869
526.701
521.381
528.762
525.556
527.79
523.842
529.241
526.187
529.571
526.477
563.447
570.913
572.528
572.895
572.973
555.668
568.805
572.048
572.792
572.949
563.736
571.003
572.551
572.9
572.975
555.883
568.9
572.075
572.799
572.951
563.986
571.091
572.575
572.906
572.976
556.1
569
572.105
572.807
572.953
564.288
571.189
572.599
572.911
572.977
556.269
569.081
572.126
572.811
572.954
564.555
571.248
572.609
572.912
572.978
556.404
569.107
572.125
572.809
572.953
563.447
570.806
572.479
572.878
572.967
556.145
568.745
571.989
572.769
572.94
563.884
571.003
572.54
572.895
572.972
556.219
568.918
572.059
572.79
572.947
563.149
570.674
572.436
572.866
572.964
556.094
568.645
571.945
572.754
572.935
563.294
570.697
572.437
572.865
572.963
556.207
568.651
571.937
572.75
572.934
411.131
451.423
446.65
407.278
399.024
406.039
396.882
405.451
427.648
445.607
431.752
448.78
275.427
275.804
276.641
278.012
279.986
282.637
275.735
276.12
276.966
278.328
280.273
282.887
275.179
275.057
275.553
275.425
276.398
276.264
277.83
277.733
279.914
279.954
282.763
283.08
286.006
290.486
296.713
305.604
313.361
319.075
286.28
290.626
296.052
302.258
307.744
311.27
275.194
274.86
274.413
273.883
273.3
275.534
275.147
274.631
274.018
273.346
276.289
275.785
275.114
274.319
273.448
277.523
276.826
275.901
274.809
273.614
279.296
278.319
277.028
275.509
273.852
281.672
280.313
278.529
276.44
274.167
275.472
275.095
274.591
273.994
273.338
275.818
275.387
274.813
274.132
273.385
276.581
276.03
275.299
274.434
273.487
277.806
277.063
276.079
274.919
273.652
279.552
278.532
277.187
275.607
273.885
281.892
280.494
278.664
276.523
274.195
274.971
274.671
274.27
273.794
273.27
274.86
274.578
274.2
273.749
273.255
275.308
274.956
274.487
273.928
273.316
275.192
274.858
274.412
273.882
273.3
276.069
275.6
274.974
274.232
273.419
275.949
275.498
274.897
274.184
273.402
277.359
276.689
275.798
274.745
273.593
277.272
276.615
275.743
274.711
273.581
279.233
278.266
276.989
275.485
273.844
279.269
278.297
277.013
275.5
273.849
281.787
280.411
278.603
276.486
274.183
282.072
280.65
278.783
276.598
274.22
284.678
282.824
280.413
277.607
274.562
288.647
286.118
282.874
279.129
275.078
294.101
290.597
286.205
281.195
275.78
301.742
296.778
290.797
284.074
276.769
308.216
301.944
294.668
286.579
277.666
312.879
305.629
297.457
288.434
278.342
284.917
283.02
280.559
277.697
274.593
288.77
286.22
282.951
279.179
275.095
293.542
290.155
285.885
280.998
275.714
298.942
294.572
289.174
283.049
276.415
303.657
298.403
292.033
284.851
277.04
306.661
300.835
293.857
286.015
277.447
275.473
275.952
276.914
278.45
280.639
283.561
275.785
276.277
277.25
278.767
280.9
283.727
275.223
275.099
275.693
275.56
276.662
276.521
278.272
278.174
280.607
280.667
283.821
284.274
287.222
291.972
298.37
307.127
314.44
319.467
287.331
291.841
297.32
303.387
308.529
311.552
275.236
274.896
274.441
273.9
273.306
275.668
275.261
274.718
274.073
273.365
276.536
275.996
275.275
274.42
273.483
277.92
277.165
276.16
274.971
273.67
279.89
278.826
277.416
275.753
273.935
282.513
281.032
279.08
276.787
274.286
275.517
275.134
274.621
274.012
273.344
275.961
275.509
274.906
274.19
273.404
276.838
276.25
275.467
274.54
273.523
278.205
277.403
276.34
275.083
273.708
280.122
279.018
277.56
275.842
273.965
282.657
281.148
279.165
276.839
274.303
275.01
274.705
274.296
273.81
273.275
274.898
274.61
274.224
273.765
273.26
275.435
275.064
274.569
273.98
273.333
275.314
274.962
274.492
273.932
273.317
276.309
275.804
275.13
274.33
273.452
276.182
275.697
275.049
274.279
273.435
277.761
277.031
276.059
274.909
273.649
277.673
276.957
276.003
274.874
273.637
279.862
278.804
277.4
275.744
273.932
279.918
278.851
277.437
275.766
273.94
282.75
281.234
279.235
276.884
274.319
283.159
281.58
279.497
277.047
274.374
285.787
283.774
281.144
278.068
274.72
290.008
287.289
283.779
279.702
275.275
295.628
291.921
287.237
281.853
276.006
303.162
298.026
291.783
284.712
276.99
309.235
302.851
295.395
287.058
277.835
313.253
305.965
297.73
288.616
278.407
285.876
283.842
281.191
278.096
274.73
289.882
287.177
283.69
279.646
275.256
294.707
291.163
286.668
281.496
275.885
299.985
295.481
289.886
283.505
276.572
304.387
299.044
292.538
285.178
277.153
306.924
301.067
294.041
286.135
277.488
350.257
332.484
292.33
287.491
291.352
288.17
292.154
355.545
352.741
331.923
343.269
311.09
321.857
305.678
309.733
303.961
347.842
322.857
307.766
305.137
311.441
306.779
299.309
299.851
298.844
295.897
302.486
300.558
345.875
324.896
332.869
315.615
310.137
322.182
300.38
294.886
303.574
335.297
321.821
310.438
298.665
283.088
323.014
313.264
303.37
292.716
280.042
290.339
287.575
283.998
279.839
275.321
286.032
283.985
281.305
278.169
274.754
289.497
286.897
283.5
279.532
275.217
286.648
284.507
281.701
278.415
274.838
290.2
287.474
283.929
279.797
275.306
341.682
327.058
314.281
300.864
284.097
339.54
325.455
312.737
299.16
282.64
323.774
314.333
304.053
292.777
279.958
332.716
320.142
308.372
295.8
281.377
306.735
301.031
294.038
286.106
277.473
315.711
308.1
299.292
289.495
278.701
302.12
297.326
291.289
284.37
276.865
305.613
300.155
293.387
285.684
277.32
300.643
296.131
290.403
283.815
276.673
335.383
322.15
310.531
298.245
282.931
316.395
308.572
299.705
289.866
278.846
303.883
298.73
292.331
285.034
277.098
301.596
296.861
290.939
284.164
276.797
306.949
301.152
294.139
286.206
277.515
302.972
297.941
291.731
284.662
276.966
296.473
292.631
287.771
282.183
276.117
296.99
293.089
288.124
282.402
276.191
296.156
292.441
287.655
282.108
276.091
293.538
290.264
286.024
281.097
275.747
299.337
295.05
289.596
283.316
276.503
297.635
293.64
288.543
282.662
276.28
332.772
319.943
308.927
297.368
282.537
317.44
309.121
300.179
290.387
279.121
324.595
314.063
303.917
292.85
279.529
310.308
303.678
296.002
287.427
277.915
305.796
300.164
293.374
285.706
277.316
315.839
307.972
299.22
289.522
278.587
297.432
293.435
288.376
282.56
276.245
292.624
289.491
285.44
280.734
275.625
300.228
295.734
290.095
283.634
276.614
277.82
287.108
295.638
303.189
309.402
314.187
474.72
469.045
444.145
449.765
460.539
453.435
436.035
426.718
496.053
515.115
491.65
509.982
485.76
475.841
504.564
463.25
459.164
435.341
439.607
452.179
447.017
428.636
421.481
483.783
498.696
480.992
495.211
476.239
468.14
491.134
447.191
444.745
422.815
425.667
439.872
437.07
417.864
412.743
465.564
480.324
463.912
478.259
461.08
455.684
475.648
430.953
429.389
409.527
411.641
425.9
424.258
405.563
401.259
448.268
462.941
447.224
461.305
445.042
440.623
459.16
419.222
417.91
399.788
401.683
414.585
412.737
395.991
391.184
435.165
448.489
434.454
447.859
432.615
428.437
446.152
411.116
409.864
393.186
395
406.597
404.659
389.512
384.829
425.406
438.911
424.731
438.714
423.209
419.28
436.977
391.881
388.973
416
419.909
385.156
377.959
410.18
400.925
368.37
348.928
366.066
348.479
361.114
359.905
347.682
387.326
384.5
409.677
413.02
380.835
374.053
404.438
396.222
363.184
346.742
360.799
346.568
356.431
355.649
345.711
380.588
378.024
400.252
402.891
374.664
368.803
395.917
389.256
360.801
345.274
358.689
344.538
354.689
353.827
343.139
373.033
370.526
389.744
392.005
366.742
360.621
385.77
379.141
356.509
342.705
354.241
341.193
350.053
348.403
338.851
367.497
365.028
382.045
384.177
361.384
355.331
378.174
371.6
353.12
341.31
350.601
338.694
346.111
343.671
335.235
364.033
361.572
376.939
379.016
358.013
351.994
373.158
366.828
351.783
339.882
349.071
336.52
343.836
340.842
332.544
538.257
555.928
523.797
545.179
505.524
530.133
477.541
504.141
481.391
508.223
507.376
533.903
519.382
543.658
531.578
552.334
495.803
478.13
514.453
487.412
468.477
449.633
485.831
457.472
546.209
552.985
560.188
563.58
535.1
544.139
551.819
557.237
533.93
519.903
506.436
498.396
534.599
546.347
535.855
541.834
496.114
503.725
510.899
517.028
465.996
472.498
547.95
553.338
516.58
526.754
559.032
565.217
557.69
566.535
566.231
570.347
549.642
563.46
560.62
568.272
539.118
558.452
549.512
563.885
556.808
566.452
561.172
568.034
462.946
447.147
471.347
451.111
428.565
414.671
437.008
419.118
499.952
480.318
492.371
476.103
477.019
453.731
480.228
455.05
442.85
422.014
446.079
423.468
505.463
483.09
508.549
484.436
527.185
556.54
510.004
544.637
520.191
551.943
504.992
540.422
531.926
558.793
512.93
547.027
534.4
559.725
514.218
548.448
551.965
539.554
562.864
553.682
542.947
530.507
558.989
548.661
530.404
517.487
552.552
540.902
445.839
406.587
481.577
510.374
543.276
405.106
443.372
476.27
503.162
532.882
404.418
440.36
470.798
498.084
532.015
514.997
492.188
519.29
497.479
509.203
486.557
517.146
495.001
500.124
478.343
513.545
491.392
397.492
383.167
435.026
419.951
465.314
447.047
488.699
468.346
510.214
488.153
396.33
380.729
430.771
415.134
459.572
442.127
484.691
464.946
508.287
485.733
430.594
418.791
430.458
419.05
395.986
374.9
395.385
372.514
461.022
451.901
460.48
450.012
430.441
418.687
431.31
419.737
395.79
371.821
397.018
373.519
461.072
451.824
462.028
452.917
489.325
480.479
514.015
505.818
487.755
477.221
512.179
501.28
489.457
480.541
514.645
507.093
489.951
481.194
514.828
506.841
465.694
443.507
431.285
468.908
445.807
433.39
460.99
438.458
426.234
466.302
442.368
429.564
452.185
429.207
416.696
462.239
437.025
423.653
364.579
350.607
343.343
399.411
380.34
370.012
424.521
402.408
390.064
442.796
419.503
406.885
457.505
430.894
416.662
361.074
346.626
338.736
396.044
378.288
368.755
420.211
399.321
387.971
438.463
414.272
401.182
452.083
425.273
411.177
404.446
390.596
408.441
394.954
434.773
417.796
443.754
424.344
375.239
354.702
376.449
356.591
376.314
355.296
378.066
357.748
376.101
372.971
375.522
369.116
354.316
358.325
397.694
400.479
428.89
432.825
377.527
379.67
377.929
379.447
360.507
361.819
332.983
313.929
338.305
316.935
334.582
313.687
339.79
317.079
335.689
313.248
342.07
317.652
344.89
319.556
346.675
321.006
368.578
356.564
375.848
361.528
395.594
381.866
404.13
387.161
354.768
341.496
347.573
337.031
379.868
364.439
382.167
365.932
409.152
390.297
411.95
391.801
358.325
344.145
360.185
345.567
337.099
315.149
325.937
310.22
330.943
311.539
322.41
307.857
340.531
317.544
328.185
311.793
342.416
319.152
329.537
312.772
316.069
306.001
307.783
301.535
317.316
307.685
307.575
301.749
318.855
311.106
307.252
302.58
348.296
371.787
331.687
320.705
306.604
369.737
344.839
325.967
314.643
303.062
369.998
346.717
329.728
317.544
305.075
298.473
291.875
295.484
289.349
300.806
294.032
296.405
290.394
304.711
298.102
297.928
292.117
362.629
349.607
337.997
327.06
321.038
313.219
309.978
303.142
299.885
294.364
362.391
348.963
340.218
329.369
324.176
315.6
312.533
305.044
302.308
296.729
343.337
330.024
344.589
329.704
364.045
347.141
365.296
345.46
328.424
317.184
327.171
316.877
345.66
329.524
347.01
330.905
366.857
344.204
368.39
345.721
329.377
317.504
330.486
318.586
315.018
306.588
304.611
297.466
314.637
305.871
303.925
297.215
315.303
307.316
304.993
297.585
316.663
307.997
305.557
298.577
284.234
280.019
278.354
279.386
276.543
275.58
286.679
282.069
280.12
280.361
277.355
276.237
290.526
285.427
283.327
281.869
278.521
277.296
335.181
324.854
319.804
316.52
308.946
305.47
304.286
298.145
295.555
294.768
289.236
286.89
283.372
279.825
278.377
333.661
322.717
317.299
317.495
308.75
304.418
305.61
298.533
295.172
295.379
289.948
287.698
284.399
280.837
279.051
298.617
289.291
283.88
280.171
299.854
289.755
284.1
280.223
298.495
289.297
283.942
280.254
300.021
289.895
284.264
280.354
298.242
289.274
284.04
280.384
300.22
290.082
284.467
280.511
301.141
290.58
284.636
280.564
302.011
291.102
284.821
280.624
299.346
289.852
284.388
280.582
297.574
289.254
284.009
280.598
297.74
289.164
284.063
280.518
296.506
288.764
283.776
280.564
300.523
290.421
284.597
280.616
298.439
289.696
284.196
280.653
301.408
290.906
284.813
280.713
299.133
290.093
284.408
280.777
296.555
288.559
283.561
280.134
294.176
287.726
283.145
280.12
296.412
288.538
283.584
280.196
294.206
287.76
283.166
280.173
296.187
288.5
283.616
280.297
294.452
287.887
283.241
280.267
295.839
288.428
283.615
280.425
294.599
287.979
283.319
280.394
295.436
288.329
283.54
280.526
292.084
287.047
282.647
280.244
290.919
286.722
282.42
280.264
292.415
287.177
282.722
280.296
291.3
286.866
282.494
280.311
292.957
287.397
282.838
280.377
291.93
287.112
282.61
280.39
293.639
287.669
283.019
280.502
292.743
287.431
282.781
280.498
294.536
288.028
283.237
280.631
293.578
287.772
282.953
280.606
295.789
288.699
283.501
280.803
294.75
288.446
283.276
280.819
295.223
288.359
283.37
280.722
294.266
288.124
283.12
280.716
296.274
289.033
283.617
280.872
295.195
288.773
283.409
280.913
296.811
289.389
283.796
280.985
295.731
289.122
283.587
281.034
277.381
275.739
274.696
274.093
273.819
277.392
275.743
274.698
274.094
273.82
277.412
275.752
274.703
274.096
273.821
277.429
275.761
274.707
274.098
273.822
277.442
275.767
274.71
274.1
273.823
277.481
275.787
274.72
274.105
273.827
277.557
275.825
274.739
274.115
273.833
277.628
275.863
274.759
274.126
273.84
277.516
275.802
274.727
274.109
273.829
277.524
275.803
274.727
274.109
273.829
277.475
275.782
274.717
274.104
273.826
277.5
275.791
274.721
274.106
273.827
277.561
275.825
274.739
274.115
273.833
277.567
275.826
274.739
274.115
273.833
277.636
275.867
274.76
274.127
273.84
277.64
275.866
274.76
274.126
273.84
277.368
275.734
274.694
274.092
273.818
277.362
275.731
274.693
274.091
273.818
277.392
275.744
274.699
274.094
273.82
277.383
275.74
274.697
274.093
273.819
277.422
275.757
274.705
274.097
273.822
277.413
275.752
274.702
274.096
273.821
277.456
275.771
274.711
274.1
273.824
277.444
275.765
274.708
274.099
273.822
277.479
275.782
274.716
274.103
273.825
529.457
523.634
528.856
523.033
527.772
522.015
526.551
520.648
525.848
519.638
528.251
524.92
527.026
522.715
528.957
525.86
529.482
526.379
563.781
570.956
572.534
572.895
572.973
556.067
568.87
572.058
572.793
572.949
563.947
571.028
572.554
572.901
572.975
556.108
568.937
572.081
572.8
572.951
564.04
571.093
572.574
572.906
572.976
556.068
568.995
572.103
572.806
572.953