/*--------------------------------*- C++ -*----------------------------------*\
| =========                 |                                                 |
| \\      /  F ield         | OpenFOAM: The Open Source CFD Toolbox           |
|  \\    /   O peration     | Version:  2412                                  |
|   \\  /    A nd           | Website:  www.openfoam.com                      |
|    \\/     M anipulation  |                                                 |
\*---------------------------------------------------------------------------*/
FoamFile
{
    version     2.0;
    format      ascii;
    arch        "LSB;label=32;scalar=64";
    class       volScalarField;
    location    "100/leftSolid";
    object      T;
}
// * * * * * * * * * * * * * * * * * * * * * * * * * * * * * * * * * * * * * //

dimensions      [0 0 0 1 0 0 0];

internalField   nonuniform List<scalar> 
130
(
300.01531
300.01637
300.01853
300.02181
300.02627
300.03192
300.03876
300.04669
300.05547
300.06468
300.07363
300.08135
300.08666
300.01561
300.01674
300.01903
300.02253
300.02734
300.03354
300.04119
300.05029
300.06073
300.07217
300.08392
300.09475
300.10271
300.01611
300.01734
300.01984
300.02373
300.02914
300.03628
300.04536
300.05662
300.07024
300.08624
300.10426
300.1231
300.13954
300.01661
300.01794
300.02067
300.02496
300.03102
300.03918
300.04989
300.06371
300.08135
300.10369
300.13164
300.1657
300.20305
300.01692
300.01832
300.0212
300.02573
300.03222
300.04107
300.0529
300.06858
300.08939
300.11725
300.15528
300.2086
300.28233
300.01692
300.01832
300.0212
300.02573
300.03222
300.04107
300.0529
300.06858
300.08939
300.11725
300.15528
300.2086
300.28233
300.01661
300.01794
300.02067
300.02496
300.03102
300.03918
300.04989
300.06371
300.08135
300.10369
300.13164
300.1657
300.20305
300.01611
300.01734
300.01984
300.02373
300.02914
300.03628
300.04536
300.05662
300.07024
300.08624
300.10426
300.1231
300.13954
300.01561
300.01674
300.01903
300.02253
300.02734
300.03354
300.04119
300.05029
300.06073
300.07217
300.08392
300.09475
300.10271
300.01531
300.01637
300.01853
300.02181
300.02627
300.03192
300.03876
300.04669
300.05547
300.06468
300.07363
300.08135
300.08666
)
;

boundaryField
{
    minX
    {
        type            zeroGradient;
    }
    minZ
    {
        type            zeroGradient;
    }
    maxZ
    {
        type            zeroGradient;
    }
    leftSolid_to_bottomWater
    {
        type            compressible::turbulentTemperatureRadCoupledMixed;
        refValue        nonuniform List<scalar> 
130
(
300.00035
300.00066
300.00098
300.00132
300.00173
300.00225
300.00289
300.00368
300.00461
300.00565
300.00683
300.00957
300.05235
300.00036
300.00067
300.00098
300.00131
300.00171
300.00221
300.00284
300.00364
300.00463
300.00583
300.00754
300.01617
300.12262
300.00037
300.0007
300.00102
300.00138
300.00182
300.00238
300.00312
300.00409
300.00535
300.00704
300.0108
300.0553
300.72368
300.00038
300.00073
300.00107
300.00147
300.00196
300.00261
300.00348
300.00467
300.00629
300.00868
300.01756
300.18352
303.25636
300.00039
300.00075
300.00111
300.00152
300.00205
300.00276
300.00374
300.00511
300.00707
300.01026
300.02837
300.45952
310.84956
300.00039
300.00075
300.00111
300.00152
300.00205
300.00276
300.00374
300.00511
300.00707
300.01026
300.02837
300.45952
310.84956
300.00038
300.00073
300.00107
300.00147
300.00196
300.00261
300.00348
300.00467
300.00629
300.00868
300.01756
300.18352
303.25634
300.00037
300.0007
300.00102
300.00138
300.00182
300.00238
300.00312
300.00409
300.00536
300.00704
300.01081
300.0553
300.72366
300.00036
300.00067
300.00098
300.00131
300.00171
300.00221
300.00284
300.00364
300.00463
300.00583
300.00754
300.01617
300.12261
300.00035
300.00066
300.00098
300.00132
300.00173
300.00225
300.00289
300.00368
300.00461
300.00565
300.00683
300.00957
300.05234
)
;
        refGradient     uniform 0;
        valueFraction   uniform 0.0075140686;
        source          uniform 0;
        logInterval     -1;
        writePrecision  8;
        updateHeader    1;
        writeToFile     0;
        useUserTime     1;
        kappaMethod     solidThermo;
        value           nonuniform List<scalar> 
130
(
300.01518
300.01624
300.01838
300.02164
300.02606
300.03168
300.03846
300.04634
300.05506
300.06421
300.0731
300.08078
300.08637
300.01548
300.0166
300.01888
300.02236
300.02713
300.03328
300.04088
300.04991
300.06028
300.07164
300.08331
300.09412
300.10282
300.01597
300.0172
300.01969
300.02354
300.02892
300.036
300.04502
300.0562
300.06972
300.08561
300.10352
300.12255
300.14389
300.01647
300.0178
300.02051
300.02476
300.03078
300.03889
300.04952
300.06323
300.08075
300.10294
300.13074
300.16579
300.22595
300.01678
300.01817
300.02103
300.02554
300.03197
300.04076
300.05251
300.06808
300.08873
300.11641
300.15428
300.21043
300.36168
300.01678
300.01817
300.02103
300.02554
300.03197
300.04076
300.05251
300.06808
300.08873
300.11641
300.15428
300.21043
300.36168
300.01647
300.0178
300.02051
300.02476
300.03078
300.03889
300.04952
300.06323
300.08075
300.10294
300.13074
300.16578
300.22595
300.01597
300.0172
300.01969
300.02354
300.02892
300.036
300.04502
300.0562
300.06972
300.08561
300.10352
300.12255
300.14389
300.01548
300.0166
300.01888
300.02236
300.02713
300.03328
300.04088
300.04991
300.06028
300.07164
300.08331
300.09412
300.10282
300.01518
300.01624
300.01838
300.02164
300.02606
300.03168
300.03846
300.04634
300.05506
300.06421
300.0731
300.08078
300.08637
)
;
    }
    leftSolid_to_heater
    {
        type            compressible::turbulentTemperatureRadCoupledMixed;
        refValue        nonuniform List<scalar> 10(333.80348 337.55802 345.46624 358.28415 376.8761 376.87611 358.28416 345.46624 337.55802 333.80345);
        refGradient     uniform 0;
        valueFraction   uniform 2.0832466e-05;
        source          uniform 0;
        logInterval     -1;
        thicknessLayers List<scalar> 1(0.001);
        kappaLayers     List<scalar> 1(0.0005);
        writePrecision  8;
        updateHeader    1;
        writeToFile     0;
        useUserTime     1;
        kappaMethod     solidThermo;
        value           nonuniform List<scalar> 10(300.08733 300.10345 300.14044 300.20421 300.28387 300.28387 300.20421 300.14044 300.10345 300.08733);
    }
    leftSolid_to_topAir
    {
        type            compressible::turbulentTemperatureRadCoupledMixed;
        refValue        nonuniform List<scalar> 
130
(
300.00064
300.00132
300.00207
300.00294
300.00398
300.00525
300.0068
300.00868
300.01092
300.01353
300.01657
300.02248
300.09743
300.00065
300.00134
300.00209
300.00295
300.00399
300.00524
300.00678
300.00865
300.0109
300.01356
300.01667
300.02197
300.08354
300.00067
300.00139
300.00217
300.00308
300.00419
300.00555
300.00725
300.00936
300.01198
300.01517
300.01907
300.0257
300.09775
300.0007
300.00143
300.00225
300.00322
300.0044
300.00589
300.00778
300.01019
300.01327
300.0172
300.02227
300.03129
300.1245
300.00071
300.00146
300.0023
300.0033
300.00454
300.0061
300.00812
300.01075
300.01418
300.01869
300.02482
300.03654
300.15937
300.00071
300.00146
300.0023
300.0033
300.00454
300.0061
300.00812
300.01075
300.01418
300.01869
300.02482
300.03654
300.15937
300.0007
300.00143
300.00225
300.00322
300.0044
300.00589
300.00778
300.01019
300.01327
300.0172
300.02227
300.03129
300.1245
300.00067
300.00139
300.00217
300.00308
300.00419
300.00555
300.00725
300.00936
300.01198
300.01517
300.01907
300.0257
300.09775
300.00065
300.00134
300.00209
300.00295
300.00399
300.00524
300.00678
300.00865
300.0109
300.01356
300.01667
300.02197
300.08354
300.00064
300.00132
300.00207
300.00294
300.00398
300.00525
300.0068
300.00868
300.01092
300.01353
300.01657
300.02248
300.09743
)
;
        refGradient     uniform 0;
        valueFraction   uniform 0.00032132529;
        source          uniform 0;
        logInterval     -1;
        writePrecision  8;
        updateHeader    1;
        writeToFile     0;
        useUserTime     1;
        kappaMethod     solidThermo;
        value           nonuniform List<scalar> 
130
(
300.01529
300.01636
300.01851
300.02179
300.02624
300.03189
300.03872
300.04665
300.05543
300.06464
300.07358
300.0813
300.08663
300.01559
300.01672
300.01901
300.02251
300.02732
300.03351
300.04115
300.05025
300.06069
300.07212
300.08386
300.09469
300.10267
300.01609
300.01732
300.01982
300.0237
300.02912
300.03625
300.04533
300.05658
300.07019
300.08618
300.10419
300.12302
300.13948
300.01659
300.01792
300.02065
300.02493
300.03099
300.03915
300.04985
300.06366
300.0813
300.10363
300.13157
300.16561
300.20298
300.0169
300.0183
300.02118
300.02571
300.03219
300.04104
300.05286
300.06854
300.08933
300.11718
300.15519
300.20849
300.28224
300.0169
300.0183
300.02118
300.02571
300.03219
300.04104
300.05286
300.06854
300.08933
300.11718
300.15519
300.20849
300.28224
300.01659
300.01792
300.02065
300.02493
300.03099
300.03915
300.04985
300.06366
300.0813
300.10363
300.13157
300.16561
300.20298
300.01609
300.01732
300.01982
300.0237
300.02912
300.03625
300.04533
300.05658
300.07019
300.08618
300.10419
300.12302
300.13948
300.01559
300.01672
300.01901
300.02251
300.02732
300.03351
300.04115
300.05025
300.06069
300.07212
300.08386
300.09469
300.10267
300.01529
300.01636
300.01851
300.02179
300.02624
300.03189
300.03872
300.04665
300.05543
300.06464
300.07358
300.0813
300.08663
)
;
    }
}


// ************************************************************************* //
