/*--------------------------------*- C++ -*----------------------------------*\
| =========                 |                                                 |
| \\      /  F ield         | OpenFOAM: The Open Source CFD Toolbox           |
|  \\    /   O peration     | Version:  2412                                  |
|   \\  /    A nd           | Website:  www.openfoam.com                      |
|    \\/     M anipulation  |                                                 |
\*---------------------------------------------------------------------------*/
FoamFile
{
    version     2.0;
    format      ascii;
    arch        "LSB;label=32;scalar=64";
    class       volVectorField;
    location    "1.1";
    object      flux;
}
// * * * * * * * * * * * * * * * * * * * * * * * * * * * * * * * * * * * * * //

dimensions      [0 1 -1 1 0 0 0];

internalField   nonuniform List<vector> 
5712
(
(-0.35564 0.565998 0.33265)
(-0.43591 0.311156 1.0075)
(-0.808003 0.980221 0.253491)
(-1.26941 0.644865 1.09883)
(-1.22836 0.945978 0.137985)
(-2.39506 0.808602 1.15715)
(-0.843555 1.37909 0.232002)
(-2.53529 1.72431 1.81441)
(-0.866555 2.10603 0.377556)
(-2.02882 2.68692 2.27375)
(-1.06633 1.12243 0.389509)
(-1.75914 0.991198 1.6248)
(-0.813108 0.689974 0.417513)
(-1.0824 0.477964 1.44931)
(-0.438084 0.458012 0.41262)
(-0.447112 0.261064 1.24986)
(-0.599434 0.922411 0.192167)
(-0.690607 0.80562 0.109308)
(-0.807328 0.841274 0.583297)
(-0.738182 0.817211 0.282903)
(-0.556504 1.05519 0.178592)
(-0.837671 0.991718 0.0839347)
(-0.823692 1.23334 0.621526)
(-0.824879 1.04156 0.25244)
(-0.238264 0.328505 0.257449)
(-0.177719 0.224117 0.195012)
(-0.322166 0.172119 0.757818)
(-0.234796 0.118893 0.566604)
(-0.544624 0.47351 0.172609)
(-0.366037 0.299447 0.140572)
(-0.997942 0.263996 0.761567)
(-0.707866 0.171558 0.589461)
(-0.829536 0.968588 0.390587)
(-0.85017 1.01146 0.143886)
(-0.858633 0.850991 0.30415)
(-0.892737 0.66535 0.115366)
(-0.212628 0.676331 0.14167)
(-0.18057 0.541348 0.369805)
(-1.90601 0.581451 1.79285)
(-2.35628 0.558195 0.544366)
(-1.02237 0.767976 0.54242)
(-1.35924 0.760785 0.243646)
(-2.43053 1.59609 2.15395)
(-2.99467 1.76521 0.669249)
(-1.12977 1.12236 0.496746)
(-1.39003 1.19575 0.224396)
(-1.44179 0.844843 1.20363)
(-1.88348 0.666206 0.399396)
(-1.1588 0.844836 0.615642)
(-1.59694 0.589893 0.27668)
(-0.672128 0.359752 0.993965)
(-0.845479 0.313688 0.314312)
(-0.142732 0.278538 0.270752)
(-0.0458655 0.446121 0.145642)
(-0.183344 0.139448 0.428937)
(-0.0643111 0.198804 0.176895)
(-0.320833 0.367892 0.248803)
(-0.132946 0.589479 0.152621)
(-0.544658 0.233987 0.448638)
(-0.201891 0.332241 0.173417)
(-0.369855 0.370096 0.324804)
(-0.122838 0.700588 0.205171)
(-0.360364 0.285667 0.286714)
(-0.102955 0.489051 0.124279)
(-0.699911 0.0870447 0.487674)
(-0.205534 0.325168 0.179104)
(-0.914241 0.0135976 0.190025)
(-0.289119 0.231468 0.0712663)
(-1.15024 0.760713 0.615327)
(-0.66649 0.920793 0.477618)
(-0.96693 0.817468 0.36294)
(-0.66882 0.922488 0.333992)
(-1.15472 0.95176 0.647608)
(-0.74652 0.958794 0.572616)
(-0.913483 0.990004 0.345823)
(-0.731003 0.949537 0.370536)
(-0.767152 0.746704 0.350662)
(-0.556036 0.906307 0.313254)
(-0.850792 0.732266 0.483177)
(-0.545342 0.887315 0.425816)
(-0.937465 0.827771 0.261755)
(-0.685585 0.922423 0.229736)
(-0.969215 0.816618 0.14418)
(-0.700874 0.920647 0.12493)
(-0.894425 1.00888 0.249154)
(-0.73985 0.9448 0.249462)
(-0.929833 1.01606 0.13372)
(-0.7522 0.942418 0.134492)
(-0.786553 0.706232 0.259241)
(-0.581618 0.911207 0.211412)
(-0.845919 0.645763 0.144749)
(-0.600649 0.90958 0.104678)
(-0.849979 0.808524 0.309369)
(-0.356153 0.89446 0.176277)
(-0.496173 1.01739 0.320699)
(-0.575211 1.47648 0.344774)
(-0.920348 0.850316 0.431653)
(-0.416097 1.05086 0.326492)
(-0.501192 1.01565 0.474142)
(-0.613153 1.64083 0.60335)
(-0.848417 0.76328 0.216985)
(-0.329041 0.784452 0.0951454)
(-0.513425 1.00912 0.199831)
(-0.560245 1.38848 0.202317)
(-0.876406 0.733567 0.117919)
(-0.330026 0.717359 0.0424524)
(-0.536686 1.00711 0.0879407)
(-0.562095 1.34687 0.0762553)
(-0.138515 0.23063 0.334734)
(-0.157753 0.29997 0.65421)
(-0.0493935 0.63495 0.23661)
(-0.102831 1.07125 0.735234)
(-0.397927 0.27175 0.362675)
(-0.470672 0.311634 0.657138)
(-0.168685 0.773779 0.280584)
(-0.332446 1.18252 0.775924)
(-0.648476 0.315957 0.462608)
(-0.7712 0.33152 0.640389)
(-0.308428 0.932525 0.38215)
(-0.561879 1.30163 0.777628)
(-0.740252 1.05887 0.46215)
(-0.381739 1.12066 0.50458)
(-0.791669 0.936269 0.398653)
(-0.990803 0.891065 0.408938)
(-0.5191 1.29185 0.473239)
(-0.266063 1.13541 0.333449)
(-0.428766 1.01578 0.407554)
(-0.548179 0.929131 0.585799)
(-1.0073 0.812351 0.701663)
(-0.693808 1.49225 1.00923)
(-0.455172 1.03889 0.45632)
(-0.611793 0.987179 0.406718)
(-0.698833 0.8608 0.413072)
(-0.701258 0.940873 0.522182)
(-0.892085 1.89497 0.798917)
(-0.150151 0.0781794 0.816509)
(-0.151796 0.103535 0.794109)
(-0.0957349 0.222818 0.953004)
(-0.101115 0.48143 0.969028)
(-0.443953 0.109289 0.789647)
(-0.410449 0.155539 0.792251)
(-0.299295 0.286837 0.949083)
(-0.299227 0.544565 0.952959)
(-0.663284 0.160492 0.715782)
(-0.585209 0.154717 0.745042)
(-0.446026 0.375155 0.899129)
(-0.439876 0.62572 0.915496)
(-0.396405 1.08614 0.418284)
(-0.438033 1.04518 0.446816)
(-0.624461 0.926012 0.450344)
(-0.663164 0.852874 0.480894)
(-0.748636 0.818665 0.55727)
(-0.70002 0.696133 0.574884)
(-0.918238 0.61384 0.669431)
(-0.828741 0.525099 0.667535)
(-0.678157 0.513242 0.860602)
(-0.671141 0.786831 0.883847)
(-0.551609 0.963696 0.377638)
(-0.571114 0.841456 0.42362)
(-0.716859 0.913976 0.453333)
(-0.617901 0.829037 0.509236)
(-0.693766 0.798368 0.528881)
(-0.545903 0.71232 0.600571)
(-0.642124 0.721721 0.627367)
(-0.482585 0.617269 0.715963)
(-0.749931 0.601299 0.834793)
(-0.576373 0.839355 0.936721)
(-0.589444 0.955581 0.44523)
(-0.276519 1.00745 0.305144)
(-0.469296 0.996275 0.356062)
(-0.433563 1.08544 0.348342)
(-0.646363 0.938229 0.475512)
(-0.720838 0.856241 0.520536)
(-0.661621 0.96067 0.38368)
(-0.837372 0.912238 0.488621)
(-0.402779 0.895033 0.341663)
(-0.375059 0.897467 0.336746)
(-0.542214 0.879345 0.440434)
(-0.199341 0.863861 0.319248)
(-0.460782 1.01629 0.156095)
(-0.700721 1.11361 0.248363)
(-0.48192 1.01218 0.0583438)
(-0.757094 1.10643 0.0887916)
(-0.675288 0.978433 0.23492)
(-1.03553 0.954232 0.357014)
(-0.702705 0.971246 0.0852758)
(-1.07024 0.950748 0.128499)
(-0.400318 0.886162 0.140197)
(-0.629904 0.889804 0.227515)
(-0.420376 0.899492 0.0491517)
(-0.691606 0.898361 0.0804552)
(-0.498723 0.793299 0.335714)
(-0.348061 0.777234 0.282881)
(-0.661099 0.556121 0.351336)
(-0.276844 0.667215 0.224738)
(-0.529356 0.802349 0.478653)
(-0.148068 0.765891 0.346808)
(-0.622032 0.578547 0.554617)
(-0.100762 0.702216 0.379852)
(-0.526167 0.768703 0.162665)
(-0.519138 0.763686 0.178436)
(-0.697037 0.546689 0.199946)
(-0.347075 0.662362 0.117179)
(-0.480737 0.774936 0.116317)
(-0.606407 0.754592 0.122663)
(-0.645022 0.54004 0.129042)
(-0.446894 0.644364 0.0969731)
(-0.137348 0.0837353 0.698976)
(-0.123504 0.0640255 0.46524)
(-0.0995702 0.044781 0.155146)
(-0.0896338 0.0434564 0.756749)
(-0.0851961 0.0347942 0.481866)
(-0.0711284 0.0340649 0.167657)
(-0.362882 0.128305 0.683135)
(-0.295368 0.0826094 0.453)
(-0.241921 0.0603379 0.157464)
(-0.246236 0.103067 0.748913)
(-0.193926 0.0874092 0.478577)
(-0.153793 0.0711554 0.164066)
(-0.463642 0.128882 0.644123)
(-0.366335 0.112522 0.421514)
(-0.317271 0.113002 0.142293)
(-0.35681 0.186418 0.726747)
(-0.266336 0.151474 0.467668)
(-0.226078 0.13126 0.161867)
(-0.375771 0.941184 0.33264)
(-0.275258 0.776335 0.199527)
(-0.244993 0.673059 0.0571269)
(-0.602635 0.804688 0.424566)
(-0.405485 0.704275 0.291827)
(-0.304667 0.633696 0.0959401)
(-0.572383 0.561892 0.509177)
(-0.381233 0.503872 0.357147)
(-0.270455 0.470768 0.121293)
(-0.653432 0.420257 0.577996)
(-0.470736 0.371429 0.382536)
(-0.367734 0.344491 0.127239)
(-0.55109 0.305188 0.694152)
(-0.347221 0.205517 0.445826)
(-0.236761 0.155572 0.157762)
(-0.702777 0.745251 0.354172)
(-0.524927 0.636885 0.20267)
(-0.433152 0.567256 0.0692399)
(-0.538004 0.764372 0.391074)
(-0.388741 0.660287 0.259762)
(-0.293513 0.600599 0.0932748)
(-0.500091 0.583594 0.459455)
(-0.34172 0.479046 0.30841)
(-0.242249 0.424857 0.108814)
(-0.470905 0.436945 0.548743)
(-0.320316 0.356072 0.356948)
(-0.22792 0.317555 0.124459)
(-0.546269 0.310756 0.661174)
(-0.303664 0.208611 0.396115)
(-0.168089 0.158471 0.13952)
(-0.488269 1.19469 -0.0222087)
(-0.785983 1.22101 0.038192)
(-0.420812 1.28445 0.0127024)
(-0.59258 1.16404 0.10398)
(-0.411549 1.18455 0.0779565)
(-0.834153 1.16469 0.0768845)
(-0.349873 1.42982 0.199287)
(-0.687865 1.21047 0.172442)
(-0.00512408 0.748749 0.0241389)
(-0.0674973 0.805981 0.0368041)
(0.0114921 0.750639 0.0255467)
(-0.0412718 0.727204 0.0385634)
(-0.143033 0.996668 0.0126493)
(-0.267337 0.858508 0.0350189)
(-0.0930216 0.983069 0.0235392)
(-0.167515 0.763091 0.0514884)
(-0.0827329 1.08235 0.0665733)
(-0.163018 1.11723 0.0423198)
(-0.456684 0.920367 0.146006)
(-0.669691 1.02017 0.105891)
(-0.350058 1.18255 0.0643652)
(-0.272153 1.05349 0.101734)
(-0.499601 1.22069 0.114879)
(-0.438427 1.27504 0.0168349)
(-0.686632 1.31003 0.25266)
(-0.737281 1.41415 0.0684138)
(0.0191265 1.04206 -0.191774)
(0.230405 1.0746 -0.05125)
(-0.351731 0.902247 0.0125166)
(-0.245031 0.893171 0.00811549)
(-0.273585 1.02231 -0.019479)
(-0.156189 0.991024 -0.0196002)
(-0.0625377 0.665952 0.39033)
(-0.0397733 0.380209 0.156739)
(-0.0528359 0.628489 0.102253)
(-0.0334897 0.42037 0.0557074)
(-0.155616 0.648254 0.383529)
(-0.0482549 0.372732 0.157356)
(-0.0830902 0.607421 0.110278)
(-0.0149566 0.407466 0.0646429)
(-0.400605 0.593311 0.366501)
(-0.114145 0.34425 0.168048)
(-0.310749 0.566178 0.141485)
(-0.0965614 0.386916 0.0901395)
(-0.35153 0.558124 0.105355)
(-0.105368 0.401503 0.0604018)
(-0.395097 0.536922 0.0453068)
(-0.126762 0.4003 0.0393275)
(-0.523171 0.918844 0.537611)
(-0.501312 0.704162 0.46648)
(-0.404821 0.912407 0.22965)
(-0.491974 0.718839 0.294581)
(-0.813359 1.03805 0.637974)
(-0.717881 0.910155 0.593701)
(-0.661805 1.05646 0.306698)
(-0.676578 0.907318 0.366684)
(-0.28891 0.83379 0.194996)
(-0.36108 0.555792 0.236364)
(-0.338248 0.855207 0.431614)
(-0.336356 0.530222 0.349922)
(-0.377478 0.938497 0.139538)
(-0.484925 0.727602 0.186716)
(-0.395289 0.96883 0.0710147)
(-0.487206 0.729445 0.100358)
(-0.630461 1.09242 0.199182)
(-0.658643 0.909648 0.233265)
(-0.652743 1.11777 0.105675)
(-0.661328 0.910214 0.124903)
(-0.254312 0.817673 0.102757)
(-0.363033 0.567119 0.150877)
(-0.24449 0.814916 0.0481761)
(-0.365274 0.569147 0.0849101)
(-0.0229681 0.488378 0.163387)
(-0.0420862 0.335514 0.10332)
(-0.271342 0.417868 0.183909)
(-0.130431 0.273868 0.108062)
(-0.0239743 0.445562 0.291889)
(-0.033034 0.299752 0.15256)
(-0.238674 0.386559 0.251052)
(-0.109597 0.250755 0.143449)
(-0.0224389 0.50249 0.0894704)
(-0.0374055 0.355453 0.0666763)
(-0.284464 0.432311 0.123779)
(-0.143354 0.286941 0.0713483)
(-0.0328274 0.506825 0.0411492)
(-0.040809 0.367694 0.0366555)
(-0.285395 0.436368 0.073346)
(-0.150461 0.294097 0.0410786)
(0.0076354 0.107447 0.44374)
(0.0137956 0.0576518 0.267732)
(-0.0176701 0.203609 0.197677)
(-0.00991716 0.121371 0.187415)
(0.0350307 0.110454 0.439767)
(0.0555646 0.0654262 0.268845)
(-0.0266369 0.206116 0.193225)
(-0.0128046 0.132119 0.18286)
(-0.0392694 0.118697 0.444328)
(0.00222034 0.0854934 0.262415)
(-0.086245 0.203581 0.193597)
(-0.0682872 0.14904 0.169609)
(0.287184 0.515187 0.540107)
(0.145151 0.884618 0.554143)
(0.168484 0.33426 0.475487)
(0.116996 0.304085 0.343601)
(0.00871883 0.225955 0.173641)
(0.277999 0.900276 0.33511)
(0.396841 0.562873 0.375814)
(0.182602 0.310345 0.370596)
(0.187455 0.276541 0.323504)
(0.0109462 0.178038 0.196655)
(-0.401777 0.871704 0.480601)
(-0.284124 0.616251 0.402896)
(-0.216997 0.445135 0.312137)
(-0.206096 0.325086 0.233057)
(-0.10212 0.214727 0.13133)
(0.0199241 0.0386925 0.202826)
(0.0160013 0.0338111 0.180098)
(-0.00444153 0.0860017 0.188088)
(-0.00575093 0.0756059 0.205273)
(0.0566112 0.047502 0.206318)
(0.0576388 0.035227 0.179859)
(-0.0111046 0.101055 0.185201)
(-0.0131086 0.087636 0.203342)
(0.0506945 0.0660635 0.204733)
(0.0654622 0.0528857 0.180011)
(-0.0382192 0.119666 0.178345)
(-0.0395825 0.103948 0.198323)
(0.106702 0.90017 0.375692)
(0.0374337 0.82174 0.35725)
(0.293494 0.554284 0.322516)
(0.188018 0.477909 0.274307)
(0.152373 0.338609 0.221006)
(0.0978474 0.301963 0.213618)
(0.142559 0.258017 0.192266)
(0.109873 0.226908 0.188991)
(0.00468477 0.162974 0.156945)
(-0.0133437 0.142485 0.190661)
(-0.217762 0.785072 0.281122)
(-0.154561 0.645158 0.318325)
(0.00206083 0.555527 0.219167)
(0.0602389 0.450754 0.245732)
(0.0206913 0.405633 0.176855)
(0.0596986 0.342624 0.196753)
(-0.00602433 0.286118 0.153168)
(0.0291367 0.250615 0.174844)
(-0.00944521 0.195892 0.116898)
(-0.0159513 0.196984 0.176448)
(-0.167771 0.531105 0.197684)
(-0.177177 0.393602 0.159155)
(-0.378759 0.542396 0.13491)
(-0.237453 0.374551 0.0804785)
(-0.357633 0.699933 0.317908)
(-0.3322 0.497329 0.240093)
(-0.526094 0.720208 0.254514)
(-0.400053 0.497054 0.166133)
(-0.271705 0.429577 0.0923692)
(-0.162044 0.319041 0.0569392)
(-0.0935757 0.422132 0.138033)
(-0.115674 0.337424 0.12314)
(-0.445481 0.56619 0.164386)
(-0.191094 0.360271 0.0761439)
(-0.477509 0.574159 0.0695397)
(-0.179064 0.366956 0.0383347)
(-0.602595 0.763092 0.227687)
(-0.3893 0.516129 0.133736)
(-0.64328 0.765263 0.0860808)
(-0.379382 0.52331 0.0592652)
(-0.326337 0.435089 0.123337)
(-0.118428 0.30225 0.0539093)
(-0.353559 0.444134 0.0571999)
(-0.103164 0.316377 0.0280621)
(-0.181762 0.305332 0.0651461)
(-0.136141 0.253843 0.0751992)
(-0.110977 0.214497 0.0693423)
(-0.196568 0.251507 0.113368)
(-0.083714 0.307551 0.100963)
(-0.108428 0.263607 0.117534)
(-0.0660106 0.217467 0.0822768)
(-0.161768 0.245911 0.145623)
(-0.200126 0.305025 0.080571)
(-0.123218 0.248123 0.0546445)
(-0.13765 0.209915 0.0506771)
(-0.226195 0.262071 0.0821271)
(-0.245236 0.32115 0.0308776)
(-0.113125 0.252161 0.0100605)
(-0.169514 0.217997 0.00334535)
(-0.219379 0.259777 0.0156388)
(0.0167977 0.0596588 0.136422)
(0.0184411 0.0448424 0.0632845)
(0.0202995 0.0335755 0.0183794)
(-0.00370407 0.211968 0.136941)
(0.00356485 0.101286 0.0375891)
(0.00451781 0.0749383 0.0101508)
(0.0586849 0.0559761 0.138431)
(0.0616073 0.0487654 0.0689418)
(0.0627802 0.0395033 0.0216864)
(-0.00420497 0.226183 0.138381)
(0.0146149 0.119395 0.039707)
(0.0166834 0.0924364 0.0112755)
(0.0721616 0.0709921 0.135817)
(0.088964 0.0696523 0.0694264)
(0.0945727 0.0661702 0.0188838)
(-0.0202628 0.244231 0.13523)
(0.0255902 0.14927 0.0386792)
(0.0336685 0.124761 0.00945113)
(0.00608405 0.681494 0.247869)
(0.0302478 0.566325 0.141739)
(0.0265459 0.496334 0.0400905)
(0.121002 0.407935 0.186625)
(0.12612 0.347569 0.105577)
(0.113568 0.313606 0.0310671)
(0.0921056 0.278171 0.160256)
(0.102219 0.241082 0.0856202)
(0.0964308 0.222052 0.0257541)
(0.102051 0.228498 0.137427)
(0.115057 0.195613 0.0690095)
(0.114011 0.179574 0.0179041)
(-0.00872097 0.28839 0.132199)
(0.0366463 0.197476 0.0362971)
(0.0332221 0.16778 0.00749422)
(-0.1796 0.506806 0.268347)
(-0.0928558 0.414586 0.146343)
(-0.0549464 0.359538 0.0476408)
(0.0130871 0.359567 0.210346)
(0.0518241 0.295909 0.11683)
(0.0649742 0.260953 0.0391491)
(0.0290059 0.296443 0.169979)
(0.064197 0.240579 0.0918772)
(0.0730343 0.207267 0.0305345)
(0.0193147 0.264613 0.142918)
(0.0575921 0.213695 0.0641109)
(0.0650403 0.187014 0.0188473)
(-0.043539 0.377057 0.142194)
(0.0229994 0.246539 0.0390395)
(0.0269752 0.211987 0.012801)
(-0.00307544 0.200977 0.0549668)
(-0.000336762 0.110083 0.0193569)
(0.000393148 0.066129 0.00932794)
(0.000859752 0.0438264 0.00228636)
(0.00197675 0.223162 0.0221816)
(0.0020275 0.117845 0.00813669)
(0.00247053 0.0685968 0.00414673)
(0.00189599 0.0452555 0.00127756)
(-0.00796748 0.195393 0.0559365)
(-0.00109301 0.108651 0.0202899)
(0.00127115 0.0660809 0.0107007)
(0.00238424 0.0442709 0.00333778)
(0.00444285 0.221345 0.0258247)
(0.0045918 0.118132 0.0102832)
(0.00513808 0.069713 0.0063226)
(0.00406235 0.0462395 0.00275819)
(-0.0141102 0.185485 0.0626831)
(-0.00308868 0.106732 0.0235963)
(0.000727268 0.0677547 0.0134856)
(0.00378614 0.0449191 0.00493195)
(-0.0024736 0.21481 0.0415442)
(0.00272064 0.119082 0.0186604)
(0.00311984 0.0727358 0.00904035)
(0.00390497 0.047355 0.00368599)
(-0.000944075 0.22393 0.0273941)
(0.00175441 0.123089 0.0147867)
(0.000515911 0.0716769 0.00478769)
(0.000846236 0.047574 0.00112853)
(-0.0060283 0.22883 0.025942)
(-0.00126461 0.127145 0.0154081)
(0.000202883 0.0731629 0.00671252)
(0.00123977 0.0481566 0.00297323)
(-0.0323116 0.195946 0.0490816)
(-0.0101782 0.112521 0.0207865)
(-0.00585578 0.0707207 0.00990005)
(0.000651986 0.0462337 0.00204509)
(-0.0446311 0.165613 0.0456664)
(-0.0143631 0.101759 0.0188463)
(-0.0110248 0.0670502 0.0108758)
(0.000921398 0.0426871 0.00123067)
(-0.0264833 0.173301 0.0639075)
(-0.0079354 0.103414 0.0246337)
(-0.00394755 0.0683469 0.0144436)
(0.00322788 0.04372 0.00436293)
(-0.0363124 0.151746 0.0558722)
(-0.0115983 0.0956954 0.0212923)
(-0.00972101 0.0647012 0.0135609)
(0.00116595 0.0409603 0.00125738)
(-0.0296241 0.209218 0.0348089)
(-0.00962096 0.118998 0.0165381)
(-0.00522251 0.0721275 0.00724469)
(0.000429818 0.0473275 0.00152362)
(-0.0490338 0.174369 0.0336735)
(-0.0158044 0.10645 0.0153296)
(-0.0117455 0.0686111 0.00859167)
(0.00145255 0.0435324 0.00191872)
(-0.0307841 0.216477 0.0232873)
(-0.0106306 0.123535 0.0128054)
(-0.00475678 0.0737386 0.00650559)
(0.00130093 0.0480172 0.00311003)
(-0.0513565 0.179358 0.0214375)
(-0.0166357 0.109908 0.0114279)
(-0.0121959 0.0702888 0.00670438)
(0.0016509 0.0442402 0.00316457)
(-0.0025981 0.156319 0.0691164)
(-0.00046628 0.0971731 0.0237869)
(-0.000155678 0.0627722 0.0121242)
(0.000620203 0.0415632 0.00191486)
(-0.00190948 0.112881 0.0693904)
(-0.000269614 0.0825503 0.0230714)
(-0.000529408 0.0584754 0.0142894)
(0.00071741 0.0380319 5.06409e-05)
(-0.00683228 0.15226 0.06827)
(-0.00133687 0.0960079 0.0238445)
(-0.000270106 0.0629656 0.0128875)
(0.00179667 0.0416641 0.00233639)
(-0.00319067 0.112608 0.0664664)
(-5.34234e-05 0.0825256 0.022178)
(-0.000985876 0.0585675 0.0141551)
(0.00201086 0.0381799 7.95861e-05)
(-0.0219052 0.146242 0.0678179)
(-0.00634821 0.0943648 0.0240971)
(-0.00337444 0.0638079 0.0146389)
(0.00231205 0.0418607 0.00326961)
(-0.0161616 0.115304 0.0594387)
(-0.0041285 0.0837793 0.0199293)
(-0.00339367 0.0591007 0.0138332)
(0.00327386 0.0386233 0.000705234)
(-0.00964554 0.140797 0.0620719)
(-0.00198439 0.0919693 0.0225694)
(-0.00120551 0.0634016 0.0152259)
(0.00396156 0.0416772 0.00510194)
(-0.00624486 0.11689 0.0650762)
(-0.000839773 0.0844764 0.0220731)
(-0.00195585 0.0606191 0.0172013)
(0.00351525 0.0390864 0.0014601)
(-0.0303036 0.134064 0.0472018)
(-0.00924274 0.0896603 0.0172005)
(-0.00812616 0.0615487 0.011843)
(0.0032202 0.0392214 0.00258812)
(0.00102601 0.0706989 0.0548195)
(0.000693042 0.069499 0.0167236)
(0.00021983 0.0481095 0.0109897)
(0.000758423 0.0147263 -0.000475038)
(0.00363573 0.0270699 0.0209658)
(0.00148192 0.0628204 0.00590142)
(0.000671681 0.0435401 0.00343249)
(0.000559252 0.0136747 0.000209959)
(0.000750579 0.0756739 0.0544162)
(0.00124052 0.0714322 0.0168824)
(1.73171e-05 0.0490555 0.0110551)
(0.00186686 0.0154635 -0.000269469)
(0.00905129 0.0338511 0.0215238)
(0.00383092 0.0650043 0.00619327)
(0.00154171 0.0442926 0.00366432)
(0.00141657 0.0139392 0.000408885)
(-0.00197825 0.0839104 0.051613)
(0.000684533 0.0744571 0.0163133)
(-0.000497261 0.049851 0.0111149)
(0.00289378 0.0153903 0.000132977)
(0.0129066 0.0447241 0.0210403)
(0.00556626 0.0686538 0.00622138)
(0.00227689 0.0451587 0.00389685)
(0.00210999 0.0140584 0.000666892)
(-0.00179218 0.096413 0.0437792)
(0.00102885 0.0784713 0.0138747)
(-0.000641523 0.051554 0.0104718)
(0.00377348 0.0164542 0.000653725)
(0.0147101 0.0588161 0.0187177)
(0.00660384 0.0734624 0.00548606)
(0.00239434 0.0467656 0.00406773)
(0.00232696 0.0146516 0.000988492)
(-0.00731269 0.115213 0.0383626)
(-0.000190344 0.0841073 0.0126991)
(-0.00308375 0.0543862 0.00966509)
(0.00299429 0.0184292 0.00137922)
(0.00979331 0.0763031 0.0171495)
(0.00582919 0.0785009 0.00543794)
(0.00120871 0.048367 0.00422002)
(0.0018781 0.0151431 0.00135231)
(-0.029399 0.130004 0.0283012)
(-0.00493262 0.0911991 0.0110775)
(-0.00727465 0.056138 0.00641019)
(0.0018061 0.0176726 0.00108793)
(-0.00799302 0.080838 0.0149435)
(0.0010932 0.0851367 0.00658275)
(-0.00109747 0.0517093 0.00343128)
(0.000786522 0.0158484 0.00147987)
(-0.0179304 0.126888 0.0311083)
(-0.00191515 0.088069 0.0108085)
(-0.00570521 0.0548844 0.00764004)
(0.00219183 0.0176731 0.00120764)
(-0.000572023 0.0808535 0.0154577)
(0.00351498 0.0825372 0.0057588)
(-0.000122836 0.0499527 0.00382041)
(0.00129187 0.0154338 0.00150578)
(-0.0389073 0.13068 0.0236924)
(-0.00851251 0.0933881 0.0107915)
(-0.0087679 0.0566856 0.00572842)
(0.0017991 0.0167619 0.00144042)
(-0.0126824 0.079489 0.0139116)
(-0.00114134 0.0872704 0.00701565)
(-0.00187312 0.0527325 0.00331102)
(0.000501291 0.0158167 0.00165548)
(-0.0451929 0.130253 0.0168807)
(-0.0118522 0.0957709 0.00929568)
(-0.0101113 0.0582935 0.00519276)
(0.00154834 0.0170706 0.00254148)
(-0.0163993 0.0839401 0.0117054)
(-0.00347425 0.0897179 0.00684085)
(-0.00264883 0.0541373 0.0036121)
(0.000243344 0.016131 0.00218655)
(0.000306889 0.0298456 0.00058578)
(0.00014002 0.0183655 0.000181752)
(6.33243e-05 0.0106022 7.05726e-05)
(2.94191e-05 0.00538758 3.17809e-05)
(1.68859e-05 0.00163751 1.83141e-05)
(0.000491802 0.0302138 0.000265057)
(0.000225563 0.0184507 8.73311e-05)
(0.000102803 0.0106282 3.51922e-05)
(4.83609e-05 0.00539689 1.62533e-05)
(2.79337e-05 0.00163993 9.57747e-06)
(0.000623702 0.0303689 0.00080259)
(0.000296654 0.0185225 0.000299241)
(0.00013448 0.010667 0.00012827)
(6.2665e-05 0.005414 6.01368e-05)
(3.6362e-05 0.00164459 3.50211e-05)
(0.00128267 0.0307183 0.000598309)
(0.000617793 0.0186402 0.000259526)
(0.000285492 0.0107121 0.000116595)
(0.000135901 0.00543201 5.54377e-05)
(7.92146e-05 0.00164948 3.24062e-05)
(0.00094786 0.0306019 0.00138982)
(0.000444673 0.0186768 0.000608367)
(0.000200772 0.0107379 0.000276729)
(9.40255e-05 0.00544341 0.000133228)
(5.49138e-05 0.0016525 7.85579e-05)
(0.00189564 0.0308382 0.00222648)
(0.000892708 0.0189057 0.00104475)
(0.000413456 0.0108409 0.000488006)
(0.000198298 0.00548719 0.000236513)
(0.000116372 0.00166469 0.000139369)
(0.000606941 0.0319512 0.00215874)
(0.00028583 0.0193139 0.00106506)
(0.000134219 0.011032 0.000509697)
(6.50968e-05 0.0055703 0.000250329)
(3.84515e-05 0.0016879 0.000148913)
(0.000267583 0.0324541 0.00211149)
(0.000141273 0.0196704 0.00105799)
(6.85648e-05 0.0112156 0.000510784)
(3.37065e-05 0.00565257 0.000252382)
(1.99535e-05 0.00171111 0.000151046)
(0.000863813 0.0315304 0.00163585)
(0.000374671 0.0190787 0.00076933)
(0.000169654 0.0109154 0.000363383)
(8.03655e-05 0.00551834 0.000177724)
(4.67489e-05 0.00167317 0.000104836)
(0.000116398 0.0316657 0.00125105)
(4.44936e-05 0.0191053 0.000600914)
(1.84798e-05 0.0109218 0.000286345)
(8.06354e-06 0.00551999 0.000141004)
(4.42329e-06 0.00167345 8.35201e-05)
(0.00147913 0.0306766 0.00174622)
(0.000653016 0.0188495 0.000788736)
(0.000295476 0.0108152 0.000365358)
(0.000140439 0.00547547 0.000177871)
(8.21666e-05 0.00166116 0.000105165)
(0.000339032 0.0312906 0.00122797)
(0.000136849 0.0189697 0.000546615)
(5.98145e-05 0.0108616 0.000253764)
(2.76464e-05 0.00549401 0.000124001)
(1.5719e-05 0.00166613 7.30796e-05)
(0.000146061 0.0320445 0.00170068)
(5.75953e-05 0.0193231 0.000865208)
(2.4273e-05 0.0110323 0.000419023)
(1.07561e-05 0.00556975 0.000207256)
(5.99784e-06 0.00168764 0.000123488)
(0.000110969 0.0320547 0.00152986)
(4.95351e-05 0.019333 0.000785486)
(2.22279e-05 0.0110339 0.000381968)
(1.03616e-05 0.0055697 0.000189374)
(5.96095e-06 0.0016875 0.000112876)
(7.44549e-05 0.0324322 0.00189051)
(3.95848e-05 0.0196941 0.000964236)
(1.87757e-05 0.0112302 0.000467742)
(8.75822e-06 0.00565932 0.000231554)
(4.78448e-06 0.00171303 0.000138544)
(9.01436e-06 0.0324823 0.00179601)
(1.83618e-06 0.0196877 0.00092551)
(3.56908e-07 0.0112253 0.000450554)
(-1.81569e-07 0.00565699 0.000223257)
(-3.87701e-07 0.00171236 0.000133345)
(0.000234432 0.0292979 0.000524563)
(0.000103601 0.0182556 0.000159781)
(4.50816e-05 0.0105716 6.07067e-05)
(2.02321e-05 0.00537722 2.70755e-05)
(1.13577e-05 0.00163486 1.55606e-05)
(0.000263981 0.0290742 0.000200539)
(0.000105469 0.0181894 6.37292e-05)
(4.39836e-05 0.010552 2.4559e-05)
(1.93838e-05 0.00537053 1.11749e-05)
(1.07959e-05 0.00163316 6.60182e-06)
(0.000561624 0.029599 0.000640078)
(0.000240356 0.0183772 0.000221803)
(0.000103394 0.0106204 9.21975e-05)
(4.62333e-05 0.00539641 4.29254e-05)
(2.60432e-05 0.00163989 2.51849e-05)
(0.000624349 0.0293756 0.000215901)
(0.000241131 0.0183041 7.64465e-05)
(9.99938e-05 0.0105959 3.16157e-05)
(4.39698e-05 0.00538735 1.48065e-05)
(2.44292e-05 0.00163753 8.88634e-06)
(0.000725161 0.0300041 0.000731939)
(0.00029483 0.0185357 0.000300698)
(0.000125252 0.0106839 0.000133866)
(5.55218e-05 0.00542142 6.44028e-05)
(3.11896e-05 0.00164643 3.84981e-05)
(0.000799673 0.0299771 0.000365796)
(0.000304047 0.0184701 0.000150979)
(0.000126419 0.0106565 6.58328e-05)
(5.56496e-05 0.00541049 3.08744e-05)
(3.12731e-05 0.0016435 1.83872e-05)
(0.00113298 0.0305997 0.00149959)
(0.000472458 0.0187222 0.000667896)
(0.000208164 0.0107577 0.000305419)
(9.71845e-05 0.00545081 0.000148791)
(5.66233e-05 0.00165418 8.88652e-05)
(0.000597032 0.0306669 0.000758532)
(0.000232199 0.018652 0.000333412)
(9.78859e-05 0.0107259 0.000150733)
(4.36964e-05 0.00543743 7.29586e-05)
(2.5086e-05 0.00165043 4.36886e-05)
(0.000676285 0.0309157 0.00162683)
(0.000289611 0.0188546 0.000703411)
(0.000129739 0.0108129 0.000319876)
(6.16376e-05 0.00547338 0.000154485)
(3.60949e-05 0.00166031 9.10444e-05)
(-0.0198695 0.473871 0.13959)
(-0.0257832 0.741901 0.243036)
(-0.0553408 0.492287 0.133234)
(-0.0742802 0.752415 0.236673)
(-0.0854415 0.522675 0.126461)
(-0.120353 0.769414 0.221475)
(-0.102118 0.558901 0.12518)
(-0.159221 0.808891 0.214096)
(-0.0954995 0.593008 0.132899)
(-0.150168 0.880144 0.237916)
(-0.0887717 0.517397 0.0801168)
(-0.126816 0.636493 0.108506)
(-0.072764 0.543117 0.107078)
(-0.0929675 0.701156 0.162091)
(-0.113442 0.508283 0.0539235)
(-0.159484 0.619726 0.0654076)
(-0.123959 0.499956 0.0210697)
(-0.171227 0.614245 0.0258284)
(-0.0267414 0.385626 0.412856)
(-0.00596243 0.069642 0.100448)
(-0.00131769 0.0154933 0.0233021)
(-0.000283995 0.00352323 0.0052289)
(-7.02676e-05 0.000626959 0.00133096)
(-0.009483 0.459851 0.110928)
(-0.0037998 0.12813 0.0296772)
(-0.000372156 0.0315232 0.00801123)
(-0.000116724 0.0072301 0.0018159)
(-5.09953e-05 0.0012752 0.000412385)
(-0.08648 0.390698 0.406777)
(-0.0194112 0.0681363 0.0976475)
(-0.00431511 0.0148935 0.0224991)
(-0.000937406 0.00335852 0.00501487)
(-0.000233688 0.000594595 0.00127117)
(-0.0241785 0.464265 0.114843)
(-0.00516812 0.127671 0.0336045)
(-0.00105537 0.0310336 0.0083374)
(-0.000207557 0.00703132 0.00195487)
(-4.45315e-05 0.00123661 0.000497046)
(-0.151189 0.399699 0.387032)
(-0.0341362 0.0672023 0.0913967)
(-0.00763693 0.0143438 0.020852)
(-0.00167529 0.00319591 0.00461648)
(-0.000421663 0.000562516 0.00116474)
(-0.0435014 0.473505 0.111509)
(-0.0106083 0.127598 0.0324211)
(-0.00239925 0.0304959 0.0079755)
(-0.000538245 0.00683612 0.00185038)
(-0.000133981 0.00119485 0.000466038)
(-0.213618 0.409545 0.356138)
(-0.0485304 0.0656606 0.0825224)
(-0.0109744 0.0136805 0.0186768)
(-0.00243781 0.00302244 0.00412407)
(-0.000622014 0.000530941 0.00104101)
(-0.061716 0.485217 0.106629)
(-0.0166499 0.127356 0.0302429)
(-0.00405694 0.030005 0.00729092)
(-0.000959563 0.00668562 0.00166484)
(-0.000251144 0.00116626 0.000413687)
(-0.292298 0.413643 0.305141)
(-0.068399 0.0637883 0.0697214)
(-0.0158209 0.0132236 0.0157823)
(-0.00358406 0.00294063 0.00350245)
(-0.00093186 0.000520345 0.000891257)
(-0.0835326 0.492224 0.0976441)
(-0.0257531 0.126317 0.0264636)
(-0.00665966 0.0297624 0.00624222)
(-0.00162334 0.0066757 0.00140874)
(-0.000435544 0.00117226 0.000347204)
(-0.380388 0.382227 0.165491)
(-0.0974776 0.0703102 0.0404797)
(-0.023882 0.0162381 0.00951373)
(-0.0056505 0.00385021 0.00216587)
(-0.00152043 0.000707338 0.000562315)
(-0.099586 0.427629 0.0501023)
(-0.0320948 0.124846 0.0128337)
(-0.00853218 0.0319335 0.00283673)
(-0.00211241 0.00760432 0.000595904)
(-0.000575944 0.00138994 0.000138747)
(-0.352237 0.397638 0.234197)
(-0.087395 0.0680691 0.0556211)
(-0.0208627 0.0149523 0.0128237)
(-0.00483199 0.00343139 0.00287997)
(-0.00127772 0.000618028 0.000740714)
(-0.0947683 0.454741 0.0692703)
(-0.0312397 0.126222 0.0181663)
(-0.00832059 0.0309881 0.00419892)
(-0.00205774 0.00714505 0.000935844)
(-0.000556249 0.00127793 0.000229375)
(-0.392705 0.37318 0.102839)
(-0.101983 0.0716791 0.0258167)
(-0.0253171 0.0170481 0.00616191)
(-0.00606281 0.00412997 0.00141793)
(-0.00164772 0.000769508 0.0003706)
(-0.10359 0.416197 0.0321637)
(-0.0321289 0.123856 0.00845548)
(-0.00837859 0.0323926 0.00185097)
(-0.00204738 0.00787458 0.000373478)
(-0.000556126 0.00146187 8.35534e-05)
(-0.402813 0.368185 0.0377215)
(-0.104266 0.0701204 0.00959908)
(-0.0260022 0.0167534 0.0023128)
(-0.00626458 0.00409394 0.000536462)
(-0.0017124 0.000768232 0.000141074)
(-0.104839 0.410571 0.0151464)
(-0.0324492 0.121941 0.00371251)
(-0.00843405 0.0321176 0.000781192)
(-0.00191487 0.00787273 0.000207723)
(-0.00054997 0.00147038 3.31151e-05)
(-0.0137681 1.53204 -0.0762297)
(-0.293849 2.17109 0.0124458)
(-0.287454 1.93454 0.18002)
(-0.159469 1.43264 -0.163179)
(0.157749 0.786079 0.041099)
(0.217012 0.828518 0.0438631)
(0.434426 1.25471 0.110503)
(0.5738 1.26623 0.135243)
(0.243404 0.856328 0.0921191)
(0.497655 0.921712 0.148948)
(0.0822298 1.37866 0.125131)
(0.289842 1.85646 0.189155)
(0.238509 2.04827 0.122101)
(0.403796 2.80482 0.159071)
(0.44991 1.03748 0.0580335)
(0.625045 1.14733 0.084261)
(0.540914 0.831223 0.0620803)
(0.618665 0.815213 0.0723523)
(0.308494 0.573192 0.0429011)