/*--------------------------------*- C++ -*----------------------------------*\
| =========                 |                                                 |
| \\      /  F ield         | OpenFOAM: The Open Source CFD Toolbox           |
|  \\    /   O peration     | Version:  2412                                  |
|   \\  /    A nd           | Website:  www.openfoam.com                      |
|    \\/     M anipulation  |                                                 |
\*---------------------------------------------------------------------------*/
FoamFile
{
    version     2.0;
    format      ascii;
    arch        "LSB;label=32;scalar=64";
    class       volScalarField;
    location    "1.1";
    object      gradTy;
}
// * * * * * * * * * * * * * * * * * * * * * * * * * * * * * * * * * * * * * //

dimensions      [0 -1 0 1 0 0 0];

internalField   nonuniform List<scalar> 
5712
(
14149.9
7778.9
24505.5
16121.6
23649.5
20215
34477.2
43107.8
52650.7
67173.1
28060.7
24780
17249.4
11949.1
11450.3
6526.59
23060.3
20140.5
21031.8
20430.3
26379.6
24792.9
30833.4
26039
8212.63
5602.93
4302.99
2972.34
11837.7
7486.18
6599.9
4288.94
24214.7
25286.5
21274.8
16633.8
16908.3
13533.7
14536.3
13954.9
19199.4
19019.6
39902.2
44130.2
28059.1
29893.9
21121.1
16655.2
21120.9
14747.3
8993.8
7842.21
6963.45
11153
3486.21
4970.1
9197.31
14737
5849.69
8306.02
9252.39
17514.7
7141.68
12226.3
2176.12
8129.21
339.94
5786.7
19017.8
23019.8
20436.7
23062.2
23794
23969.8
24750.1
23738.4
18667.6
22657.7
18306.6
22182.9
20694.3
23060.6
20415.4
23016.2
25222
23620
25401.4
23560.5
17655.8
22780.2
16144.1
22739.5
20213.1
22361.5
25434.7
36912
21257.9
26271.4
25391.3
41020.7
19082
19611.3
25228
34711.9
18339.2
17934
25177.7
33671.8
5765.75
7499.25
15873.8
26781.2
6793.76
7790.86
19344.5
29563
7898.92
8288
23313.1
32540.7
26471.8
28016.5
23406.7
22276.6
32296.2
28385.2
25394.4
23228.3
20308.8
37306.3
25972.3
24679.5
21520
23521.8
47374.3
1954.48
2588.37
5570.44
12035.7
2732.21
3888.47
7170.94
13614.1
4012.3
3867.92
9378.87
15643
27153.6
26129.5
23150.3
21321.9
20466.6
17403.3
15346
13127.5
12831
19670.8
24092.4
21036.4
22849.4
20725.9
19959.2
17808
18043
15431.7
15032.5
20983.9
23889.5
25186.2
24906.9
27136
23455.7
21406
24016.8
22806
22375.8
22436.7
21983.6
21596.5
25407.3
27840.2
25304.6
27660.8
24460.8
23855.8
24281.2
23768.7
22154.1
22245.1
22487.3
22459
19832.5
19430.8
13903
16680.4
20058.7
19147.3
14463.7
17555.4
19217.6
19092.2
13667.2
16559
19373.4
18864.8
13501
16109.1
2093.38
1600.64
1119.53
1086.41
869.855
851.624
3207.62
2065.24
1508.45
2576.67
2185.23
1778.89
3222.05
2813.05
2825.05
4660.45
3786.84
3281.51
23529.6
19408.4
16826.5
20117.2
17606.9
15842.4
14047.3
12596.8
11769.2
10506.4
9285.72
8612.27
7629.7
5137.92
3889.31
18631.3
15922.1
14181.4
19109.3
16507.2
15015
14589.8
11976.1
10621.4
10923.6
8901.79
7938.89
7768.91
5215.28
3961.76
29867.3
30525.4
32111.2
29101
29613.8
29117.2
35745.5
30261.8
18718.7
20149.5
18766
18180.1
24916.7
21462.7
24576.7
19077.3
27058.8
27930.8
23009.2
25504.2
29563.7
26337.3
30517.3
31876.1
32750.8
35353.7
26051.4
26865.1
22556.2
22329.3
25557.7
24775.6
16648.8
9505.22
15712.2
10509.2
16206.3
9318.3
15185.5
10186.7
14832.8
8606.24
14154.4
9672.89
13953.1
10037.6
13423
10007.5
22971.1
17604
22810.2
17971
25951.3
22753.9
26411.6
22682.9
20844.7
13894.8
21380.2
13255.5
23462.4
18190
24220.7
18236.1
27310.4
22741.2
27944.3
22755.4
20441.8
14178
20372.9
14228.7
12209.4
8387.85
10446.7
6846.71
11139.1
7493.81
9663.97
6268.89
12562.2
8886.32
10807.8
7173.53
12670.6
9192.34
10909.2
7352.42
2686.16
1441.29
5090.22
3034.27
2761.34
1635.65
5152.9
3302.99
2967.42
2137.33
5089.52
3726.01
12879.7
22115.5
8356.5
7602.12
5648.87
22506.9
14071.8
7758.63
6913.53
4450.96
21792.6
15406.3
11128.4
8127.14
5368.17
967.313
845.278
2150.04
1890.15
1187.55
880.674
2526.38
2190.9
1651.59
1322.14
2991.66
2598.71
22504.3
20543.5
13857.1
11947.7
8465.22
7549.08
6450.43
5672.69
4074.35
3562.14
19626.8
16128.9
13888.2
11268.9
10140.8
8565.59
7152.95
6265.37
4897.3
4924.61
13277.6
9840.06
13559.9
9363.76
17498.3
12433.2
18005.2
12426.3
10739.4
7976.03
10553.3
8435.61
14154.8
9006.79
14354
9173.91
19077.3
12903.2
19131.6
13082.7
10877.2
7556.24
11103.3
7909.42
7633.29
6346.09
5362.41
6287.68
7688.76
6590.17
5436.68
6147.77
7625.62
6203.06
5247.88
6551.77
8028.75
6304.02
5449.94
6494.42
1491.47
1121.06
839.387
5299.2
2532.14
1873.46
1399.4
1219.13
987.583
5654.59
2984.89
2310.91
1774.8
1741.31
1654.26
6105.78
3731.74
3119.03
17037.4
14158.1
12408.3
10198.4
8689.23
7840.14
6954.27
6027.06
5551.29
5712.46
4890.34
4489.34
7209.75
4936.89
4194.5
12670.1
10364.6
8988.46
8989.18
7397.72
6523.82
7411.09
6014.49
5181.68
6615.33
5342.38
4675.35
9426.41
6163.49
5299.68
5024.42
2752.08
1653.23
1095.66
5579.05
2946.13
1714.92
1131.39
4884.81
2716.27
1652.02
1106.77
5533.62
2953.3
1742.83
1155.99
4637.12
2668.3
1693.87
1122.98
5370.25
2977.05
1818.39
1183.87
5598.24
3077.21
1791.92
1189.35
5720.76
3178.63
1829.07
1203.92
4898.66
2813.01
1768.02
1155.84
4140.33
2543.98
1676.26
1067.18
4332.53
2585.34
1708.67
1093
3793.65
2392.38
1617.53
1024.01
5230.44
2974.96
1803.19
1183.19
4359.22
2661.26
1715.28
1088.31
5411.91
3088.38
1843.46
1200.43
4483.95
2747.71
1757.22
1106
3907.97
2429.33
1569.31
1039.08
2822.03
2063.76
1461.89
950.796
3806.49
2400.2
1574.14
1041.6
2815.19
2063.14
1464.19
954.497
3656.05
2359.12
1595.2
1046.52
2882.6
2094.48
1477.52
965.581
3519.93
2299.23
1585.04
1041.93
2922.25
2111.91
1515.48
977.161
3351.6
2241.51
1538.72
980.536
1767.47
1737.48
1202.74
368.157
676.749
1570.51
1088.5
341.868
1891.85
1785.81
1226.39
386.586
846.277
1625.11
1107.32
348.481
2097.76
1861.43
1246.28
384.759
1118.1
1716.35
1128.97
351.46
2410.33
1961.78
1288.85
411.356
1470.4
1836.56
1169.14
366.291
2880.31
2102.68
1359.65
460.73
1907.58
1962.52
1209.17
378.576
3250.11
2279.98
1403.45
441.815
2020.95
2128.42
1292.73
396.211
3172.21
2201.72
1372.11
441.828
2021.34
2063.43
1248.82
385.845
3266.99
2334.7
1417.14
419.048
1987.23
2181.76
1318.31
395.419
3256.32
2394.27
1457.34
426.764
2098.5
2242.95
1353.43
403.275
746.139
459.138
265.055
134.69
40.9377
755.345
461.267
265.705
134.922
40.9983
759.223
463.064
266.675
135.35
41.1147
767.957
466.005
267.802
135.8
41.2371
765.047
466.92
268.447
136.085
41.3124
770.956
472.642
271.023
137.18
41.6173
798.781
482.848
275.8
139.258
42.1975
811.352
491.76
280.389
141.314
42.7777
788.261
476.968
272.885
137.959
41.8294
791.643
477.632
273.045
138
41.8362
766.915
471.236
270.38
136.887
41.5289
782.264
474.241
271.539
137.35
41.6532
801.111
483.078
275.807
139.244
42.191
801.369
483.325
275.847
139.242
42.1875
810.804
492.354
280.755
141.483
42.8257
812.057
492.192
280.632
141.425
42.8091
732.448
456.39
264.291
134.431
40.8716
726.855
454.736
263.799
134.263
40.829
739.974
459.43
265.51
134.91
40.9972
734.389
457.602
264.896
134.684
40.9383
750.103
463.394
267.096
135.535
41.1607
749.428
461.753
266.413
135.262
41.0875
764.993
468.054
268.943
136.27
41.3544
766.673
466.3
268.148
135.936
41.2608
772.893
471.365
270.321
136.834
41.5077
11846.8
18547.5
12307.2
18810.4
13066.9
19235.3
13972.5
20222.3
14825.2
22003.6
12934.9
15912.3
13577.9
17528.9
12707.1
15493.1
12498.9
15356.1
9640.64
1741.05
387.334
88.0809
15.674
11496.3
3203.26
788.08
180.753
31.8799
9767.45
1703.41
372.338
83.9629
14.8649
11606.6
3191.77
775.839
175.783
30.9154
9992.49
1680.06
358.594
79.8977
14.0629
11837.6
3189.94
762.396
170.903
29.8712
10238.6
1641.52
342.011
75.561
13.2735
12130.4
3183.89
750.124
167.141
29.1565
10341.1
1594.71
330.589
73.5158
13.0086
12305.6
3157.94
744.061
166.893
29.3066
9555.67
1757.76
405.954
96.2552
17.6835
10690.7
3121.16
798.337
190.108
34.7485
9940.95
1701.73
373.808
85.7848
15.4507
11368.5
3155.55
774.703
178.626
31.9482
9329.51
1791.98
426.202
103.249
19.2377
10404.9
3096.39
809.814
196.865
36.5467
9204.62
1753.01
418.835
102.349
19.2058
10264.3
3048.52
802.94
196.818
36.7596
38300.9
54277.1
48363.6
35816.1
19652
20712.9
31367.8
31655.8
21408.2
23042.8
34466.5
46411.5
51206.7
70120.6
25937.1
28683.2
20780.6
20380.3
14329.8
14790
3893.95
2592.25
427.248
298.995
369.545
302.373
403.436
3653.58
3477.8
2118.36
2728.72
2309.66
984.797
1505.11
1206.19
757.255
879.248
693.239
3224.94
1644.37
874.869
798.076
1068.71
895.622
648.264
629.276
537.259
472.671
668.313
626.343
3407.17
1999.05
2143.35
1359.01
1065.16
1634.76
664.605
470.202
757.056
7955.6
7777.96
7426.03
8499.39
13799
5628.34
6028.19
6125.77
6788.02
7678.39
1106.59
1540.22
1843.05
2035.85
2131.22
782.088
1105.23
1339.56
1490.62
1564.86
963.97
1355.95
1635.24
1811.86
1897.45
791.532
1119.72
1357.7
1510.35
1584.86
1048.29
1466.16
1760.43
1946.54
2037.36
7865.74
8030.52
7432.09
7867.58
12163.9
7231.54
7134.36
6644.09
6789.49
7872.02
4752.82
5270.05
5307.46
5544.81
5924.03
5741.46
5832.22
5493.79
5450.87
5837.02
4921.14
5113.36
4840.67
4767.95
4967.45
2399.72
3044.59
3378.62
3579.72
3699.54
3484.68
4082.6
4269.7
4423.28
4584.94
2853.69
3453.75
3686.17
3818.48
3912.75
1894.66
2501.02
2858.77
3066.83
3171.55
2162.23
2779.92
3110.61
3297.38
3395.85
1748.15
2334.44
2691.02
2896.63
2995.76
7076.92
7446.29
7082.32
7705.08
12029.3
3844.18
4544.56
4805.17
5117.15
5437.25
2169.66
2825.61
3201.87
3435.18
3566.15
1997.73
2638.87
3026.04
3269.84
3403.06
2607.44
3308.99
3685.44
3952.93
4133.09
2231.17
2921.06
3329.27
3600.02
3753.86
1648.38
2229.38
2607.49
2850.18
2975.77
1603.33
2175.72
2548.4
2780.9
2898.44
1380.9
1898.48
2243.19
2451.62
2551.31
1221.95
1695.26
2019.83
2220.51
2317.36
1692.94
2277.11
2644.08
2864.07
2973.3
1595.33
2163.91
2531.66
2756.95
2869.32
7214.39
7342.31
7043.29
7934.97
12608.3
4518.69
5132.55
5382.75
5889.43
6479.95
5227.99
6065.31
6071.83
6663.23
7447.91
3279.71
4061.7
4454.98
4827.08
5092.05
2627.1
3374.33
3791.89
4098.68
4283.06
3900.17
4657.86
4921.63
5296.89
5559.39
1687.92
2278.95
2660.23
2901.79
3026.33
1214.21
1682.1
2003.34
2204.32
2302.68
1905.26
2536.67
2927.55
3174.93
3306.85
21202.5
13922.3
22399.7
17062
26701.6
38620.9
28646
40431.6
23333.6
22533.4
20720.2
21209.8
24137.1
23673.2
30186.1
25418.5
16612.5
14993.3
7420.79
6011.89
19305.8
15733.8
10255.4
6974.4
24972.6
27401.6
22552.5
19870.7
24027.3
15971.4
14601.8
14043.6
19573.3
19148.7
40255.5
44347.8
27912
29904.8
21899.3
16870.8
22058.8
14960
9663.08
7982.34
16139.5
19563.3
6495.89
7952.02
17189.8
21788.5
8683.18
11098.9
14849.2
22041.5
9216.37
14397.5
2544.93
8917.18
370.073
5943.62
20317.1
22098.6
20648.2
22629.9
22850.5
22499
24141.7
22971.8
19671.9
22635.7
21157.3
22004.2
20774.6
22861.3
20430.2
22953.9
24951.5
23248.8
25334.1
23444.1
18042.4
22785.8
16228.3
22741.7
21069.2
23652.6
25769.7
37314.7
22629.5
28521.3
25922.8
41658.6
19504.8
20233.6
25407.4
34937.3
18457
18107.3
25234.2
33747.2
21714.7
24717.5
28943.9
41173.1
20604.9
22155
29808.6
40787.9
17809.2
18282.9
29956.3
39019.4
20504.6
21720.5
21747
23029.6
35183.9
21279.7
19141.2
22801.2
21165.3
40406.2
21406.5
21011.9
20197.6
24244.3
48295.8
14869.1
13973.5
12663.2
16206.7
14442.5
13752.8
12915.9
16753
13229.9
11851.2
12784.4
16843.9
20550.1
19510
18359.1
17189.3
20399.7
18345.7
16507.1
14435.7
14158.3
19127.4
20406.9
18658.1
20032.2
19125.7
18907.8
17279.1
18459
15661.6
15177.5
19599.5
22475.9
23958.9
24160.7
26382.1
21753.3
20210.7
23140
22137.2
21998.3
21971.5
21282.9
20876.3
25077.3
27520.3
25210.6
27569.4
24068
23576.7
24168.6
23688.2
21983.9
22024.3
22439.4
22398.5
19743.3
19201.5
13926.1
16536.3
19973.3
18833.8
14546
17215.5
19170.7
18972.6
13671
16491.5
19358.2
18828
13500.7
16087.3
13289.7
14366.6
5171.03
5288.7
12936.7
12945
5966.66
6189.4
10349.8
9934.84
6563.36
6327.31
18501.7
17165.1
17237.2
16685
15890.7
15083.1
12104.2
10901.5
8353.9
6334.42
17953.2
16805.2
19296.5
17968.2
15176.7
13534.6
11773.7
10286.7
7431.78
5568.58
24805.9
24426.1
29902.9
26311.4
26890.7
25597.1
35933.3
28937.7
20004.6
15375.8
21758.1
16683.8
20842.2
15413.6
22632.2
16660.9
23445.4
21289.6
20334.8
19384.1
21143.8
22806
29164.8
31475.6
32116.8
35175
24367.6
26360
21298.1
21971.6
23719.9
24226.4
12626.5
9928.48
13763
10353.1
12283.6
9678.38
13442.4
10067.2
11633.5
8926.19
12721.7
9527.75
13125.5
9869.45
13164.3
9939.97
18900.7
16492.7
20924.1
17191
22919.5
20886.1
25011.9
21648.7
18841.9
13518.6
17269.5
13001.5
22541.3
17750.1
23948.3
18090.6
26647.7
22216.7
27754.4
22589.1
19462.4
13916.8
20083.5
14134.8
11678.1
8556.92
10500.3
7181.96
10801.1
8194.39
10131.7
7037.14
12199.3
8896.04
10766.1
7315.3
12547
9179.18
10888.5
7399.27
10808
10933.6
9125.41
8718.82
10294.7
10574.6
8805.9
8414.24
9588.54
9773.51
8008.37
7585.52
16325.1
20890.1
14166.7
9836.95
7711.36
20283.5
17350.6
15427.1
9849.98
7261.23
20193.5
16110.2
12718.5
10029.5
6985.23
11963.6
13484
9028.93
9779.4
11303.9
12272.4
8525.76
9092.09
10087.4
10438.1
7357.01
7368.37
19334.4
17427.8
15277.7
13695.6
13687.6
13426.9
9838.3
9901.55
7073.61
6917.04
17879
14854.7
14201.6
11688.9
11711.8
10319.2
9288.53
8635.65
6584.41
6859.82
13103.1
10053.2
13403.9
9501.9
16487.7
11973
17433.8
12211.7
10921.7
8354.29
11031.4
9198.54
14025.9
9046.72
14305.2
9178.96
18782.7
12797.6
19041
13050.6
10898.1
7682.07
11086
7931.88
7992
6841.42
5784.45
6932.07
8540.64
7638.44
6338.23
7410.45
7744.43
6391.44
5432.45
6860.87
8064.92
6360.06
5518.6
6588.79
16459.9
16996.7
18545.2
15742.5
14405.1
14832.9
17360.8
14810.7
11765.5
11998.6
14939.7
12922.2
15599.2
14377.5
12855.9
12227.2
13283.2
13035.5
10615.8
10010.4
14118.6
12336
12128.4
11336.9
9969.33
9606.46
9697.08
9300.91
9723.49
9105.21
14706
12223.6
6108.03
3446.11
2030.32
1319.9
6282.03
3511.05
2051.14
1340.71
5874.9
3364.07
1998.19
1314.55
6131.58
3445.5
2035.8
1341.69
5487.56
3245.75
2001.12
1304.91
5814.54
3369.71
2063.97
1338.39
5840.82
3319.27
1956.37
1294.15
5797.25
3261.25
1884.11
1240.41
5324.09
3137.35
1967.07
1283.37
4544.68
2835.8
1848.18
1173.08
5091.98
3073.55
1979.11
1252.75
4480.15
2839.02
1856.91
1158.01
5443.84
3159.63
1922.7
1263.05
4571.16
2824.99
1821.43
1158.89
5474.03
3149.49
1884.98
1228.36
4551.68
2800.92
1793.72
1130.15
5756.44
3322.09
2010.82
1282.75
5252.91
3141.23
1970.94
1204.46
5488.69
3245.58
1991.82
1272.4
4998.2
3078.14
1949.32
1198.61
5102.33
3130.19
1981.57
1258.53
4644
2982.59
1913.09
1187.9
4725.43
2964.41
1917.16
1219.93
4400.42
2893.83
1896.91
1167.78
4392.34
2833.66
1840.3
1128.17
4433.03
2911.59
1692.42
486.562
3017.93
2765.38
1589.32
468.108
4255.17
2879.02
1692.66
503.808
2944.92
2736.13
1583.06
470.023
3996.02
2813.83
1659.43
488.296
2817.29
2684.31
1553.55
460.836
3959.98
2765.82
1658.22
509.66
2898.26
2646.75
1536.92
463.694
4005.94
2722
1668.25
550.902
3044.6
2600.94
1510.98
461.516
3630.85
2570.3
1595.05
505.345
2298.87
2412.48
1458.04
445.653
3863.24
2649.75
1628.37
520.106
2598.09
2508.87
1481.16
452.062
3449.23
2494.59
1534.03
458.874
2094.24
2335.38
1415.56
425.197
3303.36
2444.37
1495.99
440.116
2122.57
2290.29
1384.91
413.049
883.279
529.438
298.911
149.563
45.0979
883.938
528.872
298.569
149.407
45.0536
889.415
528.269
297.896
149.046
44.9444
883.864
526.416
297.067
148.688
44.8451
884.528
526.092
296.653
148.448
44.7692
864.478
521.165
294.524
147.538
44.5189
858.808
513.008
290.523
145.781
44.0287
833.893
503.525
286.181
143.891
43.5026
869.648
518.937
293.226
146.933
44.3445
871.794
519.34
293.246
146.912
44.3343
871.906
523.442
295.281
147.813
44.5854
882.642
522.42
294.513
147.443
44.4783
856.26
513.164
290.621
145.815
44.0362
853.764
513.19
290.673
145.831
44.0386
829.278
502.514
285.819
143.743
43.4622
829.789
502.667
285.92
143.79
43.4762
881.323
530.07
299.302
149.743
45.1487
888.996
530.847
299.534
149.84
45.176
884.056
529.543
298.626
149.37
45.0347
892.151
530.591
298.989
149.523
45.0782
887.039
528.444
297.631
148.853
44.8789
899.563
529.958
298.108
149.046
44.9328
892.207
526.573
296.374
148.248
44.7004
905.954
528.054
296.896
148.462
44.7579
888.305
524.433
295.375
147.805
44.5754
13733.3
18525.1
13677.9
18466.3
13696.8
18414.6
14092.9
19064.3
14557.8
20495.2
12867.7
15737.9
13440.7
17055.6
12675.7
15422.6
12491.2
15338.9
10106.7
1776.68
390.16
88.2317
15.6648
11675.1
3236.73
792.097
181.013
31.8641
10086.5
1723.37
373.135
83.8306
14.8214
11636.7
3198.82
775.646
175.414
30.8216
10082.6
1676.26
356.34
79.3373
13.9667
11642.5
3157.19
755.926
169.6
29.6604
10133.8
1617.56
337.203
74.6426
13.1327
11750.9
3117.36
738.237
165.01
28.84
10125.6
1561.63
324.699
72.435
12.8455
11837.9
3078.5
729.947
164.374
28.9352
9456.67
1737.31
401.401
95.2909
17.5257
10561.9
3082.48
789.094
188.151
34.4303
9773.58
1671.51
367.826
84.6175
15.2687
11102.4
3092.3
761.635
176.108
31.5626
9280.38
1780.88
423.498
102.636
19.1334
10347.5
3076.88
804.647
195.689
36.3465
9190.39
1749.65
417.978
102.146
19.1705
10248.6
3042.87
801.355
196.44
36.694
37914.8
54340.1
48551.7
34635.6
25528.2
30929.8
25199.3
30858.8
28992.9
46273.6
31478.4
50561.5
39.6239
47.7882
66.0331
96.8903
143.45
209.808
46.1657
54.7699
73.7633
105.255
152.259
219.063
34.5166
32.0235
42.386
39.6528
60.3561
57.2808
92.0085
89.4296
140.554
140.83
211.051
217.517
300.816
433.451
641.814
989.488
1352.49
1652.06
311.898
440.497
615.98
837.148
1051.45
1197.41
105.756
154.188
192.356
218.544
231.851
127.367
185.312
230.735
261.744
277.438
175.65
254.766
316.241
357.879
378.843
257.055
371.304
459.072
517.941
547.395
379.266
544.898
670.311
753.466
794.792
552.1
787.498
962.437
1076.94
1133.51
123.075
179.157
223.196
253.307
268.56
145.8
211.763
263.254
298.269
315.938
195.936
283.602
351.376
397.086
420.03
278.786
401.715
495.602
558.302
589.591
401.802
575.676
706.494
792.905
835.792
575.271
818.07
997.334
1114.39
1172.29
92.1616
134.492
167.971
191.007
202.729
85.5129
124.841
156.008
177.485
188.419
113.037
164.65
205.266
233.078
247.178
105.768
154.143
192.294
218.463
231.737
160.664
233.335
290.038
328.568
347.999
152.521
221.653
275.728
312.541
331.116
244.291
353.34
437.447
494.017
522.351
237.519
343.771
425.906
481.235
508.956
371.87
534.907
658.748
740.99
781.858
372.673
536.26
660.643
743.259
784.284
555.686
793.345
970.307
1086.09
1143.17
572.742
817.739
1000.03
1119.04
1177.54
786.268
1110.09
1344.78
1496.42
1571.24
1121.38
1558.94
1864.96
2061.2
2159.3
1632.73
2213.28
2597.76
2848.44
2980.86
2448.8
3184.21
3630.83
3955.16
4155.55
3240.03
4030.19
4479.33
4880.52
5195.44
3863.04
4645.53
5068.09
5539.72
5967
813.605
1145.39
1384.52
1539.06
1615.64
1138.6
1581.21
1890.6
2089.55
2189.58
1572.74
2144.89
2529.86
2779.8
2910.51
2104.84
2807.06
3259.63
3564.98
3737.39
2603.01
3397.58
3892.81
4249.24
4471.71
2933.52
3774.67
4289.53
4682.6
4945.47
40.3783
50.1573
70.5383
104.377
155.021
226.632
46.991
57.3436
78.5059
112.783
163.27
234.087
35.195
32.6625
44.5832
41.7451
64.6742
61.4586
99.5741
96.974
152.968
153.705
230.822
240.394
323.238
460.55
670.457
1011.9
1365.24
1655.75
330.822
462.157
637.792
855.242
1063.02
1201.34
107.765
157.136
196.084
222.826
236.415
133.75
194.759
242.701
275.508
292.143
187.791
272.752
339.054
384.153
406.932
277.256
401.294
497.199
561.939
594.483
410.551
591.496
729.754
822.258
868.536
597.731
855.788
1049.96
1178.63
1242.78
125.284
182.411
227.319
258.049
273.62
152.74
222.047
276.298
313.29
331.993
208.726
302.574
375.476
424.875
449.755
299.113
431.932
534.077
602.757
637.2
431.588
620.101
763.261
858.691
906.363
616.034
879.163
1075.8
1205.71
1270.49
93.977
137.163
171.346
194.881
206.859
87.2236
127.357
159.185
181.129
192.302
118.949
173.387
216.318
245.779
260.74
111.393
162.448
202.794
230.524
244.611
172.29
250.537
311.834
353.65
374.799
163.762
238.273
296.774
336.748
356.975
264.692
383.6
475.888
538.35
569.78
257.854
373.921
464.197
525.385
556.184
405.426
584.864
722.448
814.684
860.843
407.484
588.123
726.834
819.896
866.46
609.276
873.461
1072.89
1205.2
1271.12
634.74
910.408
1118.7
1256.89
1325.67
847.388
1202.27
1463.83
1635.63
1721.37
1196
1673.15
2014.52
2238.05
2351.26
1713.26
2340.04
2767.96
3053.85
3206.43
2515.44
3295.86
3788.02
4152.55
4377.43
3281.49
4105.04
4589.51
5024.77
5363.11
3876.31
4671.25
5107.46
5593.37
6031.18
865.2
1223.31
1485.39
1657.2
1743.15
1198.14
1672.25
2009.84
2230.57
2342.63
1633.55
2239.7
2656.28
2931.51
3076.56
2156.48
2890
3373.03
3703.93
3891.4
2636.98
3453.88
3971.65
4347.9
4582.68
2945.25
3794.49
4317.74
4718.45
4986.2
3884.75
2593.16
463.725
326.913
421.687
340.33
449.932
3539.41
3326.38
2165.1
2631.04
1087.66
1584.87
867.346
1019.8
801.078
3183.73
1699.34
962.907
873.004
1139.92
953.379
690.618
690.174
634.299
550.292
758.999
701.961
3384.43
2009.36
2150.04
1387.65
1108.66
1674.45
717.332
528.901
822.422
7955.38
7807.11
7483.89
8610.29
14018.4
5640.37
6060.78
6180.98
6872.47
7788.32
1206.73
1693.04
2042.87
2271.9
2387.25
857.917
1219.19
1486.45
1662.15
1749.66
1105.49
1568.29
1908.65
2131.3
2242.02
894.26
1273.17
1554.4
1739.2
1831.04
1175.27
1658.38
2009.89
2239.59
2354.35
7894.09
8539.04
8421.87
9437.42
14850.6
7455.23
8142.72
8265.17
9189.17
11304.3
5032.5
5915.07
6320.34
6944.07
7638.02
6280
7276.5
7486.29
8155.83
9345.11
2724.06
3607.15
4172.31
4575.86
4827.58
3832.61
4794.27
5328.59
5813.95
6224.99
2212.95
3014.66
3557.15
3919.34
4117.83
2573.88
3448.93
4021.12
4414.75
4645.54
2056.29
2826.81
3357.14
3706.02
3890.67
7115.82
7747.59
7667.24
8633.91
13657.2
4051.96
4957.14
5436.13
5963.74
6440.01
2431.48
3261.45
3807.76
4186.43
4407.27
2215
2992.79
3512.8
3868.46
4069.04
2826.54
3686.96
4225.16
4637.3
4910.46
2400.76
3201.49
3719.88
4085.36
4296.54
1767.87
2418.36
2862.27
3158.63
3315.07
1774.24
2444.15
2908.02
3214.12
3373.97
1646
2299.79
2764.9
3067.69
3221.18
1432.91
2012.44
2429.54
2701.32
2837.86
1950.08
2684.86
3193.05
3528.06
3704.75
1807.6
2497.1
2977.44
3293.4
3458.06
7230.9
7459.06
7252.78
8284.38
13283.1
4567.15
5237.75
5548.94
6123.04
6767.66
5320.99
6312.46
6478.28
7257.76
8194.78
3373.66
4232.7
4707.94
5158.52
5472.17
2759.32
3600.16
4113.47
4505.85
4742.35
4053.53
4961.08
5383.58
5920.03
6287.91
1836.84
2514.74
2978.26
3286.95
3450.3
1375.14
1927.04
2322.92
2581.63
2712.18
2092.79
2838.92
3340.57
3680.29
3866.92
5224.63
4948.24
4521.29
3934.23
2996.49
1202.91
21013
22312.8
23447.5
24274.5
22458.8
22405.7
22381.6
22647.3
18792.7
22737.5
21194.5
22559.6
28335.7
19286.4
31675.9
19534.9
20898.1
21785.9
22149.1
21329.7
22401.3
21184.5
22164.5
19405.2
30153.8
21814.7
29160
29429.3
23733.2
36700.6
17915.4
19082.1
19450.6
19389.1
19879
21591.5
19417.7
21126.7
21811.6
28704.9
24442.5
28201.4
30475.5
26665.9
34820.1
16357.3
17406.7
17171.3
16887.6
18535.1
20848.2
17534.1
19829.8
19595.2
26028.3
21772.5
24637.1
26406.5
23164.5
30752.7
14869.2
15918.5
15402.2
15067.8
17305
19950.1
15781.7
17928
17115.9
20742
19261
19233.2
22525.4
18963
24016.8
13533.4
14535.4
14043.2
13710
15571.8
17545.1
14407.3
16141
14463.8
16267.4
16437.6
15556.6
19294.6
15388.4
20248.7
22912.1
22886.4
24232.7
25489.8
23272.1
23711.6
23007.7
23588.1
19240.1
12075.2
20312.8
11888.7
20300.1
16565.1
17078.9
21585.6
21888.1
22223.5
22906.6
22308.9
22856.1
21499.9
22274
16702.1
11769.1
17409.2
11485.5
17133.7
15265.1
15448.5
18458.8
18800.3
19414.6
19576.8
19382.4
19849.4
19258.2
20421.5
14881.6
11934.6
15672.9
11407.2
16043.1
13386.8
15466.7
15337.3
15812.2
16704
16565.2
16549.7
16995.6
17087.4
18305.7
12428
11981.5
13229.6
11324.7
13671.4
11500
15254.3
13233.5
13806.9
14722.2
14506.1
14624.8
15512.8
15123.4
16170.3
11010.5
12412.2
12102.3
12379.7
13095.3
12080.5
16247.4
11544.5
12185
13269.9
13025.8
13442
14762.5
13675.7
14939.5
10429
13031.6
11855
13591.7
13286.3
12424.5
17477.3
13842.8
7463.68
24486.4
16074.1
23645.2
20198.7
34471.8
43096.2
52646.9
67156
28068.7
24769.8
17257.1
11926.3
11068.3
6166.84
23054.9
20137.5
21025.6
20427.6
26375.9
24790.6
30828.4
26036.7
8022.69
5505.03
4168.42
2912.15
11827.3
7478.25
6599.9
4293.73
24208.8
25279.2
21271.6
16631.3
16904
13534.6
14534.4
13954.2
19198.1
19018.9
39900.2
44129.1
28057.7
29892.8
21120.6
16655.4
21120.4
14747.1
8993.75
7842.23
6843.59
10944
3409.51
4841.3
9202.31
14750
5860.68
8321.39
9255.41
17521
7146.02
12231.9
2176.73
8131.27
339.936
5787.39
19016.4
23019.1
20435.6
23061.6
23792.6
23969
24748.9
23737.7
18667.4
22657.6
18305.6
22182.6
20693.5
23060.2
20414.9
23015.9
25221.1
23619.4
25400.6
23559.9
17655.6
22780.2
16143.9
22739.5
20213.8
22363.9
25435.4
36913.3
21258.6
26274.5
25392.1
41022.4
19082.6
19612.8
25228.6
34712.9
18339.7
17935
25178.2
33672.7
5697.9
7449.28
15663.2
26597.9
6805.05
7803.26
19362.8
29587.3
7903.56
8292.71
23321.2
32548
26470.4
28015.5
23404.9
22277.3
32299.9
28384.2
25393.1
23226
20309.4
37309.9
25971.5
24678.6
21519.5
23522.9
47376.6
1927.22
2554.6
5507.68
11944.3
2743.81
3894.95
7185.85
13628.2
4016.41
3870.89
9385.32
15648.6
27152.8
26128.8
23149.3
21321.2
20465.4
17402.5
15347.2
13128.5
12834.2
19673.6
24091.8
21036
22848.8
20725.6
19959
17808
18043.9
15432.4
15033.9
20985.1
23889.1
25186
24906.6
27135.7
23455.2
21405.7
24016.4
22805.7
22375.8
22436.7
21983.5
21596.5
25407.1
27840
25304.3
27660.7
24460.5
23855.6
24280.8
23768.5
22154
22245.1
22487.3
22459
19832.8
19431.1
13903.5
16680.7
20059.2
19147.7
14464.4
17556
19217.8
19092.3
13667.5
16559.3
19373.6
18864.9
13501.2
16109.3
2051.34
1569.4
1100.21
1071.5
858.771
844.372
3210.41
2067.17
1510.69
2582.02
2189.33
1782.44
3223.45
2814.02
2825.85
4662.49
3788.23
3282.78
23529.1
19408.1
16826.3
20116.8
17606.6
15842.3
14046.9
12596.6
11769.1
10506.9
9285.95
8612.52
7630.78
5138.56
3889.84
18631
15921.9
14181.3
19109.1
16507.1
15014.9
14589.9
11976.2
10621.5
10924
8902.02
7939.09
7769.38
5215.57
3962.01
29872
30527.6
32115.5
29102.7
29611.6
29116.3
35742.3
30260.8
18565.5
20110.4
18572.7
18131
24939.7
21456.1
24604.9
19070.4
27064.7
27937.5
23011.7
25507
29563.4
26337.1
30517.9
31876
32750
35352.8
26053.5
26865.7
22557.1
22329.5
25558.5
24776.2
16629.7
9484.69
15689.1
10492
16203
9318.84
15182.6
10186.4
14831.7
8606.11
14153.7
9672.63
13953.2
10037.5
13423.4
10007.7
22972
17604.1
22810.7
17971
25950.8
22753.5
26411
22682.5
20845.3
13894.9
21380.7
13255.7
23462.6
18189.9
24220.6
18235.9
27309.9
22740.8
27943.6
22754.9
20442.2
14178
20373.1
14228.7
12209.8
8387.84
10446.8
6846.75
11139.5
7493.82
9664.13
6268.93
12562.5
8886.37
10807.9
7173.57
12670.9
9192.49
10909.3
7352.48
2673.93
1428.67
5075.58
3017.73
2763.79
1638.03
5154.06
3304.44
2968.26
2138.1
5089.82
3726.48
12879.6
22114.9
8356.65
7602.48
5649.04
22506.3
14071.6
7758.48
6913.69
4451.24
21792.1
15406.1
11128.4
8127.31
5368.25
952.358
830.134
2129.42
1876.68
1188.83
881.186
2527.63
2191.42
1652.16
1322.48
2992.14
2598.9
22503.7
20543
13856.7
11947.2
8464.8
7548.47
6450.39
5672.49
4074.58
3562.23
19626.4
16128.6
13887.9
11268.6
10140.7
8565.4
7153.03
6265.35
4897.39
4924.59
13277.5
9839.91
13559.8
9363.66
17498
12433
18004.9
12426.2
10739.4
7975.97
10553.3
8435.53
14154.6
9006.69
14353.8
9173.8
19077
12903.1
19131.3
13082.6
10877.2
7556.18
11103.3
7909.36
7633.32
6346.07
5362.43
6287.66
7688.82
6590.16
5436.72
6147.78
7625.63
6203.04
5247.89
6551.75
8028.75
6303.99
5449.95
6494.41
1470.07
1104.11
826.499
5265.73
2509.53
1854.3
1398.82
1218.97
987.888
5658.53
2988.04
2313.53
1775.06
1741.49
1654.39
6107.11
3732.9
3120.09
17036.9
14157.7
12408
10197.8
8688.75
7839.74
6953.55
6026.45
5550.81
5712.17
4890.01
4489.06
7210.37
4937.49
4195.11
12669.8
10364.4
8988.26
8988.91
7397.47
6523.6
7410.87
6014.28
5181.51
6615.27
5342.29
4675.27
9426.66
6163.78
5300.05
5023.44
2752.97
1653.15
1095.11
5577.14
2946.36
1714.63
1130.39
4883.27
2715.89
1651.9
1106.65
5532.47
2953.16
1742.8
1155.94
4636.45
2668.06
1693.78
1122.91
5369.7
2976.89
1818.34
1183.82
5597.96
3077.1
1791.88
1189.32
5720.69
3178.58
1829.05
1203.9
4898.43
2812.91
1767.97
1155.81
4140.26
2543.93
1676.22
1067.15
4332.26
2585.22
1708.61
1092.96
3793.55
2392.33
1617.49
1023.98
5230.32
2974.89
1803.15
1183.17
4359.18
2661.23
1715.26
1088.3
5411.89
3088.35
1843.45
1200.42
4483.95
2747.7
1757.21
1106
3906.65
2430.11
1569.46
1038.82
2817.77
2063.2
1461.87
950.616
3805.07
2399.83
1573.99
1041.46
2814.33
2062.98
1464.01
954.401
3655.46
2358.91
1595.1
1046.45
2882.36
2094.42
1477.45
965.546
3519.73
2299.14
1584.99
1041.9
2922.17
2111.88
1515.44
977.138
3351.53
2241.46
1538.68
980.513
1762.58
1736.92
1203.05
368.39
672.121
1569.17
1088.17
341.753
1892.46
1786.19
1226.44
386.656
847.419
1625.55
1107.5
348.551
2098
1861.56
1246.3
384.786
1118.62
1716.56
1129.06
351.493
2410.43
1961.82
1288.85
411.362
1470.67
1836.64
1169.17
366.302
2880.34
2102.67
1359.64
460.727
1907.7
1962.54
1209.18
378.578
3250.08
2279.95
1403.43
441.808
2020.95
2128.4
1292.72
396.207
3172.19
2201.7
1372.09
441.821
2021.36
2063.42
1248.81
385.841
3266.98
2334.68
1417.13
419.043
1987.22
2181.75
1318.3
395.415
3256.32
2394.27
1457.33
426.763
2098.5
2242.95
1353.43
403.274
745.625
458.931
264.973
134.658
40.9292
754.536
461.005
265.597
134.878
40.9861
759.164
463.046
266.672
135.351
41.1155
767.933
465.991
267.801
135.802
41.2383
765.02
466.917
268.451
136.09
41.3144
770.936
472.635
271.024
137.182
41.6187
798.766
482.843
275.8
139.259
42.1982
811.344
491.757
280.389
141.315
42.7781
788.243
476.963
272.885
137.96
41.8303
791.627
477.627
273.045
138.001
41.8369
766.894
471.232
270.383
136.89
41.5302
782.245
474.236
271.539
137.352
41.654
801.099
483.074
275.807
139.245
42.1916
801.357
483.32
275.846
139.243
42.188
810.797
492.351
280.755
141.484
42.8261
812.051
492.19
280.632
141.425
42.8094
732.085
456.214
264.224
134.405
40.865
726.505
454.571
263.736
134.24
40.8237
739.919
459.413
265.507
134.912
40.9985
734.346
457.577
264.885
134.681
40.9388
750.073
463.388
267.099
135.539
41.1626
749.4
461.742
266.411
135.264
41.089
764.969
468.048
268.944
136.273
41.3557
766.648
466.293
268.148
135.938
41.2621
772.872
471.36
270.322
136.837
41.5087
11809.6
18505.4
12308.6
18814.3
13068.2
19237.3
13973.4
20223.3
14825.8
22004.3
12935.2
15912.6
13578.3
17529.4
12707.3
15493.4
12499.1
15356.3
9630.33
1733.26
385.377
87.6334
15.5952
11482.8
3198.2
786.761
180.438
31.8244
9764.57
1700.55
371.371
83.7019
14.8143
11604.2
3188.68
774.608
175.423
30.8423
9990.99
1679.05
358.188
79.7735
14.0371
11836.7
3188.46
761.716
170.684
29.8245
10238
1641.14
341.84
75.502
13.2604
12130.1
3183.24
749.788
167.022
29.1299
10340.9
1594.58
330.52