/*--------------------------------*- C++ -*----------------------------------*\
| =========                 |                                                 |
| \\      /  F ield         | OpenFOAM: The Open Source CFD Toolbox           |
|  \\    /   O peration     | Version:  2412                                  |
|   \\  /    A nd           | Website:  www.openfoam.com                      |
|    \\/     M anipulation  |                                                 |
\*---------------------------------------------------------------------------*/
FoamFile
{
    version     2.0;
    format      ascii;
    arch        "LSB;label=32;scalar=64";
    class       volScalarField;
    location    "1.1";
    object      gradTz;
}
// * * * * * * * * * * * * * * * * * * * * * * * * * * * * * * * * * * * * * //

dimensions      [0 -1 0 1 0 0 0];

internalField   nonuniform List<scalar> 
5712
(
8316.24
25187.4
6337.26
27470.7
3449.63
28928.7
5800.04
45360.3
9438.9
56843.8
9737.73
40619.9
10437.8
36232.7
10315.5
31246.4
4804.17
2732.69
14582.4
7072.58
4464.79
2098.37
15538.2
6310.99
6436.22
4875.29
18945.5
14165.1
4315.23
3514.29
19039.2
14736.5
9764.67
3597.16
7603.75
2884.14
3541.76
9245.13
44821.3
13609.1
13560.5
6091.16
53848.6
16731.2
12418.7
5609.89
30090.8
9984.89
15391.1
6916.99
24849.1
7857.8
6768.79
3641.06
10723.4
4422.38
6220.08
3815.51
11215.9
4335.44
8120.1
5129.26
7167.85
3106.98
12191.9
4477.6
4750.62
1781.66
15383.2
11940.5
9073.51
8349.79
16190.2
14315.4
8645.57
9263.4
8766.55
7831.34
12079.4
10645.4
6543.86
5743.39
3604.5
3123.26
6228.85
6236.54
3343
3362.29
6481.02
5285.3
3618.72
2616.94
7734.22
4406.91
8017.47
8619.36
10791.3
8162.29
11853.5
15083.8
5424.63
2378.64
4995.79
5057.93
2947.98
1061.31
2198.52
1906.38
8368.36
16355.3
5915.24
18380.9
9066.87
16428.5
7014.59
19398.1
11565.2
16009.7
9553.76
19440.7
11553.8
12614.5
9966.33
10223.4
11831
8336.22
10188.9
14645
17541.6
25230.7
11408
10168
10326.8
13054.5
19972.9
20412.7
19852.7
23825.1
24225.7
19741.2
19806.3
23727.1
23824
17894.6
18626.1
22478.2
22887.4
10457.1
11170.4
11258.6
12022.3
13931.7
14372.1
16735.8
16688.4
21515
22096.2
9440.95
10590.5
11333.3
12730.9
13222
15014.3
15684.2
17899.1
20869.8
23418
11130.7
7628.59
8901.55
8708.55
11887.8
13013.4
9592
12215.5
8541.57
8418.64
11010.8
7981.19
3902.37
6209.07
1458.59
2219.79
5873
8925.34
2131.9
3212.49
3504.92
5687.87
1228.79
2011.38
8392.85
7072.03
8783.39
5618.46
11966.3
8670.2
13865.4
9496.29
4066.62
4460.9
4998.66
2929.48
2907.92
3066.58
3226.04
2424.33
17474.4
11631
3878.66
18918.7
12046.6
4191.42
17078.4
11325
3936.6
18722.8
11964.4
4101.64
16103.1
10537.8
3557.32
18168.7
11691.7
4046.69
8315.99
4988.18
1428.17
10614.1
7295.68
2398.5
12729.4
8928.67
3032.33
14449.9
9563.4
3180.97
17353.8
11145.6
3944.05
8854.29
5066.76
1731
9776.84
6494.05
2331.87
11486.4
7710.24
2720.36
13718.6
8923.69
3111.48
16529.3
9902.87
3488
-555.218
954.8
317.559
2599.49
1948.91
1922.11
4982.16
4311.06
603.474
920.102
638.667
964.086
316.231
875.473
588.48
1287.21
1664.33
1058
3650.16
2647.28
1609.13
2543.35
2871.98
420.872
6316.5
1710.35
-4794.34
-1281.25
312.915
202.887
-486.975
-490.004
9758.25
3918.47
2556.34
1392.68
9588.24
3933.9
2756.94
1616.07
9162.52
4201.2
3537.12
2253.49
2633.89
1510.04
1132.67
983.187
13440.3
11662
5741.26
7364.53
15949.3
14842.5
7667.46
9167.11
4874.91
5909.11
10790.3
8748.04
3488.44
4667.91
1775.37
2508.96
4979.54
5831.62
2641.88
3122.57
2568.93
3771.94
1204.4
2122.75
4084.69
2582.99
4597.72
2701.56
7297.23
3814.01
6276.29
3586.24
2236.76
1666.91
3094.48
1783.71
1028.73
916.388
1833.65
1026.96
11093.5
6693.3
4941.91
4685.38
10994.2
6721.13
4830.64
4571.5
11108.2
6560.38
4839.93
4240.23
13502.7
13853.6
11887.2
8590.03
4341.03
8377.76
9395.34
9264.89
8087.59
4916.39
12015
10072.4
7803.43
5826.41
3283.25
5070.65
4502.46
4702.19
5131.82
5157.95
4496.47
4630.04
5083.55
5118.34
4500.27
4458.62
4958.07
9392.29
8931.26
8062.89
6857.67
5525.16
5340.44
4806.65
4724.78
3923.63
4766.53
7028.05
7958.12
5479.17
6143.3
4421.38
4918.82
3829.19
4371.1
2922.44
4411.19
4942.1
3978.87
3372.75
2011.96
7947.7
6002.33
6362.86
4153.32
2309.23
1423.48
3450.82
3078.51
4109.64
1903.6
1738.49
958.368
5692.16
3343.41
2152.02
1481.63
3083.41
1347.73
1430
701.553
1628.65
1879.98
1733.56
2834.2
2524.07
2938.36
2056.92
3640.58
2014.28
1366.11
1266.93
2053.18
771.941
251.513
83.6337
390.97
3410.56
1582.11
459.484
3423.53
939.728
253.77
3460.77
1723.54
542.16
3459.53
992.676
281.889
3395.43
1735.66
472.095
3380.74
966.979
236.278
6196.73
3543.48
1002.26
4665.64
2639.44
776.678
4006.41
2140.5
643.852
3435.67
1725.24
447.602
3304.98
907.426
187.356
6708.68
3658.57
1191.02
5258.64
2920.76
978.728
4249.49
2296.93
763.363
3572.96
1602.77
471.183
3554.86
975.988
320.024
1374.17
483.922
233.198
57.159
554.54
203.417
103.668
31.9389
1398.41
507.248
267.517
83.4444
645.616
257.08
158.065
68.9548
1567.08
589.908
337.14
123.299
1038.6
466.509
226.009
92.1497
684.852
369.667
119.692
28.2133
648.55
385.202
167.813
74.3307
1227.04
519.663
247.501
51.1273
1141.66
471.156
271.894
30.7668
1597.69
615.842
361.09
109.073
1396.8
532.308
339.023
31.4346
870.221
413.453
181.117
38.0905
841.838
383.24
214.792
47.9681
582.182
320.134
162.64
77.7507
535.937
285.697
167.609
79.1141
1727.91
594.672
303.106
47.8714
1734.76
576.785
357.236
1.26602
1706.75
596.114
322.187
58.4097
1661.66
554.451
353.877
1.98965
1695.45
602.429
365.971
81.7402
1485.97
498.233
345.831
17.6309
1551.8
564.235
380.648
127.549
1626.91
551.828
430.033
36.5024
1180.04
430.012
296.076
64.7029
1370.49
418.09
274.744
-11.8759
524.146
147.536
85.8122
5.24898
1360.4
422.06
276.379
-6.73671
538.094
154.832
91.6079
10.2221
1290.32
407.833
277.872
3.32443
526.008
155.535
97.4211
16.6723
1094.48
346.867
261.794
16.3431
467.941
137.152
101.693
24.7123
959.066
317.477
241.627
34.4805
428.736
135.949
105.501
33.8078
707.53
276.938
160.255
27.1982
373.589
164.569
85.7819
36.9968
777.709
270.213
191.001
30.1909
386.441
143.97
95.5103
37.6444
592.311
269.787
143.211
36.0104
347.79
175.391
82.7754
41.3871
422.018
232.392
129.819
63.537
292.634
171.021
90.3024
54.6637
14.6445
4.54381
1.76431
0.794523
0.457853
6.62644
2.18328
0.879806
0.406333
0.239437
20.0648
7.48102
3.20674
1.50342
0.875527
14.9577
6.48815
2.91488
1.38594
0.810156
34.7456
15.2092
6.91823
3.33071
1.96395
55.662
26.1188
12.2001
5.91282
3.48422
53.9686
26.6264
12.7424
6.25823
3.72282
52.7872
26.4499
12.7696
6.30955
3.77616
40.8962
19.2333
9.08457
4.44311
2.6209
31.2761
15.0229
7.15862
3.52511
2.088
43.6555
19.7184
9.13395
4.44678
2.62913
30.6993
13.6654
6.34409
3.10003
1.82699
42.5171
21.6302
10.4756
5.18141
3.0872
38.2466
19.6371
9.5492
4.73435
2.82191
47.2629
24.1059
11.6935
5.78885
3.46359
44.9003
23.1377
11.2638
5.58143
3.33362
13.1141
3.99454
1.51767
0.676889
0.389016
5.01348
1.59323
0.613975
0.279372
0.165045
16.002
5.54508
2.30494
1.07313
0.629622
5.39753
1.91116
0.790394
0.370161
0.222159
18.2985
7.51746
3.34665
1.61007
0.962452
9.14489
3.77447
1.64582
0.77186
0.45968
37.4898
16.6974
7.63549
3.71977
2.22163
18.9633
8.3353
3.76833
1.82396
1.09221
40.6707
17.5853
7.99691
3.86212
2.27611
3489.76
6075.89
3330.85
5916.82
3161.53
5536.87
3129.5
5352.4
3322.47
5947.9
2002.92
2712.65
2676.94
4052.28
1348.09
1635.19
526.743
645.709
10321.4
2511.2
582.553
130.722
33.2741
2773.2
741.929
200.281
45.3975
10.3096
10169.4
2441.19
562.478
125.372
31.7792
2871.06
840.111
208.435
48.8717
12.4261
9675.81
2284.92
521.3
115.412
29.1184
2787.73
810.526
199.388
46.2594
11.6509
8903.44
2063.06
466.921
103.102
26.0252
2665.74
756.072
182.273
41.6211
10.3422
7628.52
1743.03
394.557
87.5613
22.2814
2441.1
661.591
156.056
35.2186
8.68011
4137.28
1011.99
237.843
54.1467
14.0579
1252.56
320.844
70.9183
14.8976
3.46868
5854.93
1390.53
320.591
71.9991
18.5178
1731.76
454.156
104.973
23.3961
5.73438
2570.97
645.416
154.048
35.4482
9.265
804.093
211.387
46.2743
9.33695
2.08883
943.038
239.977
57.8199
13.4116
3.52685
378.659
92.8128
19.5298
5.19307
0.827876
-1905.74
311.145
4500.49
-4079.48
1027.48
1096.58
2762.57
3381.08
2302.98
3723.7
3128.27
4728.89
3052.53
3976.79
1450.84
2106.53
1552.01
1808.81
1072.53
1111.53
2831.67
2099.24
20.7639
-457.328
-506.217
-702.1
-211.81
12970.5
4206.14
4778.3
3915.28
712.264
429.691
3558.24
-397.628
51.1241
-295.235
-58.6844
6339.51
3503.03
1951.45
1088.5
3369.28
1790.37
464.753
720.829
-552.984
-459.338
1120.41
1015.83
9455.87
4450.2
4723.24
2666.79
3306.54
3570.3
446.988
-434.061
722.59
1892.51
1576.31
1294.74
1110.19
764.836
1624.98
1262.25
976.088
684.695
259.149
13.6803
8.45289
6.37104
5.1915
2.13727
-405.166
-335.366
-249.017
-152.829
-51.4617
-449.94
-373.501
-277.582
-170.21
-57.3028
-623.845
-517.956
-385.331
-236.626
-79.7195
-185.876
-151.526
-109.665
-65.3535
-21.6478
9228.53
7885.53
6221.04
5205.85
4239.16
3559.63
2691.78
2189.25
1642.84
677.157
3784.96
2883.64
2228.31
1596.97
665.692
2963.39
2201.8
1679.06
1156.72
418.008
564.181
393.029
321.695
223.66
97.4149
410.496
366.494
294.653
195.321
68.7609
2892.83
2235.25
1651.32
1077.96
390.665
-188.636
-45.3503
12.6281
24.3631
9.15061
59.1923
65.4752
64.7731
50.4712
19.6387
-177.601
-81.8969
-25.0456
-0.896556
1.73264
-65.0273
-61.0794
-45.5946
-25.7012
-7.70298
4195
3831.55
3089.66
2731.65
2401.8
2812.86
2133.96
1651.87
1159.04
425.943
1702.44
1399.05
1062.46
683.946
238.903
933.316
754.633
566.23
361.336
125.41
2782.13
2168.53
1591.88
1012.91
355.401
1563.44
1271.96
951.034
595.781
196.456
397.313
320.676
241.078
153.996
52.9343
631.429
519.272
389.87
244.836
83.3041
-474.961
-378.926
-270.655
-160.675
-53.1341
-403.168
-328.779
-238.539
-142.633
-47.2861
968.798
787.76
586.565
368.066
126.582
879.327
715.24
532.387
333.451
114.223
6081.41
4665.73
3836.03
3352.36
2472.34
3398.27
2597.73
1981.58
1381.46
540.678
3621.2
2892.33
2274.67
1721.24
678.636
2089.04
1663.39
1270.81
868.042
359.784
2785.88
2213.04
1639.22
1038.48
357.902
2915.39
2063.91
1572.25
1073.75
236.866
388.085
317.565
240.939
154.228
52.7993
-385.444
-318.394
-233.665
-140.879
-46.9199
631.974
518.532
393.635
251.397
85.047
-34144.3
-52743.7
-25991
-44750.6
-27253.9
-61957.3
-35685.1
-75404.4
-19565.6
-13414.8
-21363.5
-11802.6
-18092.9
-12099.9
-21382.6
-10480.8
-28550.4
-20367.8
-39002.8
-28457.8
-22607.6
-16809
-33501.3
-25371.9
-17137.4
-17764.5
-12202.2
-12162.6
-15011.4
-15482.5
-49629
-15257.6
-16192
-7759
-57859.5
-18456.5
-14668
-7200.93
-35082
-11549.7
-17944.3
-8405.83
-29740.3
-9025.78
-13966
-5976.49
-18862.8
-7130.95
-12222.7
-5503.46
-17410.3
-6261.66
-12757.5
-6248.22
-10720.6
-4148.01
-14864.9
-5326.81
-5801.18
-2163.73
-12565.8
-9406.57
-10216.8
-7842.21
-10770.9
-9352.79
-9010.79
-7955.56
-10290.1
-7795.77
-12067.8
-9801.02
-7625.26
-5759.7
-4509.12
-3313.34
-6880.49
-5839.55
-3996.7
-3276.96
-7706.01
-5499.89
-4563.89
-2914
-9228.69
-4911.1
-8108.48
-8552.2
-12130.3
-8541.11
-11584.9
-14649.7
-6494.63
-2753.11
-5204.82
-5107.49
-3724.1
-1343.8
-2445.33
-1988.08
-12463
-16014.5
-7211.59
-18336.9
-12394.1
-15617.1
-7917.23
-18970.8
-13740.9
-15060.3
-9878.49
-18559.2
-7814.51
-4955.23
-10045.8
-11681.4
-11963.4
-6870.38
-9724.13
-14564.6
-16916.4
-24051.5
-6444.25
-7508.4
-9144.48
-12291.6
-19100.9
-16983.1
-13941.5
-21364.2
-17738
-16452.5
-14248.9
-21370.8
-17866.2
-15031.1
-13335.8
-20180.3
-17721.7
-9662.49
-8984.38
-10111.9
-9139.66
-11693.4
-10538.3
-13654.5
-12210.3
-19272.2
-17734.6
-7861.67
-8572.91
-9117.55
-9151.02
-10717.1
-10737.3
-13198.9
-13367.4
-18981.4
-18879.7
-9392.5
-6404.89
-7921.29
-7816.93
-9511.79
-11399
-8118.01
-10890.8
-7944.89
-7780.74
-9842.89
-6963.71
-3374.45
-5636.14
-1121.43
-1825.54
-4990.73
-8083.17
-1547.68
-2627.3
-3202.7
-5301.84
-1049.57
-1751.02
-8015.23
-6604.5
-8482.6
-5248.79
-11132.6
-7768.42
-13212.8
-8614.42
-3874.95
-4201.16
-4833.34
-2736.09
-2786.56
-2888.34
-3119
-2293.66
-10154
-3913.67
-11059.4
-3852.03
-10385.1
-3912.88
-11587.1
-4272.75
-10015.4
-3702.75
-12453
-4911.43
-5218.07
-1345.44
-6428.93
-2321.35
-7627.2
-2967.06
-9286.91
-3506.45
-12408.7
-4816.69
-6092.37
-1204.83
-5845.37
-2043.39
-6898.14
-2571.96
-8883.09
-3299.41
-11396.5
-3798.69
-7342.61
-7050.99
-5133.49
-4787.1
-11778
-9387.26
-9331.47
-7352.81
-5919.35
-5161.45
-2325.37
-1816.47
-5592.9
-5130.25
-2094.49
-1897.76
-3229.7
-6327.58
-4397.99
-7578.83
-5089.82
-2653.7
-3982.22
-1360.53
-7932.66
-3073
3603.38
613.117
-748.515
-580.527
460.486
594.056
-2630.56
-1222.04
-1081.89
-378.374
-2690.66
-1383.1
-1259.38
-422.635
-3009.83
-1659.66
-1638.86
-429.119
-1587.31
-81.0067
-297.126
476.048
-5836.48
-5685.43
-4449.42
-4888.49
-8631.59
-8314.17
-7095.87
-7026.68
-2938.73
-3492.9
-4429.72
-4137.78
-3158.09
-3418.44
-1696.93
-1705.33
-5126.41
-4934.47
-2962.13
-2661.28
-1718.28
-2340.73
-685.686
-1070.29
-1822.65
-925.473
-2532.65
-1240.84
-2755.12
-1641.02
-3002.03
-1749.62
-968.806
-372.61
-1685.64
-591.446
-115.895
225.765
-682.125
44.4848
-2773.62
-2524
-1965.55
-2845.52
-2891.01
-2715.39
-2068.59
-2921.83
-3454.52
-2885.51
-2347.54
-2883.55
-2817.88
-3506.24
-3079.49
-2656.76
-1925.22
-5239.4
-4052.88
-3426.3
-3637.44
-3150.31
-5455.67
-3981.38
-3086.47
-2503.95
-1508.15
-3139.24
-3782.92
-4720.07
-8007.69
-3073.34
-3272.85
-4415.47
-7412.34
-3209.35
-3722.33
-4061.86
-6602.91
-8405.61
-7219.4
-6382.32
-5476.11
-4093.47
-4334.63
-3743.09
-4321.47
-3490.86
-5898.19
-5703.29
-6486.78
-3945.15
-4893.29
-2912.3
-3883.84
-2641.8
-3744.5
-1906.18
-4557.79
-2650.7
-2699.01
-1685.6
-785.737
-5386.56
-4611.19
-4628.3
-2871.42
-806.963
-333.474
-1611.25
-2006.39
-2885.84
-1007.46
-795.657
-253.162
-4529.25
-2424.5
-1336.88
-790.305
-1921.02
-544.857
-454.881
-36.638
-451.549
-1092.86
-924.225
-2463.08
-1183.71
-2230.84
-1268.82
-3517.85
-1025
-725.105
-434.39
-1598.21
149.387
346.572
725.077
98.9746
-3137.77
-1053.74
-5757.84
-758.912
-2780
-1192.26
-5417.27
-752.617
-2594.66
-812.278
-4408.47
-312.232
-4020.31
-967.606
-3213.68
-826.95
-3179.17
-978.978
-2593.32
-473.458
-3976.13
-284.12
-4675.85
-753.127
-3792.75
-652.869
-3358.96
-688.418
-2970.12
-325.768
-4043.6
-405.348
-538.053
-187.074
-115.515
3.9163
-180.378
-60.8814
-45.7713
-5.71526
-533.864
-172.652
-124.315
-3.98743
-114.661
-22.6451
-48.2336
-11.5524
-595.008
-174.963
-137.223
7.84602
-4.72122
67.1505
87.2597
113.997
334.776
220.211
234.18
183.942
526.546
332.573
252.394
150.654
-327.841
-51.1042
21.9481
121.269
-295.554
-18.2842
-25.5507
127.828
-666.22
-183.412
-134.486
60.4506
-519.493
-107.23
-130.663
121.598
-4.83226
86.8462
113.21
139.034
-48.4653
79.013
55.7072
122.458
281.802
208.285
161.557
116.449
227.777
180.612
116.547
101.656
-824.13
-280.434
-193.956
23.4219
-1064.45
-321.431
-303.664
70.9244
-810.376
-265.584
-202.986
21.2965
-1038.46
-308.307
-300.178
70.0699
-817.877
-250.689
-235.563
8.11812
-948.148
-274.414
-292.624
55.6464
-588.168
-144.952
-197.965
19.1171
-907.415
-238.188
-333.485
71.1564
-430.793
-88.4164
-126.277
102.268
-1011.72
-244.053
-248.582
67.134
-436.841
-88.9734
-72.4818
12.6138
-910.203
-215.815
-236.684
65.1612
-404.915
-80.8215
-71.8814
10.7372
-751.717
-164.387
-222.768
55.3542
-342.219
-62.4285
-68.6504
9.07878
-601.684
-122.036
-201.542
42.0173
-293.678
-50.9465
-69.9834
5.37684
-416.474
-71.7516
-149.041
43.6568
-172.268
-18.7914
-52.9056
9.70938
-190.054
7.72014
-2.06437
92.8334
57.4195
70.9885
41.8359
53.6867
-352.047
-58.8697
-85.4342
63.0756
-40.4883
25.6581
-8.68498
28.2666
8.62114
89.2741
61.0546
104.491
125.857
112.114
78.5071
69.0457
208.438
164.581
97.9412
87.985
195.807
145.49
88.8619
66.0647
4.45115
2.58922
1.28227
0.641083
0.387547
2.17905
1.24831
0.612283
0.301245
0.178018
10.5432
5.33246
2.56519
1.27369
0.772398
10.7825
5.09919
2.45642
1.22497
0.744587
26.2183
11.879
5.59205
2.74539
1.65397
45.9898
21.9273
10.4588
5.1726
3.13318
49.9759
23.888
11.343
5.5754
3.3518
53.5
25.6319
12.2472
6.03464
3.61955
36.8202
16.7571
7.82059
3.82459
2.31714
31.4326
13.302
6.08769
2.94923
1.78015
35.1933
15.4986
7.21198
3.51021
2.11377
24.5098
10.5962
4.88696
2.36404
1.43044
43.8458
20.2139
9.47181
4.62537
2.78081
41.49
18.5752
8.63779
4.20962
2.53556
49.2469
23.5832
11.2476
5.53393
3.31729
47.5339
22.8365
10.877
5.34641
3.20738
4.75439
2.17303
1.05075
0.523424
0.315927
2.3975
0.797649
0.364772
0.175751
0.101719
7.53854
3.57974
1.69993
0.836759
0.500047
3.24653
1.16069
0.524898
0.252266
0.144919
13.0564
5.37806
2.45717
1.18417
0.695939
6.52151
2.76393
1.31067
0.652995
0.385699
28.4369
11.8179
5.44923
2.62072
1.54959
13.2559
5.64351
2.64344
1.28045
0.752884
28.0392
12.7532
6.00454
2.93464
1.76949
-3558.33
-5460.86
-3419.27
-5363.8
-3196.62
-5029.64
-3073.21
-4836.82
-3094
-5252.27
-1838.56
-2498.9
-2483.98
-3682.45
-1206.81
-1497.06
-407.513
-543.339
-10445.9
-2524.45
-583.375
-130.628
-33.2193
-2772.14
-744.369
-200.706
-45.4064
-10.2995
-10230.8
-2444.04
-561.721
-125.051
-31.6887
-2877
-843.287
-208.757
-48.8538
-12.4096
-9628.75
-2271.24
-518.11
-114.747
-28.9741
-2785.69
-810.512
-199.08
-46.1377
-11.6172
-8762.42
-2035.47
-461.713
-102.15
-25.8357
-2633.82
-749.84
-180.949
-41.3465
-10.2845
-7455.28
-1711.79
-388.89
-86.5511
-22.0832
-2373.51
-649.776
-153.923
-34.8315
-8.60543
-4056.89
-994.622
-234.328
-53.4753
-13.9195
-1188.15
-307.611
-68.412
-14.4438
-3.38045
-5724.22
-1364.74
-315.702
-71.1069
-18.3403
-1658.88
-441.113
-102.656
-22.9872
-5.65685
-2522.41
-634.149
-151.611
-34.9586
-9.15958
-752.68
-199.077
-43.6659
-8.82622
-1.98218
-910.153
-231.892
-55.9629
-13.0203
-3.43879
-336.641
-81.6669
-16.9477
-4.6538
-0.709669
-4.6743
-2383.98
-6866.91
1088.64
-7743.4
-3427.69
-7601.21
-3554.55
-13064.8
-7129.35
-15226.9
-8283.2
-69.8754
-238.155
-368.755
-431.565
-373.64
-140.727
-114.241
-383.047
-587.76
-672.117
-561.656
-169.637
-52.0902
-47.9026
-164.644
-150.981
-210.575
-204.201
-137.152
-155.659
-67.0498
-116.316
-125.589
-122.428
491.704
1527.2
3009.8
2409.9
2167.26
965.945
612.162
1769.19
3021.1
3396.85
2907.4
1268.02
-62.8305
-52.9116
-39.9324
-24.8
-8.40533
-214.335
-180.715
-136.564
-84.9056
-28.7935
-331.737
-279.559
-211.157
-131.237
-44.4996
-387.937
-326.629
-246.493
-153.095
-51.8915
-335.74
-282.541
-213.082
-132.255
-44.8068
-127.848
-108.779
-82.646
-51.4262
-17.4149
-102.61
-86.2972
-65.0445
-40.3565
-13.6709
-344.35
-289.947
-218.825
-135.918
-46.0696
-528
-444.211
-334.998
-207.973
-70.4792
-602.978
-506.538
-381.492
-236.624
-80.1554
-503.166
-422.026
-317.404
-196.697
-66.6044
-153.026
-129.245
-97.7035
-60.6937
-20.5649
-46.8824
-39.5326
-29.8748
-18.5724
-6.2974
-43.1455
-36.4129
-27.5418
-17.1345
-5.8123
-148.284
-125.147
-94.6638
-58.8967
-19.9789
-136.029
-114.85
-86.91
-54.0899
-18.3515
-189.575
-159.928
-120.922
-75.2085
-25.5065
-183.839
-155.079
-117.249
-72.9211
-24.7311
-123.572
-104.368
-78.9925
-49.157
-16.6711
-140.019
-118.006
-89.1344
-55.3914
-18.7755
-60.6695
-51.4897
-39.0975
-24.3524
-8.25282
-104.383
-87.7244
-66.0609
-40.9469
-13.8574
-113.165
-95.453
-71.9533
-44.5206
-15.0282
-109.723
-92.0089
-69.0706
-42.6729
-14.411
432.458
356.127
264.444
163.093
55.2067
1335.72
1094.88
811.861
501.598
170.131
2595.17
2104.18
1558.5
970.681
331.89
2059.74
1683.03
1259.42
797.194
283.869
1861.17
1519.12
1134.8
714.232
246.018
855.023
710.823
535.39
335.152
113.65
539.3
444.737
330.4
203.671
68.9004
1552.32
1275.96
946.97
584.504
198.065
2631.24
2150.56
1593.92
986.81
335.713
2941.59
2398.37
1779.56
1107.05
379.477
2510.94
2043.86
1517.87
946.8
324.512
1103.91
905.911
677.717
424.69
145.691
111.348
282.974
419.553
489.933
441.241
228.505
175.706
448.279
657.563
741.934
623.229
217.551
81.5549
70.6856
195.549
175.933
241.599
230.723
162.298
176.754
97.1889
112.452
217.815
153.058
-380.838
-1371.87
-2737.19
-2067.62
-1776.14
-547.446
-574.68
-1714.6
-2895.28
-3172.69
-2580.88
-875.08
100.425
84.8999
64.3381
40.0917
13.6129
255.008
215.346
163.005
101.485
34.4446
377.844
318.845
241.177
150.073
50.92
440.964
371.858
281.094
174.827
59.3042
397.209
335.017
253.267
157.518
53.4293
207.608
176.798
134.68
84.117
28.5733
158.355
133.753
101.269
63.0626
21.4047
403.568
340.397
257.368
160.098
54.3133
591.4
498.279
376.351
233.94
79.335
666.466
560.758
423.026
262.74
89.0685
559.22
469.957
354.17
219.842
74.5095
196.6
166.429
126.166
78.5827
26.6722
73.5884
62.2481
47.1992
29.4239
9.99246
63.7908
53.9692
40.9282
25.5172
8.6659
176.313
149.001
112.868
70.3064
23.8661
158.656
134.106
101.605
63.2997
21.4892
217.722
183.9
139.231
86.6913
29.4194
207.907
175.583
132.913
82.7477
28.0801
146.395
123.819
93.8594
58.487
19.8513
159.184
134.359
101.649
63.2536
21.4571
88.0905
74.9286
57.0723
35.6656
12.1156
101.256
85.4538
64.6332
40.2048
13.6329
196.957
166.945
126.689
78.9379
26.7811
137.852
116.319
87.9308
54.66
18.5295
-332.191
-270.973
-199.581
-122.505
-41.4027
-1195.57
-976.239
-721.845
-445.493
-151.081
-2347.98
-1893.62
-1397.81
-870.196
-297.686
-1741.11
-1404
-1039.91
-656.077
-235.803
-1491.13
-1190.44
-871.637
-541.016
-184.945
-456.471
-353.853
-246.772
-143.036
-45.4309
-505.564
-416.344
-308.996
-190.394
-64.3977
-1503.57
-1235.33
-916.7
-565.948
-191.818
-2517.55
-2054.25
-1520.87
-941.358
-320.306
-2735.41
-2220.06
-1641.15
-1019.06
-349.367
-2207.46
-1778.32
-1308.98
-812.1
-277.778
-737.119
-583.15
-422.15
-258.815
-87.9199
-2236.01
-1584.02
289.494
711.677
772.012
1083.46
629.406
-10840.6
-2170.83
-3493.78
-1525.64
341.466
-3890.28
637.364
1919.11
554.878
-5395.13
-2430.43
-972.442
-570.182
-2987.63
-1081.05
-118.486
-206.376
1260.56
1106.45
-648.221
-540.574
-8755.36
-3961.16
-3941.85
-2095.88
-2878.08
-2655.53
132.064
1074.82
-117.561
-1269.12
-994.29
-790.536
-738.474
-612.459
-1121.33
-802.719
-595.817
-423.483
-163.878
268.544
232.798
178.725
111.409
37.7137
636.524
533.164
400.824
248.49
84.1484
692.097
580.833
436.951
270.803
91.7382
969.805
812.695
610.801
378.41
128.151
566.483
477.545
360.443
223.787
75.9249
-7476.45
-6604.77
-5399.21
-4914.47
-4605.4
-1525.55
-951.587
-840.204
-755.232
-311.417
-2606.62
-1890.36
-1472.65
-1124.46
-505.483
-1035.7
-695.512
-588.78
-468.472
-148.891
304.846
253.653
188.268
114.985
39.4105
-3157.12
-2449.69
-1825.68
-1205.26
-438.974
567.574
471.824
350.432
214.504
71.975
1641.24
1317.84
970.221
604.464
208.864
498.828
418.44
312.382
191.168
63.8594
-3344.5
-3110.03
-2552.06
-2453.3
-2470.26
-1801.01
-1242.34
-949.473
-705.156
-266.562
-789.113
-605.975
-445.272
-288.694
-101.277
-456.437
-343.522
-248.72
-160.155
-56.2286
-2452.82
-1902.38
-1402.62
-904.885
-321.771
-904.356
-696.028
-499.213
-304.62
-94.3809
-79.8332
-46.7111
-28.9474
-19.3883
-6.65778
-160.317
-113.789
-76.6302
-46.1929
-15.0119
1116.13
924.92
689.491
425.756
144.279
989.875
828.659
621.616
384.357
130.125
-540.945
-424.317
-309.421
-193.982
-67.056
-446.862
-345.976
-249.576
-155.465
-53.351
-5433.9
-4108.12
-3405.86
-3109.35
-2461.34
-2939.86
-2192.57
-1660.31
-1174.48
-470.331
-2861.75
-2232.23
-1741.81
-1373.93
-545.527
-1555.77
-1194.68
-901.105
-630.937
-281.727
-2393.14
-1875.17
-1378.39
-873.484
-300.611
-2072.7
-1312.41
-981.775
-694.192
-90.8981
142.698
140.007
113.112
70.4999
24.4842
965.141
811.053
610.002
377.519
127.797
-71.9744
-31.2936
-13.249
-7.83329
-0.593546
-76.5006
-179.047
-247.349
-334.186
-486.608
-669.403
-24335.5
-20149.9
-18648.4
-22264
-17293.1
-13465.1
-15637.7
-12003.1
-21907.6
-17594.9
-18573.2
-15894
-16076.4
-12486.3
-15202
-20663.7
-18174.2
-15937.8
-18068.6
-15458.3
-12084
-13547
-10219.9
-20283.1
-17225.8
-18335.7
-16138.3
-15876.5
-13263.2
-15449.5
-16215.7
-14887
-12869.3
-14009.4
-12989.3
-10794.9
-11416.8
-9725.75
-16788.1
-15536.7
-15932.9
-15029.5
-14511.5
-12575.3
-14411.2
-11223.3
-10766.2
-9217.39
-9610.26
-9966.12
-9324.32
-8732.43
-8573.22
-12198.8
-13503.1
-11826.6
-13030.7
-11309.4
-10346.2
-12457.6
-7230.82
-7110.41
-5955.18
-6073.25
-6986.05
-7051.94
-5834.83
-5953.67
-8475.22
-10367.7
-8339.68
-9757.03
-8259.56
-8048.18
-9373.34
-2636.59
-2615.94
-2148.63
-2176.87
-2624.62
-2750.88
-2104.71
-2085.92
-3420.01
-4346.92
-3351.16
-3883.1
-3362.92
-3357.79
-3729.2
-8765.64
-8738.05
-12628.1
-13931.2
-8689.62
-8140.92
-11699.5
-9730.28
-7672.61
-4641.32
-7760.34
-4581.82
-7773.32
-7853.74
-4677.49
-8352.75
-8097.76
-11673.6
-12641.9
-7747.3
-6719.64
-10564
-8582.06
-5497.09
-1800.98
-5384.11
-2025.74
-4531.43
-4335.52
-2355.7
-7051.73
-6850.1
-9859.24
-10442.9
-6748.89
-6066.26
-9149.62
-8058.7
-3032.13
-1651.72
-2929.79
-2203.31
-2741.95
-2992.73
-2814.26
-5218.65
-5156.09
-7264.13
-7482.63
-5181.79
-4955.46
-7046.95
-6784.01
-3046.95
-1558.78
-3169.22
-2367.71
-3308.34
-3803.81
-3141.15
-3296.65
-3263.37
-4663.46
-4741.79
-3152.32
-3064.98
-4576.94
-4446.85
-1819.47
-1210.29
-1950.37
-1889.54
-2300.74
-2735.9
-2454.09
-1138.37
-1129.74
-1662.4
-1683.87
-1110.85
-1128.68
-1627.99
-1562.54
-431.651
-529.892
-558.861
-864.638
-815.709
-1018.98
-1038.04
8219.53
24673.9
6325.82
27483.9
3444.63
28934
5797.6
45358.8
9434.87
56839.1
9728.78
40616.6
10422.3
36227.5
10180.7
30526.7
4801.96
2732.26
14583.9
7072.93
4463.34
2097.92
15537.2
6310.66
6358.13
4815.95
18594.7
13904.7
4305.27
3510.06
19055.8
14756.7
9770.75
3595.35
7605.19
2883.95
3541.79
9253.91
44824.9
13609.5
13561.3
6091.09
53848.4
16730.8
12418.6
5609.59
30098.9
9986.43
15393
6917.45
24860.6
7859.76
6717.42
3596.79
10515
4329.56
6225.09
3815.77
11234.6
4339.85
8123.13
5129.84
7173.93
3108.9
12198.7
4479.88
4752.3
1782.28
15383.1
11940.5
9073.66
8349.87
16190.3
14315.5
8645.5
9263.41
8767.19
7831.56
12079.5
10645.5
6544.14
5743.48
3604.36
3123.19
6228.81
6236.55
3342.85
3362.24
6481.76
5285.51
3618.79
2616.93
7735.61
4407.49
8017.79
8619.52
10792.2
8162.57
11853.8
15083.8
5425.89
2379.15
4996.06
5058.09
2948.3
1061.46
2198.56
1906.42
8375.01
16398
5892.55
18422.1
9074
16418
7017.61
19387.5
11566.2
16005.9
9553.51
19436.9
11553.8
12614.8
9966.47
10224.5
11830.8
8336.28
10188.7
14644.4
17540.4
25228.8
11408.1
10168
10326.8
13054.6
19972.7
20453.3
19874.3
23874.4
24207.3
19732.7
19803
23718.7
23828.8
17891.1
18624.2
22475.5
22888.3
10457
11170.3
11258.3
12022
13930.9
14371.4
16733.8
16687.3
21513.8
22096.3
9440.89
10590.4
11333.1
12730.7
13221.6
15013.9
15683.6
17898.7
20869.6
23418
11130.6
7628.54
8901.52
8708.54
11887.8
13013.3
9591.99
12215.5
8541.58
8418.68
11010.7
7981.18
3902.4
6209.07
1458.59
2219.79
5873.01
8925.31
2131.9
3212.49
3504.97
5687.9
1228.79
2011.38
8392.92
7072.09
8783.45
5618.47
11966.3
8670.23
13865.5
9496.31
4066.68
4460.95
4998.71
2929.49
2907.94
3066.6
3226.06
2424.33
17475.9
11623.3
3883.31
18906
12031.7
4184.74
17074.3
11322.7
3935.19
18724.4
11964.3
4101.16
16101.7
10536.9
3556.91
18169.4
11691.7
4046.54
8315.84
4988.06
1428.13
10613.9
7295.47
2398.43
12728.9
8928.35
3032.2
14449.3
9563.01
3180.82
17354
11145.6
3943.97
8854.16
5066.66
1730.96
9776.63
6493.88
2331.8
11486.1
7710.04
2720.27
13718.4
8923.52
3111.4
16529.3
9902.76
3487.92
-557.172
954.146
312.745
2598.6
1947.45
1921.5
4979.27
4310.27
593.394
917.315
626.709
957.496
318.76
877.322
591.298
1288.89
1667.6
1059.63
3650.64
2647.54
1610.93
2546.72
2871.62
421.224
6316.15
1710.27
-4792.87
-1279.72
313.325
203.786
-484.576
-488.163
9744.52
3917.55
2552.34
1389.78
9586.34
3934.97
2756.44
1617.66
9161.57
4201.41
3537.83
2254.77
2635.21
1511.23
1134.2
984.142
13440.6
11662.1
5741.14
7364.57
15949.7
14842.8
7667.28
9167.11
4875.04
5909.16
10790.2
8747.94
3488.47
4668.01
1775.7
2509.18
4979.43
5831.63
2641.92
3122.65
2569.29
3772.13
1204.98
2123.07
4084.89
2583.32
4597.76
2701.62
7296.79
3813.83
6276.05
3586.01
2237.3
1667.41
3094.7
1783.91
1029.44
916.892
1833.99
1027.23
11092.3
6702.03
4947.38
4691.98
10991.8
6718.3
4829.07
4566.11
11106.3
6558.69
4838.7
4237.87
13503.1
13854.1
11886.8
8589.08
4340.37
8377.92
9395.4
9264.41
8086.43
4915.04
12015.3
10072.5
7803.25
5826.02
3282.86
5074.27
4499.19
4704.81
5126.53
5156
4495.17
4624.83
5081.46
5117.14
4499.66
4456.45
4957.1
9392.35
8931.2
8062.86
6857.58
5524.89
5340.24
4806.08
4724.41
3922.57
4765.99
7028.09
7958.07
5479.19
6143.25
4421.26
4918.71
3828.92
4370.9
2921.95
4410.88
4942.18
3978.88
3372.8
2011.98
7947.8
6002.33
6362.9
4153.33
2309.24
1423.48
3450.76
3078.47
4109.7
1903.64
1738.59
958.425
5692.19
3343.43
2152.07
1481.67
3083.49
1347.77
1430.13
701.619
1628.62
1879.95
1733.52
2834.14
2523.91
2938.26
2056.71
3640.44
2014.35
1366.14
1267
2053.2
772.078
251.581
83.7683
391.039
3404.75
1578.16
459.231
3421.46
940.564
253.797
3459.96
1724.77
542.694
3459
993.718
282.387
3395.2
1736.02
472.285
3380.46
967.187
236.413
6196.65
3543.41
1002.24
4665.56
2639.41
776.668
4006.32
2140.52
643.867
3435.49
1725.28
447.616
3304.8
907.48
187.389
6708.6
3658.51
1191
5258.57
2920.72
978.71
4249.41
2296.89
763.35
3572.84
1602.72
471.157
3554.73
975.989
320.037
1370.72
481.79
231.054
55.8354
550.14
201.195
101.999
31.0687
1399.01
507.467
267.681
83.5224
646.227
257.292
158.233
69.0391
1567.18
589.945
337.182
123.32
1038.91
466.601
226.09
92.1662
685.165
369.77
119.765
28.2359
648.907
385.347
167.886
74.3569
1227.17
519.711
247.533
51.1374
1141.7
471.182
271.912
30.7801
1597.62
615.822
361.099
109.086
1396.7
532.279
339.021
31.4473
870.424
413.536
181.161
38.1074
841.955
383.301
214.826
47.9865
582.413
320.24
162.695
77.7754
536.095
285.782
167.657
79.1396
1730.11
595.046
302.382
47.0308
1738.63
577.93
357.381
0.837828
1706.23
595.955
322.143
58.4
1659.47
553.744
353.526
2.00713
1694.98
602.284
365.932
81.7656
1484.98
497.907
345.702
17.6586
1551.52
564.138
380.633
127.571
1626.35
551.64
429.973
36.5276
1179.88
429.955
296.068
64.7193
1376.09
420.06
275.831
-12.0637
527.511
148.669
86.3489
5.25346
1357.97
421.283
276.023
-6.68954
537.858
154.804
91.6401
10.2658
1289.26
407.503
277.772
3.37258
525.68
155.45
97.4158
16.7106
1094
346.709
261.748
16.3628
467.74
137.089
101.68
24.7291
958.848
317.403
241.607
34.4914
428.633
135.914
105.491
33.8156
707.527
276.946
160.263
27.2092
373.587
164.575
85.7879
37.0039
777.624
270.187
190.995
30.1992
386.393
143.955
95.5071
37.6497
592.373
269.827
143.235
36.0272
347.833
175.422
82.7936
41.4
422.126
232.46
129.857
63.5608
292.713
171.075
90.3325
54.6835
14.3381
4.39333
1.68448
0.750158
0.427943
6.42398
2.08096
0.823501
0.373464
0.216089
20.0727
7.48226
3.20408