/*--------------------------------*- C++ -*----------------------------------*\
| =========                 |                                                 |
| \\      /  F ield         | OpenFOAM: The Open Source CFD Toolbox           |
|  \\    /   O peration     | Version:  2412                                  |
|   \\  /    A nd           | Website:  www.openfoam.com                      |
|    \\/     M anipulation  |                                                 |
\*---------------------------------------------------------------------------*/
FoamFile
{
    version     2.0;
    format      ascii;
    arch        "LSB;label=32;scalar=64";
    class       volScalarField;
    location    "1.1";
    object      gradTx;
}
// * * * * * * * * * * * * * * * * * * * * * * * * * * * * * * * * * * * * * //

dimensions      [0 -1 0 1 0 0 0];

internalField   nonuniform List<scalar> 
5712
(
-8890.99
-10897.8
-20200.1
-31735.1
-30709.1
-59876.5
-21088.9
-63382.4
-21663.9
-50720.5
-26658.3
-43978.4
-20327.7
-27059.9
-10952.1
-11177.8
-14985.9
-17265.2
-20183.2
-18454.5
-13912.6
-20941.8
-20592.3
-20622
-5956.6
-4442.98
-8054.15
-5869.89
-13615.6
-9150.91
-24948.6
-17696.7
-20738.4
-21254.3
-21465.8
-22318.4
-5315.7
-4514.25
-47650.2
-58906.9
-25559.1
-33981.1
-60763.3
-74866.8
-28244.2
-34750.8
-36044.7
-47087
-28970
-39923.6
-16803.2
-21137
-3568.29
-1146.64
-4583.59
-1607.78
-8020.83
-3323.65
-13616.5
-5047.27
-9246.37
-3070.96
-9009.1
-2573.87
-17497.8
-5138.34
-22856
-7227.96
-28756
-16662.2
-24173.3
-16720.5
-28868
-18663
-22837.1
-18275.1
-19178.8
-13900.9
-21269.8
-13633.6
-23436.6
-17139.6
-24230.4
-17521.8
-22360.6
-18496.2
-23245.8
-18805
-19663.8
-14540.4
-21148
-15016.2
-21249.5
-8903.81
-12404.3
-14380.3
-23008.7
-10402.4
-12529.8
-15328.8
-21210.4
-8226.02
-12835.6
-14006.1
-21910.1
-8250.66
-13417.1
-14052.4
-3462.88
-3943.83
-1234.84
-2570.78
-9948.18
-11766.8
-4217.13
-8311.16
-16211.9
-19280
-7710.71
-14047
-18506.3
-9543.48
-19791.7
-24770.1
-12977.5
-6651.57
-10719.1
-13704.5
-25182.5
-17345.2
-11379.3
-15294.8
-17470.8
-17531.4
-22302.1
-3753.77
-3794.89
-2393.37
-2527.86
-11098.8
-10261.2
-7482.38
-7480.67
-16582.1
-14630.2
-11150.7
-10996.9
-9910.12
-10950.8
-15611.5
-16579.1
-18715.9
-17500.5
-22955.9
-20718.5
-16953.9
-16778.5
-13790.2
-14277.9
-17921.5
-15447.5
-17344.1
-13647.6
-16053.1
-12064.6
-18748.3
-14409.3
-14736.1
-6912.97
-11732.4
-10839.1
-16159.1
-18020.9
-16540.5
-20934.3
-10069.5
-9376.48
-13555.4
-4983.52
-11519.5
-17518
-12048
-18927.3
-16882.2
-25888.3
-17567.6
-26755.9
-10007.9
-15747.6
-10509.4
-17290.2
-12468.1
-8701.52
-16527.5
-6921.11
-13233.9
-3701.69
-15550.8
-2519.05
-13154.2
-12978.4
-17425.9
-8676.87
-12018.4
-15160.2
-16125.6
-11172.4
-3433.71
-3087.6
-2489.26
-2240.84
-2129.9
-1778.21
-9072.05
-7384.2
-6048.01
-6155.89
-4848.15
-3844.81
-11591
-9158.37
-7931.78
-8920.26
-6658.41
-5651.96
-9394.29
-6881.44
-6124.82
-15065.9
-10137.1
-7616.67
-14309.6
-9530.83
-6761.37
-16335.8
-11768.4
-9193.34
-13777.3
-8680.52
-5919.03
-17569.4
-13123.2
-10828.8
-13450.1
-9718.52
-7337.83
-12502.3
-8543.01
-6056.23
-11772.6
-8007.9
-5698.01
-13656.7
-7591.61
-4202.21
-12206.7
-19649.6
-10520.3
-14814.5
-10288.7
-20853.8
-8746.81
-17196.6
-128.102
-1687.43
287.304
-1031.8
-3575.81
-6683.42
-2325.54
-4187.88
-2068.32
-4075.46
-11417.1
-16742.3
-8751.44
-6803.82
-12490
-10960.7
-17165.8
-18432
478.162
5760.13
-8793.29
-6125.78
-6839.63
-3904.73
-1563.44
-994.332
-1320.9
-837.242
-3890.39
-1206.37
-2077.25
-373.914
-10015.1
-2853.62
-7768.72
-2414.04
-8788.24
-2634.2
-9877.43
-3169.04
-13079.3
-12532.8
-10120.5
-12299.3
-20334
-17947
-16545.1
-16914.5
-7222.75
-9027.01
-8456.2
-8408.9
-9436.95
-12123.1
-9882.21
-12180.2
-15761.5
-16466.1
-16318.6
-16533.2
-6357.8
-9075.83
-6112.24
-9131.84
-574.202
-1052.15
-6783.54
-3260.77
-599.357
-825.849
-5966.84
-2739.94
-560.974
-935.138
-7111.61
-3583.84
-820.684
-1020.23
-7134.87
-3761.53
190.885
344.89
-441.752
-247.929
875.769
1389.11
-665.924
-320.116
-981.735
55.5086
-2156.12
-1707.18
7179.6
3628.77
4212.1
2924.9
217.971
6949.98
9921.03
4565.06
4686.38
273.654
-10044.4
-7103.1
-5424.92
-5152.4
-2553
498.102
400.031
-111.038
-143.773
1415.28
1440.97
-277.614
-327.716
1267.36
1636.55
-955.48
-989.563
2667.55
935.844
7337.34
4700.45
3809.32
2446.19
3563.98
2746.84
117.119
-333.591
-5444.05
-3864.03
51.5207
1505.97
517.283
1492.46
-150.608
728.417
-236.13
-398.782
-4194.27
-4429.41
-9468.98
-5936.32
-8940.82
-8304.99
-13152.3
-10001.3
-6792.64
-4051.09
-2339.39
-2891.86
-11137
-4777.35
-11937.7
-4476.61
-15064.9
-9732.51
-16082
-9484.55
-8158.43
-2960.69
-8838.99
-2579.09
-4544.05
-3403.53
-2774.41
-4914.21
-2092.85
-2710.69
-1650.26
-4044.2
-5003.15
-3080.45
-3441.25
-5654.87
-6130.89
-2828.14
-4237.84
-5484.48
419.942
461.026
507.487
-92.6019
89.1214
112.945
1467.12
1540.18
1569.51
-105.124
365.374
417.085
1804.04
2224.1
2364.32
-506.57
639.756
841.711
152.101
756.194
663.647
3025.04
3153
2839.19
2302.64
2555.49
2410.77
2551.29
2876.43
2850.28
-218.024
916.158
830.553
-4490
-2321.39
-1373.66
327.177
1295.6
1624.36
725.148
1604.92
1825.86
482.868
1439.8
1626.01
-1088.47
574.984
674.379
-76.886
-8.41904
9.82871
21.4938
49.4188
50.6874
61.7632
47.3997
-199.187
-27.3251
31.7788
59.6059
111.071
114.795
128.452
101.559
-352.755
-77.2171
18.1817
94.6535
-61.84
68.016
77.996
97.6242
-23.6019
43.8603
12.8978
21.1559
-150.707
-31.6151
5.07207
30.9943
-807.79
-254.454
-146.395
16.2997
-1115.78
-359.079
-275.619
23.0349
-662.083
-198.385
-98.6888
80.697
-907.809
-289.958
-243.025
29.1488
-740.602
-240.524
-130.563
10.7454
-1225.84
-395.111
-293.638
36.3137
-769.602
-265.764
-118.92
32.5234
-1283.91
-415.892
-304.899
41.2725
-64.9524
-11.657
-3.89195
15.5051
-47.7371
-6.74034
-13.2352
17.9352
-170.807
-33.4218
-6.75264
44.9168
-79.7668
-1.33558
-24.6469
50.2716
-547.629
-158.705
-84.3611
57.8012
-404.041
-103.213
-84.8417
81.8464
-241.139
-49.6097
-30.1378
99.039
-156.121
-20.9943
-48.8963
87.8811
-757.59
-231.069
-203.154
80.505
25.6502
17.3261
5.49575
18.9606
90.8932
37.048
16.792
13.9813
18.7645
31.013
0.432929
46.6714
226.282
95.7729
38.5428
35.4142
-49.4562
17.1133
-12.4315
72.3444
322.665
139.156
56.9222
52.7498
-44.8045
25.7212
-16.0381
94.3371
367.753
165.096
59.8584
58.1739
-182.817
-4.75861
-77.0938
74.8573
244.833
145.73
30.2177
46.9524
-734.975
-123.316
-181.866
45.1524
-199.826
27.33
-27.4367
19.6631
-448.26
-47.8788
-142.63
54.7957
-14.3006
87.8744
-3.07091
32.2968
-972.681
-212.813
-219.198
44.9775
-317.061
-28.5336
-46.828
12.5323
-1129.82
-296.306
-252.784
38.7085
-409.982
-86.8562
-66.2208
6.08361
7.67224
3.5005
1.58311
0.735478
0.422147
12.295
5.63907
2.57007
1.20902
0.698342
15.5926
7.41634
3.36201
1.56663
0.909051
32.0667
15.4448
7.13731
3.39753
1.98037
23.6965
11.1168
5.0193
2.35064
1.37285
47.391
22.3177
10.3364
4.95745
2.9093
15.1735
7.14574
3.35547
1.62742
0.961286
6.68958
3.53182
1.71412
0.842663
0.498837
21.5953
9.36676
4.24136
2.00914
1.16872
2.90996
1.11234
0.461994
0.201588
0.110582
36.9784
16.3254
7.3869
3.51099
2.05416
8.47581
3.42123
1.49536
0.69116
0.392975
3.65153
1.43988
0.606824
0.268903
0.149946
2.77422
1.23838
0.555697
0.25904
0.149024
1.86137
0.989621
0.469393
0.218956
0.119612
0.225359
0.0459046
0.00892271
-0.00453923
-0.00969252
5.86079
2.59001
1.12704
0.505802
0.283943
6.59951
2.63673
1.09959
0.484596
0.269896
14.0406
6.00891
2.58485
1.15583
0.65108
15.6087
6.02828
2.49984
1.09925
0.61073
18.129
7.37074
3.13129
1.38805
0.779739
19.9918
7.60116
3.16048
1.39124
0.781827
28.3246
11.8115
5.20409
2.42961
1.41558
14.9258
5.80497
2.44715
1.09241
0.62715
16.9071
7.24026
3.24347
1.54094
0.902372
-496.738
-644.58
-1383.52
-1857
-2136.04
-3008.82
-2552.96
-3980.53
-2387.49
-3754.21
-2219.29
-3170.41
-1819.1
-2324.19
-2836.04
-3987.1
-3098.98
-4280.67
-668.535
-149.061
-32.9424
-7.09988
-1.75669
-237.075
-94.9949
-9.30391
-2.9181
-1.27488
-2162
-485.279
-107.878
-23.4352
-5.8422
-604.463
-129.203
-26.3844
-5.18893
-1.11329
-3779.72
-853.404
-190.923
-41.8822
-10.5416
-1087.53
-265.207
-59.9812
-13.4561
-3.34953
-5340.44
-1213.26
-274.36
-60.9453
-15.5504
-1542.9
-416.247
-101.423
-23.9891
-6.2786
-7307.46
-1709.98
-395.523
-89.6015
-23.2965
-2088.32
-643.828
-166.491
-40.5835
-10.8886
-9509.7
-2436.94
-597.051
-141.262
-38.0107
-2489.65
-802.369
-213.305
-52.8101
-14.3986
-8805.93
-2184.88
-521.567
-120.8
-31.9429
-2369.21
-780.992
-208.015
-51.4436
-13.9062
-9817.62
-2549.58
-632.926
-151.57
-41.1929
-2589.75
-803.222
-209.465
-51.1845
-13.9031
-10070.3
-2606.65
-650.056
-156.614
-42.81
-2620.98
-811.231
-210.851
-47.8717
-13.7492
-344.202
-7346.22
-7186.35
-3986.74
3943.73
5425.31
10860.6
14345
6085.1
12441.4
2055.75
7246.04
5962.72
10094.9
11247.8
15626.1
13522.9
15466.6
7712.35
8761.77
-18964.5
-13853.5
-3249.27
-2272.93
-1711.02
-2694.58
-2028.1
-11928.1
-10880.3
-9509.71
-9449.4
-7298.9
-4994.81
-7324.6
-4091.58
-3096.78
-3723.8
-2361.19
-19865.2
-9262.52
-2379.79
-4156.07
-6810.87
-4407.9
-4849.27
-3541.81
-1583.73
-2642.29
-2523.52
-2981.13
-18890.5
-11359.4
-11275.7
-6902.63
-7068.89
-7358.52
-3093.49
-3761.8
-4350.81
-12277.1
-11081
-8812.15
-7892.87
-6414.51
-9626.43
-6887.76
-5353.72
-4089.9
-1710.19
-2839.25
-2320.2
-1712.52
-1052.53
-355.199
-2012.99
-1667.43
-1241.17
-764.452
-258.134
-1505.3
-1237.24
-913.739
-559.34
-188.303
-2390.46
-1982.86
-1476.26
-908.448
-306.546
-1783.25
-1465.55
-1083.46
-664.425
-223.948
-7651
-6211.97
-4644.4
-3910.86
-3766.71
-5813.08
-4394.48
-2929.66
-2182.37
-1663.46
-6524.47
-4376.19
-3152.45
-2200.49
-907.377
-5067.58
-3645.88
-2406.89
-1729.3
-1097.11
-3674.35
-2480.69
-1579.57
-1180.17
-646.098
-3932.59
-2913.41
-2026.43
-1230.5
-426.759
-5230.26
-3599.36
-2485.91
-1570.31
-597.035
-2851.42
-1876.86
-1244.63
-759.102
-277.877
-2531.24
-1934.52
-1360.02
-818.083
-277.043
-2971.33
-2215
-1529.63
-911.29
-308.236
-1952.89
-1507.45
-1063.34
-637.2
-214.174
-13046.3
-10290.1
-7993.59
-6741.02
-5604.18
-6983.23
-5072.76
-3708.15
-2514.88
-1000.27
-1955.64
-1505.12
-1068.38
-649.758
-221.627
-3471.05
-2718.12
-1961.37
-1208.52
-414.34
-5526.77
-4230.24
-3059.76
-1935.05
-683.269
-3707.72
-2922.68
-2123.93
-1314.68
-448.48
-4153.43
-3325.84
-2431.59
-1497.14
-504.799
-3047.4
-2451.57
-1789.09
-1094.86
-369.935
-1351.1
-1075.21
-774.122
-467.455
-156.807
-2299.09
-1868.45
-1368.63
-834.884
-280.956
-2121.17
-1665.64
-1192.33
-722.036
-243.726
-2546.89
-2034.35
-1476.47
-901.244
-304.749
-12191.6
-10341.6
-8241.58
-7202.26
-5674.14
-8202.42
-5922.27
-4524.14
-3314.29
-1378.59
-8758.54
-6795.29
-5095.2
-3715.17
-1539.58
-5527.35
-4059.9
-2980.38
-1956.87
-617.317
-5850.45
-4516.17
-3288.98
-2069.76
-689.857
-5872.42
-4292.05
-3138.35
-2054.6
-631.582
-2627.39
-2087.08
-1515.24
-929.967
-315.059
-3273.04
-2661.63
-1954.36
-1196.4
-403.383
-3695.64
-2937.92
-2136.56
-1313.99
-445.857
-7228.57
-15982.5
-12564.1
-41458.3
-11694.2
-53466.6
-7950.07
-21120
-10189
-8674.08
-20332.5
-15880.9
-10178.2
-12190.2
-21961.3
-18058.7
-4582.19
-3146.97
-10654.2
-7559.52
-7964.19
-4177.03
-29252.4
-20823.8
-17303.9
-11894.4
-18183
-11862.8
2158.92
-1686.95
-49259.2
-59552.5
-24781.5
-33891.8
-62127.4
-75446.9
-27300.1
-34533.7
-37109.8
-47686.6
-28250.7
-39953.6
-18181.6
-21707.3
-2511.11
-484.987
-5527.05
-1789.26
-4741.3
-2279.84
-15418.2
-5537.42
-2359.77
-1165.63
-6645.7
-1860.26
-17590.9
-5098.28
-23093.6
-7281.92
-20677.7
-12917.4
-21487.1
-14891.3
-19631
-14142.8
-19760.6
-16156.1
-17324.2
-12496.3
-15888.1
-10898.1
-22378
-16313.9
-23980.6
-17293.2
-21094.2
-17560.7
-22902.1
-18543.1
-19013.2
-13895.7
-21013.5
-14835.4
-20251.5
-8641.81
-11380.1
-13921.9
-19804.5
-9524.48
-10458.6
-14403.3
-20962
-8156.02
-12371.4
-13794.7
-21895.9
-8246.43
-13286.9
-13994.6
-751.662
-589.46
122.567
-903.636
-2873.79
-3661.38
-2126.57
-5651.73
-4458.07
-6090.34
-4766.6
-10404
-18350.7
-17140.9
-15272.7
-18348.8
-11424.8
-11099.3
-8946.91
-8498.94
-18188.8
-15678
-13985.8
-13792
-13542.9
-13130.2
-20167.3
-879.178
-1111.12
-622.428
-889.225
-3698.36
-3313.23
-4284.74
-4204.13
-3784.83
-2166.81
-7099.29
-6678.68
-12026.7
-12687.3
-11441.1
-11381
-11183.7
-9318.9
-15457.7
-13213.4
-14378.5
-13488.1
-15853.8
-15764.1
-15337.2
-13158.1
-13014.7
-10236.7
-12106.6
-9078.3
-16823.5
-12158.8
-13729
-7524.93
-11252.3
-10998.2
-16536
-19054.6
-16459.7
-21269.1
-9457.16
-9425.93
-12097.7
-5370.79
-11272.1
-17504.2
-11957.2
-18903.4
-16797.7
-26106.9
-17508
-26761.6
-9717.16
-15683.1
-10413.7
-17260.1
-12003
-8780.33
-16357.1
-7087.72
-12066
-4222.95
-15137.6
-3289.83
-12947.3
-12945.2
-17341.7
-8706.24
-11949.3
-15140.2
-16099.8
-11167.8
-1321.26
-1033.8
-806.403
-988.722
-2616.22
-1428.61
-3481.65
-3481.13
-962.885
-755.382
-6053.73
-5806.57
-13477.6
-11286.5
-11173.6
-8316.26
-7787.23
-5126.13
-10542.8
-7842.69
-11623.9
-7713.33
-19641
-16166
-10698
-8235.93
-8720.52
-6053.24
-7928.51
-5168.25
-9287.21
-4442.99
-5847.11
-11295.5
-5308.3
-11209.8
-7722.21
-12575.6
-9206.57
-14373.9
-1601.7
-1470.67
-1364.12
-1343.95
-4493.89
-4628.6
-4088.89
-4161.32
-1450.36
-1932.87
-8949.96
-9711.55
-5266.32
-5883.59
-10982.3
-10558.3
-15789.8
-18014.4
862.756
5760.82
-7724.78
-5843.6
-6327.59
-3813.68
-1266.19
-1174.3
-1354.72
-1134.89
-2834.64
-1750.51
-2122.99
-1171.88
-7795.24
-3538.77
-7321.96
-3226.16
-8444.86
-3067.12
-9756.59
-3335.28
-6793.18
-9768.7
-7758.58
-10777.2
-12125
-13689.6
-13603.6
-14842.7
-5838.34
-8244.14
-4962.66
-7317.48
-8382.62
-11439.5
-9568.94
-11985.2
-14461.5
-15555
-15933.9
-16275.6
-5733.33
-8707.16
-5919.77
-9024.26
-418.912
-1281.31
-6617.76
-3375.65
-534.721
-1323.56
-5946.03
-2952.76
-521.382
-1129.76
-7018.14
-3670.41
-809.505
-1101.37
-7095.52
-3804.18
-1145
-1274.02
-1170.11
-1276.65
-2785.06
-3036.43
-1951.41
-2157.72
-6934.11
-7348.26
-3602.38
-3819.06
-4111.74
-9807.24
-2536.84
-5.31475
-911.416
-4056.36
-976.851
-1833.74
1969.3
-476.162
-14521.1
-10150
-7312.96
-6607.78
-3134.97
-1504.53
-1573.85
-1458.04
-1669.88
-3540.95
-3680.77
-2499.67
-2959.04
-7627.97
-8259.51
-3770.88
-4504.38
-6084.06
-7318.71
-1934.39
-3937.07
-3130.44
-4305.96
-542.303
-1377.55
-1173.93
-1893.14
-11442
-8715.38
-5970.75
-4077.91
-4094.04
-2804.5
-3537.84
-2294.79
-1552.19
-1892.47
-7019.28
-7375.66
-10598.2
-7140.82
-11137
-10804
-13809.8
-11022.8
-8171.98
-5252.66
-5028.35
-5611.05
-11600
-5419.05
-12038.9
-4612.13
-15272.6
-10284.2
-16098.2
-9581.84
-8792.38
-3606.62
-9002.34
-2733.23
-5872.6
-4488.24
-3907.15
-6119.66
-4358.57
-4998.31
-3174.26
-6080.45
-5666.4
-3697.35
-4090.96
-6342.99
-6322.58
-3004.92
-4438.15
-5656.99
-1272.67
-1342.93
-1156.81
-961.061
-3924.27
-4399.71
-1804.6
-1110.97
-8612.12
-7139.06
-2576.89
-352.46
-9024.11
-7624.9
-5699.2
-4658.38
-4588.71
-3662.35
-1614.53
-929.14
-1358.31
459.437
-8301.61
-6659
-4148.14
-2966.17
-2732.97
-1608.28
-1948.3
-866.789
-2571.61
239.15
-219.703
-80.8291
-25.1079
5.58202
-215.461
-90.2344
-9.31053
11.8323
-561.591
-211.126
-52.7518
25.9708
-487.441
-209.16
-43.9518
3.85364
-832.225
-324.672
-108.581
36.5758
-770.789
-331.292
-163.281
-56.566
-447.548
-203.965
-128.44
-46.6385
-329.452
-140.244
-57.2624
-0.384572
-1044.21
-396.182
-244.878
-46.5736
-1189.07
-394.216
-313.639
16.8134
-1035.84
-391.279
-229.064
-14.9121
-1007.87
-336.108
-291.513
21.4009
-921.366
-350.872
-193.538
-10.7357
-1283.84
-423.439
-325.386
21.7182
-846.85
-313.852
-147.073
20.426
-1309.89
-429.045
-316.953
36.9859
-211.343
-71.7931
-30.3543
7.10278
-211.679
-64.0061
-41.8141
9.78359
-540.804
-188.495
-76.2418
22.9392
-531.874
-166.256
-103.635
29.6705
-938.123
-334.762
-176.954
33.5469
-905.109
-300.264
-193.04
54.6531
-885.653
-338.655
-186.436
19.2262
-662.127
-230.552
-151.559
66.1373
-1007.62
-342.282
-293.136
54.9542
-159.794
-46.2142
-20.0883
9.30776
-99.5333
-31.5421
-8.61922
1.26092
-430.795
-127.992
-68.9151
20.1589
-266.18
-87.8005
-33.1224
-0.206716
-578.133
-184.497
-108.714
32.5993
-343.352
-130.303
-51.1268
-1.07258
-644.29
-224.966
-139.832
40.0999
-397.671
-167.23
-73.8684
-6.74369
-748.708
-248.817
-207.817
12.5308
-525.54
-190.824
-112.41
-24.314
-1307.01
-404.748
-331.716
-25.2192
-676.346
-212.232
-138.732
-36.2123
-1114.27
-347.217
-302.74
-20.4084
-691.814
-217.466
-139.747
-37.0553
-1327.62
-400.85
-320.077
-1.67505
-590.866
-180.051
-118.795
-22.2165
-1244.79
-360.254
-287.294
22.9445
-494.3
-136.667
-90.2512
-5.43126
-3.30892
-2.55361
-1.40568
-0.745811
-0.464493
-7.43278
-4.37744
-2.26706
-1.17344
-0.725685
-8.24749
-5.44808
-2.94247
-1.54929
-0.953938
-23.9384
-12.4512
-6.2398
-3.17729
-1.9478
-14.9483
-8.37734
-4.33735
-2.24386
-1.36929
-35.77
-17.9884
-8.82224
-4.43417
-2.69824
-12.7207
-6.0916
-2.92647
-1.45487
-0.881
-7.6685
-3.35647
-1.57913
-0.781636
-0.476889
-13.396
-7.15685
-3.55233
-1.80071
-1.1039
-1.10614
-0.774678
-0.426293
-0.231438
-0.147234
-24.5733
-12.4419
-6.10678
-3.07148
-1.86902
-4.02295
-2.49115
-1.27446
-0.657679
-0.410127
-2.40497
-1.01132
-0.51607
-0.276819
-0.175994
-2.45863
-1.02486
-0.493028
-0.252153
-0.15649
-2.81572
-1.06194
-0.499866
-0.263695
-0.177685
-0.398711
-0.136178
-0.0703862
-0.0464433
-0.0397564
-1.63922
-1.76705
-1.04843
-0.575089
-0.363174
-1.26944
-1.62233
-0.986211
-0.545145
-0.345219
-4.42787
-4.20414
-2.42988
-1.32116
-0.828957
-3.4078
-3.94767
-2.3276
-1.27384
-0.805018
-5.81925
-5.46011
-3.07399
-1.66087
-1.0391
-6.7823
-5.61525
-3.09909
-1.66565
-1.03849
-16.4042
-8.85628
-4.42075
-2.25138
-1.37032
-7.31293
-4.55449
-2.37123
-1.24843
-0.764745
-11.513
-5.41667
-2.60247
-1.29671
-0.786077
-183.135
-343.106
-636.385
-1109.63
-1274.86
-2090.35
-1872.71
-3162.78
-2051.22
-3342.81
-2342.11
-3302.5
-1886.29
-2522.74
-2904.45
-4038.7
-3117.82
-4293.09
-637.243
-144.752
-32.2549
-6.98572
-1.73533
-179.214
-86.7752
-7.96892
-2.7205
-1.24253
-2080.29
-473.583
-105.97
-23.1147
-5.78189
-464.512
-107.666
-23.122
-4.70729
-1.03469
-3653.14
-834.091
-187.693
-41.3333
-10.4375
-921.783
-238.979
-55.8833
-12.824
-3.24156
-5178.21
-1186.73
-269.764
-60.1464
-15.396
-1411.13
-394.008
-97.6795
-23.3623
-6.16338
-7130.29
-1677.89
-389.598
-88.5278
-23.0824
-2033.16
-630.036
-163.596
-40.0216
-10.7741
-9426
-2415.24
-592.181
-140.269
-37.7952
-2508.64
-802.823
-212.906
-52.6678
-14.3594
-8666.72
-2153.91
-515.252
-119.589
-31.6928
-2377.71
-776.176
-206.391
-51.059
-13.8196
-9773.68
-2537.31
-629.996
-150.947
-41.0528
-2598.91
-804.079
-209.457
-51.159
-13.8938
-10056.6
-2602.75
-649.095
-156.407
-42.7628
-2622.97
-811.484
-210.871
-47.8791
-13.7494
-132.887
-7140.42
-6499.39
-2942.4
-1527.28
-797.683
-3182.27
-2294.87
-5889.57
-6391.96
-3447.24
-3217.01
-182.803
-295.477
-528.464
-870.979
-1315.19
-1822.12
-131.183
-290.937
-620.157
-1112.36
-1746.53
-2477.58
-138.623
-59.7436
-258.015
-156.336
-505.756
-366.391
-864.467
-727.014
-1274.26
-1231.47
-1703.68
-1802.05
-2417.18
-3120.7
-4059
-6195.39
-6920.78
-8659.11
-3235.56
-3878.62
-4217.89
-4277.73
-3728.75
-3498.54
-164.69
-139.017
-105.178
-65.454
-22.2091
-265.896
-224.148
-169.36
-105.286
-35.7038
-474.908
-399.704
-301.536
-187.239
-63.4577
-781.254
-656.155
-494.031
-306.339
-103.749
-1176.61
-985.344
-739.987
-458.077
-155.016
-1623.61
-1353.9
-1013.24
-625.971
-211.659
-118.076
-99.5893
-75.2865
-46.8196
-15.8776
-261.569
-220.285
-166.284
-103.297
-35.0137
-556.823
-468.215
-352.923
-219.015
-74.2021
-996.869
-836.461
-629.293
-390.024
-132.061
-1560.96
-1305.91
-980.012
-606.454
-205.211
-2205.76
-1837.9
-1374.87
-849.387
-287.256
-124.987
-105.567
-79.9172
-49.7602
-16.8929
-53.8763
-45.5161
-34.4647
-21.4627
-7.28698
-232.372
-196.045
-148.242
-92.2152
-31.2859
-140.848
-118.885
-89.9383
-55.9661
-18.9906
-454.9
-383.225
-289.36
-179.797
-60.9603
-329.694
-277.905
-209.952
-130.506
-44.2556
-776.053
-652.362
-491.554
-304.959
-103.308
-652.872
-549.026
-413.825
-256.784
-86.9938
-1140.74
-955.953
-718.267
-444.727
-150.502
-1102.61
-924.094
-694.304
-429.82
-145.435
-1518.13
-1265.76
-946.972
-584.801
-197.682
-1605.93
-1338.8
-1001.09
-617.761
-208.719
-2140.42
-1773.52
-1321.21
-814.645
-275.329
-2734.79
-2243.45
-1661.67
-1023.89
-346.352
-3493.42
-2819.34
-2074.88
-1283.64
-436.155
-5177.2
-4073.6
-2989.18
-1882.18
-647.036
-5473.07
-4172.47
-3092.84
-2049.88
-756.128
-6567.68
-4901.63
-3680.16
-2547.31
-973.24
-2865.03
-2374.4
-1769.63
-1091.78
-369.197
-3408.69
-2805.14
-2082.33
-1284.31
-434.745
-3666.59
-2988.67
-2209.78
-1365.77
-463.839
-3652.24
-2933.27
-2161.53
-1346.64
-461.178
-3081.75
-2421.65
-1786.31
-1139.53
-401.899
-2788.75
-2141.08
-1586.29
-1043.37
-379.111
-190.707
-321.21
-577.719
-950.313
-1430.91
-1972.1
-140.81
-322.624
-680.616
-1208.16
-1878.06
-2632.56
-146.137
-64.8757
-283.381
-174.669
-557.812
-407.424
-955.47
-809.695
-1417.93
-1406.67
-1896.07
-2148.79
-2599.99
-3334.27
-4296.3
-6382.55
-7040.21
-8701.56
-3389.75
-4002
-4289
-4288.32
-3709.02
-3486.67
-171.863
-145.129
-109.847
-68.3828
-23.2069
-289.27
-244.073
-184.591
-114.846
-38.9638
-519.669
-437.896
-330.764
-205.6
-69.7209
-853.442
-717.848
-541.326
-336.095
-113.908
-1282.11
-1075.72
-809.453
-501.879
-169.99
-1760.85
-1471.99
-1104.43
-683.705
-231.444
-126.825
-107.044
-80.9828
-50.3938
-17.0966
-290.345
-244.816
-185.037
-115.068
-39.0266
-611.77
-515.111
-388.822
-241.573
-81.8974
-1084.07
-911.031
-686.495
-426.03
-144.356
-1680.96
-1408.83
-1059.21
-656.442
-222.306
-2347.73
-1960.27
-1469.54
-909.411
-307.838
-131.795
-111.364
-84.3428
-52.5347
-17.838
-58.5299
-49.4771
-37.4879
-23.3581
-7.93324
-255.4
-215.664
-163.23
-101.618
-34.4919
-157.482
-133.05
-100.754
-62.7481
-21.3021
-502.187
-423.551
-320.202
-199.163
-67.5651
-366.957
-309.672
-234.239
-145.753
-49.4543
-858.823
-723.057
-545.715
-339.017
-114.934
-728.092
-613.295
-463.083
-287.77
-97.5722
-1271.58
-1067.88
-804.171
-498.834
-168.991
-1262.07
-1060.42
-798.874
-495.663
-167.932
-1693.79
-1416.63
-1063.27
-658.31
-222.836
-1921.38
-1608.49
-1208.06
-748.159
-253.276
-2308.77
-1919.47
-1434.82
-887.074
-300.248
-2933.57
-2417.89
-1799.21
-1112.58
-377.053
-3718.66
-3020.99
-2237.26
-1390.43
-473.485
-5366.52
-4252.55
-3141.64
-1988.1
-684.766
-5603.34
-4300.85
-3208.01
-2136.04
-789.779
-6617.77
-4953.31
-3729.13
-2586.74
-988.968
-3007.33
-2498.14
-1866.26
-1153.54
-390.474
-3524.32
-2907.42
-2163.63
-1337.09
-453.095
-3736.04
-3052.74
-2262.91
-1401.55
-476.533
-3668.05
-2952.59
-2181.42
-1362.39
-467.198
-3069.47
-2416
-1786.55
-1143.12
-404.088
-2780.61
-2136.33
-1584.85
-1044.32
-379.934
-18921
-13903.7
-3570.54
-2568.11
-2201.7
-3230.74
-2445.15
-12808.5
-13507
-11084.3
-12719.7
-6244.04
-10306.7
-4420.83
-4702.73
-3210.25
-20682.6
-10200.4
-2967.84
-4788.07
-7432.12
-4785.46
-5414.77
-4064.02
-1951.41
-3315.65
-3210.22
-3500.23
-18845.9
-11554.7
-11800.7
-7251.56
-7437.2
-7812.1
-3687.89
-4370.94
-4792.15
-12272.5
-11116.5
-8879.5
-8004.07
-6521.51
-9698.89
-6965.82
-5433.47
-4163.35
-1741.34
-3139.33
-2584.46
-1921.63
-1187.77
-402.091
-2283.7
-1901.13
-1422.31
-879.521
-297.63
-1954.51
-1624.29
-1213.53
-749.976
-253.865
-2880.68
-2404.5
-1801.92
-1114.79
-377.296
-2166.89
-1797.79
-1341.94
-829.272
-280.716
-9059.63
-7797.49
-6213.67
-5312.51
-4871.24
-9139.86
-8016.76
-6280.96
-4975.77
-3511.59
-8361.21
-6132.44
-4703.46
-3379.59
-1404.16
-8969.67
-7421.36
-5671.53
-4371.88
-2572.95
-5218.35
-4109.1
-3025.19
-1918.9
-682.836
-8191.03
-6159.41
-4568.43
-3037.1
-1184.74
-3780.51
-3035.54
-2236.01
-1394.34
-481.856
-4005.44
-3204.71
-2358.43
-1473.38
-510.833
-2766.24
-2235.87
-1648.98
-1023.88
-351.292
-14260.1
-11633.5
-9324.99
-7929.54
-6476.87
-8003.57
-6061.77
-4577.93
-3156.13
-1257.81
-2530.97
-2028.58
-1496
-936.344
-324.555
-4088.5
-3283.63
-2426.8
-1521.73
-526.613
-6169.12
-4844.09
-3588.18
-2308.34
-822.811
-4081.67
-3269.93
-2413.86
-1512.14
-519.471
-4689.16
-3803.86
-2815.23
-1748.7
-592.596
-3544.02
-2896.71
-2147.3
-1330.05
-452.42
-1705.6
-1396.58
-1034.94
-639.794
-217.537
-2922.73
-2412.58
-1795.48
-1109.34
-376.014
-2776.6
-2252.53
-1664.45
-1033.16
-353.621
-3043.68
-2481.85
-1838.25
-1139.93
-388.842
-12283.7
-10541
-8511.57
-7539.7
-6020.22
-8445.76
-6168.32
-4756.75
-3506.18
-1462.59
-9422.79
-7483.73
-5750.29
-4248.21
-1777.98
-5896.57
-4414.26
-3289.32
-2178.93
-690.23
-6233.04
-4880.89
-3603.83
-2291.5
-769.02
-6361.14
-4756.31
-3545.44
-2348.66
-733.397
-3189.11
-2587.02
-1915.26
-1191.78
-406.739
-3841.14
-3161.05
-2348.85
-1451.28
-491.846
-4125.5
-3331.76
-2460.69
-1531.4
-523.173
-357.396
-1000.38
-1572.47
-2136.79
-2724.23
-3274.16
-2656.02
-6790.75
-6262.12
-2618.15
-7743.82
-7216.87
-8084.91
-10954.6
-1515.65
-143.013
-2848.63
1628.84
-11106
-9588.18
2447.69
-1906.85
-5288.81
-4974.92
-1977.12
-5799.52
-3346.17
-6314.29
-6471.33
-650.097
1161.74
-1173.34
4203.66
-7569.81
-5145.74
4661.04
-1126.8
-3454.56
-3486.11
-1301.64
-3417.17
-350.518
-4483.66
-4360.92
-129.241
1347
269.517
4301.58
-4322.79
-285.778
5207.97
-703.343
-2333.79
-2658.92
-940.875
-1617.57
1202.04
-3578.4
-3882.19
107.923
938.318
669.047
3485.56
-3040.75
1979.08
4853.96
-579.17
-2126.86
-2458.16
-828.416
-1421.66
882.23
-3725.54
-5070.54
190.32
658.888
759.75
2850.24
-2939.58
1845.09
3167.87
-547.534
-2067.19
-2352.46
-785.791
-1875.11
-73.0099
-3605.59
-4986.62
229.496
1004.1
595.284
2837.57
-3662.33
594.093
2152.12
-1308.05
-3078.72
-4378.76
-1802.26
-6388.09
-11566.1
-7240.33
-12886.6
-1544.11
-1332.91
-5004.4
-4088.45
-2038.73
-9062.81
-4378.74
-1259.27
-2951.96
-3837.23
-1529.14
-5950.08
-9690.37
-6382.29
-9165.3
-1581.04
-1200.04
-4782.94
-3816
-1370.02
-8214.44
-4175.69
-1125.23
-2657.91
-3071.8
-1186.33
-5204.62
-8123.33
-5167.05
-7762.36
-1304.83
-1507.41
-4050.3
-4427.03
-1639.15
-7071.77
-4594.86
-1078.19
-2783.34
-2693.18
-992.482
-5278.39
-7598.51
-4877.13
-7314.8
-1302.5
-1785.2
-3994.17
-5198.38
-2085.83
-7464.65
-5320.55
-1047.99
-2676.04
-2561.41
-921.008
-5012.65
-7914.3
-4762.16
-7906.93
-1360.57
-2210.88
-4137.7
-6367.63
-3000.25
-8546.17
-6628.86
-1036.12
-2617.67
-2479.68
-888.726
-5026.92
-8032.39
-4572.66
-7724.02
-1502.76
-2706.89
-4490.88
-7138.71
-4061.6
-9340.81
-7297.69
8153.07
9905.13
20197.5
31682.4
30713.7
59859.3
21092.5
63377.8
21668.6
50715.5
26673.9
43973.7
20365.1
27047.6
9437.57
9607.84
14988.5
17265.7
20178.3
18453
13915.5
20943.4
20592.5
20622.5
5490.07
4112.65
7385.86
5387.47
13622.8
9146.56
24909.5
17664.6
20722.4
21252.3
21459.4
22315
5311.25
4497.12
47651.5
58908.3
25559
33981.5
60763.6
74867.2
28244.5
34751.1
36045.8
47088.8
28969
39924.3
16806.3
21139.1
3344.91
1084.7
4229.28
1491.75
8003.09
3325.2
13588.3
5041.18
9237.11
3068.16
8996.52
2570.02
17498
5138.25
22857.6
7228.45
28755.1
16661.8
24172.2
16720
28868.5
18663.3
22837.2
18275.1
19176.9
13900.1
21267.9
13632.5
23436.2
17139.3
24230.3
17521.6
22360.7
18496.2
23245.9
18804.9
19663.3
14540
21148
15015.9
21246.1
8902.94
12403.2
14379.9
23004.2
10401.3
12528.1
15328.2
21209.7
8225.88
12835.1
14006
21910.4
8250.8
13416.9
14052.4
3246.4
3682.52
1166.32
2399.86
9914.51
11712.5
4215.91
8286.01
16197.1
19261.2
7706.27
14039
18505.2
9543.13
19789.7
24763.5
12976.1
6651.21
10718.4
13703
25175
17343.3
11379.3
15294.2
17469.2
17528.2
22300.8
3461.17
3501.18
2177.99
2339.13
11088.9
10232
7508.17
7485.99
16574.3
14621
11154.4
10999.1
9909.82
10950.6
15610.8
16578.5
18714.3
17499.4
22951.9
20715.3
16955.4
16780.4
13790
14277.6
17920.7
15447
17342.8
13646.9
16051.3
12063.8
18748.7
14410.2
14735.6
6912.74
11732
10838.9
16158.9
18020.7
16540.4
20934.1
10068.9
9376.29
13554.6
4983.25
11519.3
17517.9
12047.8
18927.2
16882.1
25888.1
17567.5
26755.7
10007.6
15747.5
10509.2
17290.1
12467.7
8701.44
16527.5
6921.23
13233.1
3701.52
15550.9
2519.3
13154
12978.4
17426
8676.96
12018.3
15160.2
16125.7
11172.5
3129.34
2811.16
2276.27
2079.54
1978.94
1657.12
9062.12
7375.04
6044.89
6160.53
4851.61
3850.1
11586.4
9155.23
7930.47
8921.67
6659.35
5653.5
9394.12
6881.36
6124.78
15065.5
10136.9
7616.58
14308.9
9530.52
6761.26
16334
11767.3
9192.89
13778.3
8681.08
5919.66
17569.2
13123
10828.7
13449.8
9718.37
7337.77
12502
8542.86
6056.19
11772.3
8007.69
5697.94
13657.2
7591.83
4202.43
12216.1
19653.3
10532.7
14817.8
10293.8
20856.7
8752.24
17198.8
151.067
1563.43
-233.513
950.648
3535.98
6668.08
2282.62
4176.69
2059.59
4067.73
11415
16739.6
8744.19
6796.91
12491.1
10961.2
17166.8
18432.6
-478.997
-5760.3
8792.81
6125.96
6839.04
3904.68
1423.06
921.405
1197.57
768.01
3895.72
1199.98
2079.84
371.481
10013.6
2850.74
7767.18
2411.99
8787.64
2633.59
9877.49
3168.9
13080.6
12533.3
10121.4
12299.7
20335.5
17947.7
16546.1
16914.8
7222.48
9027.02
8455.73
8408.85
9437.45
12123.4
9882.64
12180.4
15762.1
16466.3
16318.9
16533.4
6357.8
9075.93
6112.45
9132.05
573.227
1051.25
6783.33
3260.41
598.194
824.439
5966.54
2739.38
560.478
934.681
7111.55
3583.66
820.624
1020.04
7134.98
3761.48
-180.968
-320.301
414.938
233.868
-871.632
-1385.46
659.513
313.111
982.004
-54.7693
2152.84
1704.49
-7179.45
-3628.66
-4212.11
-2925.07
-219.332
-6949.93
-9920.93
-4564.95
-4686
-274.76
10044.6
7103.31
5424.85
5152.16
2552.16
-470.702
-372.631
92.0885
122.124
-1407.61
-1437.73
281.021
330.645
-1264.94
-1634.11
956.073
991.23
-2667.43
-935.727
-7337.07
-4700.12
-3808.99
-2445.71
-3562.87
-2745.38
-117.189
334.265
5444.16
3864.11
-51.2886
-1505.71
-517.057
-1492.11
150.921
-727.901
236.009
399.106
4194.51
4429.55
9469.13
5936.39
8941
8305.02
13152.5
10001.3
6792.69
4051.15
2339.52
2892.02
11137.1
4777.42
11937.8
4476.71
15064.9
9732.5
16082
9484.56
8158.48
2960.75
8839.1
2579.18
4544
3403.54
2774.25
4914.15
2092.89
2710.85
1650.11
4044.29
5003.12
3080.46
3441.13
5654.81
6130.95
2828.19
4237.83
5484.49
-398.827
-431.792
-474.342
70.1611
-93.1857
-112.96
-1457.79
-1533.35
-1564.93
113.317
-360.525
-414.121
-1800.29
-2221.16
-2362.29
509.259
-637.742
-840.341
-151.994
-756.08
-663.538
-3024.68
-3152.67
-2838.93
-2302.03
-2554.95
-2410.36
-2549.45
-2874.84
-2849.08
219.051
-915.218
-829.818
4490.05
2321.48
1373.76
-326.91
-1295.34
-1624.11
-724.724
-1604.52
-1825.5
-482.225
-1439.16
-1625.45
1088.99
-574.489
-673.994
72.9458
8.3512
-8.52298
-19.6231
-46.1216
-47.1758
-57.1932
-43.7244
198.368
27.2337
-32.0273
-59.7282
-109.862
-114.259
-128.195
-101.366