/*--------------------------------*- C++ -*----------------------------------*\
| =========                 |                                                 |
| \\      /  F ield         | OpenFOAM: The Open Source CFD Toolbox           |
|  \\    /   O peration     | Version:  2412                                  |
|   \\  /    A nd           | Website:  www.openfoam.com                      |
|    \\/     M anipulation  |                                                 |
\*---------------------------------------------------------------------------*/
FoamFile
{
    version     2.0;
    format      ascii;
    arch        "LSB;label=32;scalar=64";
    class       volScalarField;
    location    "1.1";
    object      T;
}
// * * * * * * * * * * * * * * * * * * * * * * * * * * * * * * * * * * * * * //

dimensions      [0 0 0 1 0 0 0];

internalField   nonuniform List<scalar> 
5712
(
536.217
554.812
521.989
544.21
503.169
528.672
474.518
501.993
478.546
506.248
505.175
532.625
517.505
542.672
529.143
550.965
493.007
474.522
512.367
484.223
465.114
445.552
483.057
453.679
544.566
551.604
559.337
562.89
533.527
542.75
550.989
556.536
532.342
517.663
503.716
495.19
532.755
545.149
534.526
540.702
493.27
501.138
508.911
515.194
462.469
469.124
546.944
552.547
514.314
524.884
558.418
564.878
556.42
565.949
565.66
570.106
548.277
562.836
559.987
568.005
537.206
557.526
548.322
563.379
556.021
566.11
560.609
567.782
458.462
441.984
467.381
446.342
423.688
409.311
432.49
414.031
496.69
476.111
488.501
471.405
473.341
449.176
476.655
450.55
438.523
417.063
441.789
418.52
502.549
479.161
505.78
480.601
524.882
555.631
506.771
543.04
517.275
550.639
501.207
538.396
529.966
558.061
509.995
545.65
532.585
559.058
511.395
547.176
549.982
536.271
561.859
551.71
540.747
526.992
557.9
546.527
527.47
513.315
551.022
538.263
440.192
400.73
476.634
506.451
541.16
399.16
437.49
470.747
498.401
529.745
398.49
434.52
465.377
493.473
529.157
509.262
484.147
513.874
489.815
503.551
478.62
511.883
487.474
494.289
470.439
508.315
483.988
391.22
376.231
428.573
412.344
458.977
439.21
482.741
460.56
505.104
480.989
390.083
373.871
424.398
407.744
453.385
434.593
479.035
457.621
503.562
479.041
424.724
412.442
424.984
413.286
390.063
368.621
389.762
366.671
455.951
446.475
454.946
443.891
425.206
413.237
426.143
414.375
390.362
366.256
391.613
367.978
456.265
446.736
457.327
447.955
484.948
475.666
510.537
501.846
482.885
471.65
508.249
496.559
485.318
476.042
511.397
503.443
485.927
476.829
511.664
503.282
454.884
430.301
416.723
458.257
432.643
418.842
450.433
425.525
411.965
455.864
429.404
415.193
441.753
416.429
402.628
452.008
424.17
409.36
356.772
341.952
334.204
390.306
369.809
358.71
414.707
390.701
377.343
432.621
407.053
393.175
447.484
418.203
402.5
353.446
338.24
329.938
387.16
367.926
357.52
410.658
387.796
375.309
428.611
402.066
387.671
442.239
412.735
397.145
400.024
385.913
404.069
390.277
430.778
413.317
440.007
420.002
370.72
350.089
371.953
351.955
371.706
350.648
373.434
353.025
371.386
368.316
370.728
364.382
349.66
353.548
392.976
395.663
424.621
428.557
372.689
374.658
373.038
374.404
355.579
356.686
328.52
309.62
333.721
312.493
330.035
309.367
335.088
312.577
331.09
308.913
337.267
313.061
339.915
314.783
341.482
316.029
363.638
351.475
370.898
356.425
390.59
376.562
399.294
381.974
349.849
336.61
342.784
332.249
374.855
359.288
377.036
360.682
404.37
385.145
407.121
386.595
353.266
339.153
354.963
340.449
332.271
310.615
321.33
305.972
326.325
307.248
317.958
303.788
335.518
312.808
323.442
307.397
337.216
314.229
324.655
308.241
311.924
302.271
303.733
297.878
313.096
303.834
303.53
298.07
314.589
307.119
303.223
298.86
343.223
366.234
327.039
316.348
302.616
364.145
339.771
321.43
310.509
299.327
364.409
341.603
325.066
313.271
301.204
295.266
289.329
292.366
286.956
297.381
291.226
293.19
287.873
301.064
294.965
294.604
289.444
356.889
343.627
332.924
322.052
316.591
309.008
306.044
299.628
296.42
291.496
356.651
342.984
335.07
324.237
319.596
311.238
308.457
301.4
298.67
293.681
338.19
324.965
339.496
324.791
358.441
341.397
359.844
339.984
323.779
312.9
322.527
312.523
340.59
324.715
341.871
326.041
361.507
338.924
363.012
340.418
324.712
313.263
325.732
314.277
310.873
302.974
300.856
294.456
310.487
302.25
300.203
294.196
311.143
303.687
301.206
294.587
312.391
304.31
301.691
295.473
282.629
278.922
277.446
278.419
275.966
275.128
284.699
280.596
278.852
279.252
276.634
275.654
288.103
283.451
281.51
280.578
277.624
276.529
328.883
318.217
312.947
311.556
303.912
300.332
300.418
294.413
291.801
291.894
286.716
284.482
281.911
278.733
277.423
327.425
316.211
310.611
312.423
303.683
299.33
301.598
294.706
291.404
292.461
287.311
285.124
282.841
279.591
277.972
294.651
285.83
280.959
277.845
295.806
286.25
281.155
277.896
294.526
285.825
281.001
277.901
295.929
286.355
281.28
277.989
294.266
285.787
281.073
277.992
296.071
286.496
281.437
278.103
296.862
286.904
281.558
278.135
297.577
287.316
281.683
278.171
295.228
286.265
281.346
278.138
293.598
285.717
280.996
278.12
293.779
285.669
281.074
278.082
292.644
285.301
280.806
278.09
296.262
286.742
281.508
278.162
294.351
286.083
281.139
278.158
297.009
287.132
281.666
278.228
294.931
286.398
281.295
278.243
292.733
285.168
280.675
277.799
290.548
284.418
280.303
277.763
292.597
285.144
280.687
277.839
290.568
284.443
280.314
277.798
292.377
285.099
280.703
277.907
290.784
284.548
280.37
277.862
292.044
285.02
280.686
277.99
290.914
284.622
280.427
277.954
291.675
284.923
280.607
278.056
288.645
283.807
279.855
277.811
287.604
283.517
279.651
277.798
288.935
283.917
279.915
277.849
287.932
283.638
279.709
277.833
289.422
284.108
280.009
277.91
288.496
283.852
279.803
277.892
290.039
284.343
280.158
278.005
289.232
284.129
279.942
277.973
290.859
284.654
280.335
278.101
290
284.425
280.081
278.054
291.996
285.223
280.535
278.22
291.075
284.999
280.331
278.206
291.49
284.939
280.438
278.165
290.638
284.729
280.213
278.133
292.412
285.493
280.613
278.265
291.458
285.263
280.424
278.267
292.852
285.771
280.741
278.341
291.898
285.535
280.549
278.347
275.747
274.596
273.91
273.535
273.372
275.757
274.599
273.912
273.536
273.372
275.766
274.604
273.914
273.537
273.373
275.781
274.609
273.917
273.538
273.373
275.786
274.613
273.918
273.539
273.374
275.815
274.626
273.924
273.542
273.375
275.867
274.651
273.936
273.548
273.379
275.915
274.675
273.948
273.553
273.382
275.836
274.636
273.929
273.544
273.377
275.839
274.636
273.929
273.544
273.377
275.807
274.623
273.923
273.541
273.375
275.822
274.628
273.925
273.542
273.376
275.868
274.651
273.936
273.548
273.379
275.869
274.651
273.936
273.547
273.379
275.918
274.677
273.948
273.554
273.383
275.917
274.676
273.948
273.554
273.382
275.735
274.592
273.909
273.535
273.371
275.727
274.59
273.908
273.534
273.371
275.749
274.598
273.912
273.536
273.372
275.741
274.595
273.91
273.535
273.372
275.769
274.606
273.915
273.537
273.373
275.76
274.602
273.913
273.537
273.372
275.791
274.615
273.919
273.539
273.374
275.782
274.611
273.917
273.538
273.373
275.808
274.622
273.922
273.541
273.375
525.023
518.572
524.527
518.107
523.576
517.263
522.544
516.108
522.142
515.411
525.327
521.826
523.755
519.155
526.24
523.01
526.861
523.63
562.783
570.725
572.479
572.883
572.97
554.276
568.418
571.95
572.768
572.942
563.017
570.815
572.504
572.889
572.972
554.377
568.502
571.977
572.776
572.945
563.172
570.898
572.528
572.895
572.973
554.421
568.585
572.007
572.784
572.947
563.412
570.996
572.554
572.901
572.975
554.464
568.655
572.028
572.789
572.948
563.684
571.061
572.565
572.902
572.975
554.601
568.684
572.028
572.787
572.947
562.638
570.604
572.428
572.865
572.964
554.697
568.351
571.889
572.744
572.933
563.014
570.801
572.491
572.883
572.969
554.565
568.5
571.958
572.766
572.94
562.405
570.479
572.385
572.852
572.96
554.813
568.279
571.848
572.73
572.928
562.626
570.52
572.389
572.852
572.959
555.051
568.316
571.846
572.726
572.927
407.161
448.522
445.537
405.07
385.933
387.866
393.515
396.861
407.095
410.598
435.19
443.009
440.038
447.543
416.118
418.949
406.327
408.96
397.257
399.38
344.081
326.558
286.84
283.022
285.236
283.151
286.195
341.064
333.007
317.435
320.958
314.488
299.123
307.278
302
294.754
296.877
293.385
336.912
311.911
297.547
296.099
301.669
298.544
292.763
292.269
289.863
288.158
293.014
292.128
338.3
318.103
323.775
308.291
302.393
312.773
293.162
288.05
295.291
329.417
316.544
305.975
295.364
281.705
317.485
308.376
299.4
289.999
279.036
285.345
283.306
280.724
277.777
274.616
281.975
280.526
278.659
276.507
274.187
283.942
282.159
279.875
277.253
274.439
282.093
280.625
278.734
276.552
274.202
284.783
282.848
280.385
277.567
274.545
327.247
313.871
303.159
292.871
280.829
319.851
307.924
298.234
288.988
278.705
310.021
302.118
294.211
286.195
277.577
310.685
301.078
293.016
285.348
277.396
305.913
297.487
290.358
283.591
276.669
295.676
291.431
286.542
281.295
275.803
302.01
296.071
289.762
283.262
276.492
297.778
292.835
287.417
281.777
275.961
292.103
288.691
284.6
280.115
275.4
293.8
289.951
285.46
280.619
275.568
290.959
287.794
283.956
279.721
275.266
324.724
312.475
302.4
292.425
280.56
306.156
299.556
292.522
285.141
277.171
294.485
290.601
286.009
280.995
275.703
293.306
289.707
285.39
280.629
275.58
297.929
293.313
288.002
282.256
276.143
295.41
291.403
286.646
281.415
275.846
290.494
287.494
283.806
279.672
275.256
290.066
287.144
283.539
279.499
275.196
287.982
285.451
282.287
278.722
274.932
286.503
284.256
281.418
278.196
274.756
290.675
287.601
283.843
279.669
275.251
289.936
287.029
283.445
279.434
275.174
325.471
313.406
303.439
293.388
280.894
311.107
303.548
295.709
287.399
278.041
315.965
306.432
297.717
288.664
278.115
303.535
297.773
291.35
284.408
276.868
298.665
293.979
288.542
282.603
276.246
307.052
300.256
293.078
285.491
277.188
290.836
287.766
283.999
279.785
275.294
286.405
284.173
281.358
278.163
274.745
292.641
289.197
285.031
280.414
275.507
492.194
539.07
483.347
527.744
457.35
505.692
465.416
518.177
473.12
460.886
505.237
478.043
446.774
433.33
476.762
448.155
511.784
528.258
548.428
555.124
505.067
521.664
541.016
549.266
524.575
498.237
497.686
482.135
516.353
538.584
532.07
540.147
490.402
500.388
506.413
514.516
459.8
468.348
544.536
552.059
511.722
524.245
556.635
564.595
543.244
561.522
561.065
568.571
535.709
558.814
555.355
566.504
527.126
554.404
543.687
561.871
554.298
565.495
560.259
567.646
453.695
441.574
464.236
445.773
421.106
410.953
430.403
414.461
493.288
475.142
482.987
470.032
471.723
448.799
476.198
450.423
437.349
417.151
441.441
418.534
500.866
478.612
505.308
480.422
522.005
554.633
505.937
542.784
512.304
548.948
499.894
538.071
528.589
557.568
509.543
545.501
532.206
558.917
511.25
547.127
529.248
513.488
555.108
544.253
521.486
506.416
552.117
540.38
512.441
498.339
546.842
534.402
442.289
410.899
472.463
500.154
539.119
410.862
439.869
465.605
490.914
527.773
407.177
436.945
464.184
491.629
528.943
489.263
470.154
507.157
489.544
485.463
466.234
506.908
488.493
481.116
462.547
506.051
487.023
402.543
390.279
431.133
417.744
455.275
439.363
477.681
460.213
504.919
485.415
399.007
384.542
428.234
415.135
454.271
440.101
479.356
462.76
504.87
484.388
427.207
416.591
426.417
415.567
394.983
375.131
392.445
370.361
456.645
447.942
455.998
446.679
425.895
414.324
426.342
414.684
391.576
367.891
391.96
368.446
456.623
447.449
457.43
448.159
485.378
476.665
510.986
502.659
483.505
473.805
509.059
498.448
485.556
476.513
511.618
503.798
486.001
476.971
511.724
503.376
455.811
448.265
473.652
466.218
451.603
443.289
471.958
462.898
447.634
438.751
469.134
457.557
377.881
370.886
405.285
396.563
426.277
416.284
445.075
434.438
465.119
450.94
368.482
362.522
402.545
394.639
425.906
415.988
444.603
432.032
459.423
445.05
387.693
379.654
397.492
387.194
416.009
404.164
433.999
415.618
367.954
349.406
372.937
353.137
366.278
349.554
371.916
353.564
369.379
363.341
369.607
362.102
349.407
353.867
391.391
395.18
422.348
427.846
371.684
374.352
372.409
374.196
355.774
356.767
335.698
317.454
337.836
318.246
336.534
316.678
338.491
317.579
336.945
315.43
339.854
316.999
341.278
317.123
341.916
316.815
366.384
357.398
371.492
359.271
390.821
380.757
398.526
383.725
351.948
340.167
347.98
338.94
374.962
360.615
377.049
361.092
403.781
385.876
406.929
386.809
354.153
340.921
355.208
341.01
335.602
314.163
325.045
309.253
333.076
312.984
324.422
308.942
337.099
314.758
325.387
309.222
337.674
314.843
325.289
308.837
332.079
329.105
315.522
312.758
332.613
329.671
314.564
311.85
332.319
329.533
313.121
310.595
360.068
382.339
342.747
329.72
311.072
383.048
360.534
342.054
328.097
309.498
378.194
355.848
337.839
323.893
308.457
325.845
321.073
308.709
301.823
326.589
322.088
308.161
301.642
326.441
321.785
307.288
301.211
375.661
365.235
354.784
346.717
338.385
332.893
324.852
319.535
306.988
301.507
370.336
357.328
349.956
339.726
333.298
325.343
319.841
312.813
306.428
301.479
346.211
333.193
343.759
329.217
365.706
349.482
363.67
344.418
328.033
316.978
330.272
320.023
342.572
326.7
342.454
326.613
363.22
340.88
363.503
340.978
326.76
315.128
326.35
314.826
314.642
306.367
304.001
297.071
317.233
308.385
305.354
298.697
313.058
305.327
302.874
295.887
313.02
304.824
302.182
295.849
316.284
314.252
289.562
287.844
318.497
315.964
290.011
288.162
317.166
313.511
290.303
288.042
355.317
349.465
339.22
334.815
326.609
322.864
313.27
309.378
290.46
287.675
344.42
339.891
329.533
325.662
316.648
313.341
304.14
301.772
289.146
286.921
299.569
288.505
282.424
278.623
299.973
288.644
282.514
278.632
299.135
288.346
282.385
278.633
299.593
288.484
282.503
278.654
298.389
288.061
282.34
278.671
299.01
288.23
282.448
278.65
298.718
288.034
282.212
278.476
298.226
287.72
281.92
278.299
297.667
287.695
282.185
278.608
295.806
287.014
281.758
278.58
297.284
287.621
282.178
278.69
295.858
287.106
281.808
278.659
297.716
287.627
282.047
278.482
295.643
286.868
281.618
278.465
297.497
287.435
281.851
278.336
295.358
286.662
281.459
278.349
298.77
288.225
282.276
278.639
297.605
287.837
282.002
278.664
298.337
288.079
282.228
278.648
297.257
287.731
281.953
278.671
297.642
287.832
282.148
278.674
296.722
287.55
281.888
278.687
296.635
287.449
281.987
278.7
296.19
287.347
281.817
278.717
295.773
287.13
281.777
278.706
296.29
287.475
281.579
278.806
295.381
287.288
281.401
278.848
296.105
287.414
281.579
278.814
295.22
287.227
281.393
278.848
295.767
287.29
281.551
278.812
294.94
287.111
281.36
278.841
295.477
287.142
281.551
278.825
294.717
286.971
281.339
278.836
295.157
286.954
281.534
278.827
294.431
286.796
281.291
278.819
294.187
286.531
281.267
278.691
293.231
286.313
281.054
278.681
294.724
286.766
281.424
278.779
293.866
286.575
281.192
278.767
293.671
286.278
281.064
278.565
292.674
286.044
280.863
278.561
293.256
286.03
280.891
278.442
292.283
285.789
280.694
278.445
276.112
274.772
273.995
273.577
273.396
276.109
274.771
273.994
273.576
273.396
276.105
274.767
273.992
273.575
273.395
276.095
274.762
273.99
273.574
273.395
276.092
274.76
273.988
273.573
273.394
276.068
274.749
273.983
273.571
273.393
276.025
274.728
273.973
273.566
273.39
275.976
274.705
273.962
273.561
273.387
276.055
274.742
273.979
273.569
273.392
276.057
274.742
273.979
273.569
273.392
276.078
274.753
273.984
273.572
273.393
276.072
274.748
273.982
273.57
273.392
276.026
274.728
273.973
273.566
273.39
276.026
274.729
273.973
273.566
273.39
275.971
274.703
273.961
273.56
273.386
275.972
274.704
273.962
273.56
273.386
276.116
274.775
273.996
273.577
273.397
276.12
274.776
273.996
273.578
273.397
276.112
274.771
273.993
273.576
273.396
276.117
274.772
273.994
273.577
273.396
276.104
274.765
273.99
273.574
273.395
276.111
274.767
273.991
273.575
273.395
276.093
274.758
273.987
273.573
273.394
276.1
274.761
273.988
273.573
273.394
276.082
274.753
273.984
273.571
273.393
522.833
517.792
523.037
517.978
523.176
518.121
523.074
517.78
523.196
517.466
525.824
522.442
524.583
520.373
526.49
523.293
526.934
523.709
562.584
570.71
572.479
572.883
572.97
554.09
568.396
571.949
572.769
572.943
562.907
570.811
572.505
572.889
572.972
554.34
568.504
571.98
572.777
572.945
563.196
570.911
572.532
572.896
572.973
554.609
568.622
572.014
572.786
572.947
563.551
571.024
572.559
572.902
572.975
554.843
568.722
572.04
572.791
572.948
563.875
571.095
572.572
572.903
572.975
555.053
568.765
572.042
572.789
572.947
562.758
570.631
572.433
572.866
572.964
554.921
568.404
571.9
572.746
572.934
563.189
570.836
572.498
572.884
572.969
554.927
568.575
571.972
572.769
572.941
562.47
570.495
572.388
572.853
572.96
554.927
568.309
571.855
572.731
572.928
562.646
570.525
572.39
572.852
572.959
555.085
568.325
571.848
572.727
572.927
406.323
447.534
442.348
402.082
392.817
400.22
390.704
399.728
421.951
440.833
426.128
444.033
274.433
274.719
275.357
276.423
278.001
280.188
274.663
274.962
275.62
276.697
278.274
280.454
274.252
274.162
274.53
274.433
275.162
275.055
276.261
276.175
277.914
277.927
280.245
280.466
283.065
287.016
292.693
301.041
308.443
313.929
283.371
287.215
292.139
297.885
303.024
306.334
274.295
274.096
273.832
273.519
273.176
274.552
274.313
273.996
273.621
273.211
275.126
274.797
274.362
273.848
273.288
276.084
275.603
274.97
274.226
273.416
277.499
276.791
275.864
274.781
273.604
279.454
278.427
277.092
275.54
273.861
274.502
274.271
273.964
273.601
273.204
274.77
274.497
274.135
273.708
273.24
275.361
274.995
274.511
273.941
273.319
276.328
275.808
275.123
274.321
273.448
277.741
276.992
276.014
274.873
273.635
279.687
278.619
277.233
275.627
273.89
274.131
273.958
273.727
273.454
273.154
274.05
273.89
273.676
273.422
273.143
274.381
274.169
273.887
273.553
273.188
274.294
274.096
273.832
273.519
273.176
274.95
274.649
274.25
273.779
273.265
274.854
274.569
274.189
273.742
273.252
275.939
275.482
274.879
274.17
273.397
275.862
275.418
274.831
274.14
273.387
277.422
276.728
275.817
274.752
273.594
277.434
276.739
275.826
274.757
273.596
279.506
278.472
277.126
275.562
273.868
279.704
278.639
277.251
275.639
273.894
282.012
280.556
278.682
276.521
274.192
285.498
283.435
280.822
277.84
274.638
290.447
287.474
283.807
279.681
275.262
297.578
293.2
288.025
282.307
276.159
303.71
298.047
291.619
284.609
276.977
308.147
301.514
294.21
286.31
277.591
282.279
280.774
278.843
276.621
274.226
285.674
283.579
280.93
277.907
274.661
289.983
287.112
283.548
279.523
275.209
294.955
291.152
286.534
281.373
275.839
299.344
294.69
289.152
283.011
276.404
302.143
296.934
290.819
284.066
276.771
274.461
274.809
275.527
276.707
278.444
280.841
274.694
275.059
275.799
276.983
278.697
281.039
274.277
274.186
274.612
274.511
275.324
275.212
276.548
276.46
278.388
278.421
281.01
281.35
283.952
288.131
293.963
302.218
309.276
314.231
284.123
288.104
293.082
298.733
303.616
306.546
274.32
274.118
273.848
273.529
273.18
274.633
274.382
274.049
273.654
273.222
275.28
274.928
274.462
273.911
273.31
276.342
275.823
275.138
274.331
273.452
277.901
277.135
276.127
274.946
273.66
280.047
278.934
277.48
275.784
273.944
274.53
274.295
273.982
273.613
273.208
274.859
274.572
274.192
273.743
273.253
275.524
275.134
274.617
274.007
273.342
276.588
276.029
275.293
274.427
273.484
278.125
277.32
276.265
275.03
273.689
280.22
279.074
277.582
275.846
273.965
274.154
273.977
273.742
273.463
273.157
274.072
273.908
273.69
273.431
273.146
274.456
274.233
273.936
273.584
273.198
274.365
274.156
273.878
273.548
273.186
275.098
274.775
274.346
273.839
273.285
274.997
274.69
274.282
273.799
273.272
276.199
275.704
275.048
274.276
273.433
276.121
275.638
274.999
274.246
273.423
277.853
277.096
276.098
274.928
273.654
277.883
277.121
276.118
274.941
273.659
280.202
279.066
277.581
275.848
273.966
280.509
279.326
277.778
275.97
274.007
282.821
281.248
279.214
276.857
274.307
286.519
284.312
281.499
278.269
274.785
291.617
288.488
284.596
280.184
275.435
298.676
294.165
288.789
282.801
276.331
304.498
298.749
292.183
284.981
277.109
308.436
301.774
294.422
286.452
277.642
282.965
281.362
279.295
276.906
274.324
286.487
284.279
281.47
278.249
274.778
290.85
287.862
284.131
279.894
275.336
295.739
291.836
287.069
281.717
275.958
299.895
295.173
289.533
283.258
276.49
302.341
297.109
290.958
284.156
276.802
344.6
327.001
288.33
284.117
287.277
284.619
288.056
348.497
345.144
325.105
335.579
305.036
315.161
299.968
303.696
298.358
341.358
316.672
302.067
299.733
305.709
301.463
294.665
294.952
293.768
291.222
297.109
295.454
340
319.386
326.816
310.193
304.799
316.258
295.535
290.436
298.374
329.97
317.068
306.439
295.721
281.85
317.925
308.783
299.742
290.24
279.125
286.707
284.478
281.628
278.349
274.812
282.973
281.38
279.315
276.92
274.329
285.801
283.75
281.096
278.024
274.702
283.428
281.766
279.608
277.103
274.391
286.481
284.305
281.506
278.276
274.787
335.112
321.278
309.502
297.442
282.669
332.56
319.431
307.869
295.81
281.376
317.527
308.925
299.782
289.964
278.95
325.704
314.18
303.658
292.66
280.208
301.229
296.32
290.408
283.803
276.68
309.614
302.871
295.231
286.885
277.79
296.932
292.895
287.888
282.224
276.13
300.127
295.464
289.78
283.401
276.536
295.554
291.788
287.073
281.717
275.955
329.325
316.82
306.134
295.116
281.644
310.724
303.667
295.853
287.358
277.962
298.697
294.291
288.913
282.868
276.354
296.678
292.652
287.699
282.113
276.094
301.72
296.66
290.659
283.984
276.747
298.126
293.784
288.522
282.624
276.265
292.247
289.016
284.992
280.429
275.516
292.536
289.284
285.204
280.56
275.562
291.548
288.513
284.649
280.218
275.445
289.296
286.648
283.258
279.359
275.154
294.453
290.879
286.398
281.3
275.814
292.997
289.681
285.506
280.748
275.626
327.256
315.066
304.874
294.447
281.331
312.353
304.679
296.64
288.033
278.27
318.981
309.18
300
290.226
278.645
305.336
299.378
292.638
285.254
277.162
300.919
295.967
290.118
283.626
276.601
310.398
303.26
295.514
287.11
277.754
293.025
289.666
285.48
280.731
275.62
288.585
286.046
282.804
279.078
275.059
295.496
291.684
286.979
281.663
275.938
276.986
284.688
291.83
298.252
303.633
307.843
469.575
463.698
438.263
444.048
454.933
447.59
429.963
420.438
491.564
511.429
486.983
506.046
480.876
470.569
500.407
457.39
453.183
428.936
433.297
446.025
440.727
422.117
414.861
478.42
493.85
475.532
490.229
470.625
462.266
486.033
440.299
437.823
415.638
418.508
432.903
430.104
410.681
405.594
459.02
474.186
457.35
472.077
454.499
449.023
469.439
422.959
421.418
401.486
403.562
417.964
416.383
397.597
393.413
440.531
455.571
439.504
453.895
437.353
432.916
451.735
410.415
409.146
391.092
392.924
405.887
404.104
387.412
382.761
426.524
440.155
425.842
439.506
424.039
419.845
437.763
401.755
400.554
384.035
385.773
397.365
395.492
380.499
375.99
416.152
429.93
415.507
429.709
414.008
410.053
427.911
385.303
382.414
409.656
413.626
378.641
371.48
403.78
394.44
361.799
342.539
359.562
342.15
354.728
353.573
341.444
380.506
377.717
402.97
406.34
374.117
367.411
397.716
389.488
356.48
340.295
354.176
340.18
349.943
349.223
339.422
373.389
370.893
392.993
395.61
367.638
361.921
388.71
382.145
353.88
338.773
351.871
338.112
348.045
347.258
336.833
365.383
362.986
381.842
384.037
359.37
353.481
377.99
371.556
349.355
336.173
347.228
334.774
343.276
341.727
332.605
359.49
357.16
373.648
375.687
353.716
347.953
369.938
363.613
345.758
334.688
343.421
332.263
339.227
336.926
329.062
355.752
353.45
368.188
370.157
350.111
344.42
364.592
358.542
344.202
333.187
341.698
330.082
336.827
334
326.409
536.928
555.286
521.987
544.179
503.171
528.66
474.523
501.993
478.556
506.25
505.187
532.619
517.526
542.66
530.082
551.6
493.005
474.519
512.361
484.22
465.116
445.552
483.057
453.679
545.079
551.989
559.656
563.127
533.517
542.73
550.953
556.502
532.328
517.654
503.71
495.184
532.741
545.133
534.524
540.701
493.268
501.136
508.911
515.194
462.468
469.123
546.94
552.545
514.31
524.882
558.414
564.877
556.727
566.09
565.849
570.183
548.253
562.83
559.959
567.997
537.193
557.521
548.31
563.374
556.016
566.108
560.607
567.781
458.459
441.982
467.379
446.34
423.687
409.31
432.489
414.03
496.686
476.108
488.497
471.402
473.339
449.174
476.653
450.548
438.522
417.062
441.788
418.519
502.546
479.159
505.778
480.599
524.877
555.629
506.768
543.039
517.268
550.636
501.204
538.395
529.963
558.06
509.993
545.649
532.582
559.057
511.394
547.175
550.287
536.554
562.031
551.899
540.711
526.95
557.891
546.513
527.452
513.299
551.016
538.259
440.189
400.729
476.629
506.443
541.157
399.159
437.487
470.742
498.392
529.742
398.489
434.518
465.373
493.469
529.156
509.487
484.315
514.031
489.923
503.535
478.598
511.897
487.481
494.279
470.43
508.317
483.991
391.219
376.23
428.571
412.342
458.973
439.207
482.735
460.556
505.104
480.989
390.082
373.87
424.396
407.742
453.382
434.591
479.032
457.619
503.561
479.041
424.722
412.44
424.982
413.284
390.062
368.62
389.761
366.67
455.949
446.473
454.943
443.889
425.204
413.236
426.142
414.374
390.361
366.255
391.612
367.978
456.264
446.735
457.325
447.954
484.947
475.665
510.536
501.845
482.883
471.648
508.248
496.558
485.317
476.041
511.396
503.442
485.926
476.828
511.663
503.281
455.049
430.479
416.921
458.361
432.775
418.995
450.42
425.515
411.96
455.868
429.407
415.197
441.747
416.425
402.626
452.009
424.171
409.361
356.772
341.951
334.204
390.304
369.808
358.71
414.705
390.7
377.342
432.619
407.051
393.174
447.485
418.203
402.5
353.446
338.239
329.938
387.158
367.925
357.519
410.656
387.795
375.309
428.61
402.065
387.671
442.239
412.735
397.145
400.031
385.915
404.076
390.279
430.785
413.319
440.012
420.004
370.585
350.031
371.787
351.876
371.691
350.635
373.418
353.013
371.383
368.313
370.727
364.381
349.654
353.543
392.977
395.664
424.622
428.557
372.689
374.659
373.038
374.405
355.578
356.686
328.468
309.613
333.659
312.481
330.033
309.359
335.085
312.571
331.087
308.91
337.264
313.058
339.914
314.782
341.483
316.028
363.639
351.475
370.899
356.425
390.591
376.562
399.294
381.973
349.849
336.61
342.784
332.249
374.855
359.288
377.036
360.682
404.37
385.145
407.121
386.594
353.266
339.153
354.964
340.449
332.27
310.614
321.33
305.972
326.324
307.247
317.958
303.787
335.518
312.808
323.442
307.397
337.216
314.229
324.655
308.241
311.883
302.212
303.724
297.854
313.097
303.837
303.523
298.065
314.589
307.12
303.219
298.858
343.223
366.234
327.039
316.348
302.615
364.145
339.771
321.43
310.51
299.327
364.408
341.603
325.066
313.271
301.203
295.196
289.257
292.342
286.931
297.388
291.234
293.194
287.879
301.067
294.969
294.605
289.447
356.888
343.627
332.924
322.052
316.592
309.009
306.045
299.63
296.42
291.497
356.65
342.984
335.07
324.237
319.596
311.239
308.457
301.4
298.67
293.682
338.19
324.964
339.496
324.791
358.44
341.397
359.844
339.983
323.779
312.9
322.527
312.523
340.59
324.715
341.87
326.04
361.507
338.923
363.011
340.418
324.712
313.262
325.732
314.277
310.873
302.974
300.856
294.456
310.487
302.25
300.202
294.196
311.142
303.687
301.206
294.587
312.391
304.31
301.691
295.473
282.569
278.872
277.4
278.413
275.957
275.118
284.711
280.606
278.86
279.26
276.641
275.659
288.108
283.455
281.513
280.582
277.627
276.532
328.883
318.217
312.947
311.556
303.912
300.333
300.419
294.414
291.802
291.896
286.718
284.484
281.912
278.735
277.424
327.425
316.211
310.611
312.423
303.683
299.33
301.598
294.707
291.405
292.462
287.312
285.125
282.842
279.591
277.973
294.653
285.83
280.956
277.842
295.802
286.246
281.149
277.892
294.523
285.824
281.001
277.901
295.928
286.354
281.279
277.989
294.265
285.786
281.073
277.992
296.07
286.496
281.437
278.103
296.861
286.904
281.558
278.135
297.576
287.316
281.683
278.171
295.227
286.264
281.346
278.138
293.598
285.717
280.996
278.12
293.778
285.668
281.074
278.082
292.644
285.3
280.806
278.09
296.261
286.742
281.508
278.162
294.35
286.083
281.139
278.158
297.008
287.132
281.666
278.228
294.931
286.398
281.295
278.243
292.736
285.169
280.673
277.797
290.544
284.417
280.301
277.761
292.595
285.143
280.686
277.839
290.567
284.442
280.314
277.798
292.375
285.098
280.702
277.906
290.784
284.548
280.37
277.862
292.044
285.019
280.686
277.99
290.913
284.622
280.427
277.954
291.675
284.922
280.607
278.056
288.642
283.806
279.854
277.81
287.596
283.514
279.649
277.796
288.937
283.918
279.915
277.849
287.935
283.639
279.709
277.832
289.422
284.108
280.009
277.91
288.497
283.852
279.803
277.892
290.039
284.343
280.158
278.005
289.233
284.129
279.942
277.973
290.859
284.654
280.335
278.101
290
284.425
280.081
278.053
291.996
285.223
280.535
278.22
291.075
284.999
280.331
278.205
291.49
284.939
280.438
278.165
290.638
284.729
280.212
278.133
292.412
285.492
280.613
278.265
291.458
285.263
280.424
278.267
292.852
285.771
280.741
278.341
291.898
285.535
280.549
278.347
275.746
274.595
273.91
273.535
273.372
275.755
274.598
273.911
273.536
273.372
275.766
274.604
273.914
273.537
273.373
275.781
274.609
273.917
273.538
273.373
275.786
274.613
273.918
273.539
273.374
275.815
274.626
273.924
273.542
273.375
275.867
274.651
273.936
273.548
273.379
275.915
274.675
273.948
273.553
273.382
275.836
274.636
273.929
273.544
273.377
275.839
274.636
273.929
273.544
273.377
275.807
274.623
273.923
273.541
273.375
275.822
274.628
273.925
273.542
273.376
275.868
274.651
273.936
273.548
273.379
275.869
274.651
273.936
273.547
273.379
275.918
274.677
273.948
273.554
273.383
275.917
274.676
273.948
273.554
273.382
275.734
274.592
273.909
273.535
273.371
275.726
274.589
273.908
273.534
273.371
275.749
274.598
273.912
273.536
273.372
275.741
274.595
273.91
273.535
273.372
275.769
274.606
273.915
273.538
273.373
275.76
274.602
273.913
273.537
273.372
275.791
274.615
273.919
273.539
273.374
275.782
274.611
273.917
273.538
273.373
275.808
274.622
273.922
273.541
273.375
525.082
518.637
524.548
518.128
523.586
517.273
522.548
516.112
522.143
515.412
525.326
521.826
523.755
519.155
526.239
523.01
526.86
523.63
562.829
570.737
572.482
572.883
572.97
554.306
568.425
571.952
572.769
572.943
563.035
570.821
572.506
572.889
572.972
554.396
568.509
571.98
572.777
572.945
563.178
570.9
572.529
572.895
572.973
554.431
568.589