/*--------------------------------*- C++ -*----------------------------------*\
| =========                 |                                                 |
| \\      /  F ield         | OpenFOAM: The Open Source CFD Toolbox           |
|  \\    /   O peration     | Version:  2412                                  |
|   \\  /    A nd           | Website:  www.openfoam.com                      |
|    \\/     M anipulation  |                                                 |
\*---------------------------------------------------------------------------*/
FoamFile
{
    version     2.0;
    format      ascii;
    arch        "LSB;label=32;scalar=64";
    class       volScalarField;
    location    "50/bottomWater";
    object      p;
}
// * * * * * * * * * * * * * * * * * * * * * * * * * * * * * * * * * * * * * //

dimensions      [1 -1 -2 0 0 0 0];

internalField   nonuniform List<scalar> 
1460
(
353.16345
353.1631
353.16294
353.1628
353.16268
353.16256
353.16245
353.16234
353.16223
353.16211
353.16199
353.16185
353.1617
353.16153
353.16135
353.16118
353.16103
353.1609
353.16079
353.1607
353.16062
353.16054
353.16047
353.16041
353.16034
353.16028
353.16022
353.16015
353.16009
353.16003
274.68321
274.68302
274.68288
274.68277
274.68265
274.68255
274.68244
274.68233
274.68222
274.68211
274.68199
274.68185
274.6817
274.68153
274.68136
274.68119
274.68104
274.6809
274.68079
274.6807
274.68061
274.68054
274.68047
274.6804
274.68034
274.68028
274.68021
274.68015
274.68009
274.68002
196.20324
196.20305
196.20291
196.20279
196.20268
196.20256
196.20245
196.20234
196.20223
196.20211
196.20199
196.20185
196.2017
196.20153
196.20136
196.20119
196.20104
196.20091
196.20079
196.2007
196.20062
196.20055
196.20048
196.20041
196.20034
196.20028
196.20021
196.20015
196.20009
196.20002
117.72321
117.72302
117.72288
117.72277
117.72265
117.72255
117.72244
117.72233
117.72222
117.72211
117.72199
117.72185
117.7217
117.72153
117.72136
117.72119
117.72104
117.7209
117.72079
117.7207
117.72061
117.72054
117.72047
117.7204
117.72034
117.72028
117.72021
117.72015
117.72009
117.72002
39.24345
39.243099
39.242935
39.242804
39.24268
39.242563
39.242452
39.242341
39.24223
39.242114
39.241991
39.241854
39.241701
39.241526
39.24135
39.241184
39.241035
39.240904
39.240793
39.240699
39.240618
39.240544
39.240474
39.240408
39.240344
39.24028
39.240216
39.240153
39.24009
39.240027
353.16324
353.16301
353.16288
353.16277
353.16266
353.16255
353.16245
353.16234
353.16224
353.16213
353.162
353.16185
353.16167
353.16144
353.16126
353.16111
353.16097
353.16085
353.16075
353.16067
353.1606
353.16053
353.16047
353.16041
353.16034
353.16028
353.16022
353.16015
353.16009
353.16003
274.683
274.68294
274.68284
274.68274
274.68264
274.68254
274.68244
274.68234
274.68223
274.68212
274.682
274.68185
274.68167
274.68144
274.68125
274.6811
274.68097
274.68084
274.68075
274.68067
274.6806
274.68053
274.68047
274.6804
274.68034
274.68028
274.68022
274.68015
274.68009
274.68002
196.20304
196.20297
196.20287
196.20277
196.20266
196.20256
196.20245
196.20235
196.20224
196.20213
196.202
196.20185
196.20167
196.20144
196.20125
196.2011
196.20097
196.20085
196.20075
196.20067
196.2006
196.20054
196.20047
196.20041
196.20034
196.20028
196.20022
196.20015
196.20009
196.20002
117.723
117.72294
117.72284
117.72274
117.72264
117.72254
117.72244
117.72234
117.72223
117.72212
117.722
117.72185
117.72167
117.72144
117.72125
117.7211
117.72097
117.72084
117.72075
117.72067
117.7206
117.72053
117.72047
117.7204
117.72034
117.72028
117.72022
117.72015
117.72009
117.72002
39.243241
39.24301
39.242876
39.242766
39.242657
39.24255
39.242447
39.242345
39.24224
39.242128
39.242001
39.241851
39.24167
39.241443
39.241261
39.24111
39.240973
39.240849
39.24075
39.24067
39.240599
39.240532
39.240468
39.240405
39.240343
39.24028
39.240218
39.240155
39.240091
39.240027
353.16323
353.16301
353.16288
353.16278
353.16268
353.16258
353.16249
353.1624
353.16231
353.16221
353.16211
353.16197
353.1618
353.16148
353.16125
353.16106
353.16089
353.16074
353.16067
353.16061
353.16057
353.16052
353.16047
353.16041
353.16035
353.16029
353.16023
353.16017
353.1601
353.16003
274.68299
274.68293
274.68285
274.68276
274.68266
274.68257
274.68248
274.68239
274.68231
274.68222
274.68212
274.68199
274.68181
274.68148
274.68123
274.68103
274.68086
274.68071
274.68064
274.6806
274.68056
274.68051
274.68046
274.68041
274.68035
274.68029
274.68023
274.68017
274.6801
274.68003
196.20303
196.20297
196.20288
196.20278
196.20269
196.20259
196.2025
196.20241
196.20232
196.20223
196.20212
196.202
196.20182
196.20149
196.20124
196.20103
196.20086
196.20071
196.20064
196.2006
196.20056
196.20052
196.20047
196.20042
196.20036
196.2003
196.20023
196.20017
196.2001
196.20003
117.72299
117.72293
117.72285
117.72276
117.72266
117.72257
117.72248
117.72239
117.72231
117.72222
117.72212
117.72199
117.72181
117.72148
117.72123
117.72103
117.72086
117.72071
117.72064
117.7206
117.72056
117.72051
117.72046
117.72041
117.72035
117.72029
117.72023
117.72017
117.7201
117.72003
39.243231
39.243009
39.242883
39.24278
39.24268
39.242583
39.24249
39.242399
39.242309
39.242214
39.242106
39.241972
39.241797
39.241485
39.241248
39.241057
39.240889
39.240743
39.240666
39.240615
39.240567
39.240518
39.240465
39.24041
39.240352
39.240291
39.240229
39.240165
39.240099
39.240032
353.16319
353.16298
353.16286
353.16277
353.16268
353.16259
353.16251
353.16243
353.16235
353.16227
353.16217
353.162
353.16167
353.16086
353.16096
353.16086
353.16072
353.16053
353.16055
353.16054
353.16052
353.1605
353.16046
353.16041
353.16035
353.1603
353.16024
353.16017
353.16011
353.16004
274.68295
274.6829
274.68283
274.68275
274.68266
274.68258
274.6825
274.68242
274.68235
274.68228
274.68219
274.68202
274.68161
274.68061
274.68084
274.68081
274.68067
274.68048
274.6805
274.68052
274.68051
274.68049
274.68046
274.68041
274.68036
274.6803
274.68024
274.68018
274.68011
274.68004
196.20299
196.20294
196.20286
196.20277
196.20268
196.2026
196.20251
196.20244
196.20236
196.20229
196.20219
196.20202
196.20159
196.20057
196.20083
196.20081
196.20067
196.20049
196.20052
196.20053
196.20052
196.2005
196.20046
196.20042
196.20036
196.2003
196.20024
196.20018
196.20011
196.20004
117.72295
117.7229
117.72283
117.72275
117.72266
117.72258
117.7225
117.72242
117.72235
117.72228
117.72219
117.72202
117.72161
117.72061
117.72084
117.72081
117.72067
117.72048
117.7205
117.72052
117.72051
117.72049
117.72046
117.72041
117.72036
117.7203
117.72024
117.72018
117.72011
117.72004
39.243192
39.242979
39.242862
39.242768
39.242676
39.242588
39.242505
39.242427
39.24235
39.242269
39.242167
39.242
39.241667
39.240865
39.240964
39.240862
39.240723
39.240532
39.240546
39.240541
39.240525
39.240496
39.240456
39.240408
39.240355
39.240297
39.240237
39.240173
39.240107
39.240039
353.16319
353.16298
353.16287
353.16278
353.16269
353.16261
353.16254
353.16249
353.16245
353.16244
353.16246
353.16252
353.16265
353.1602
353.16043
353.16047
353.16051
353.16051
353.16048
353.16043
353.16038
353.16032
353.16026
353.16019
353.16012
353.16005
274.68295
274.6829
274.68283
274.68275
274.68268
274.6826
274.68254
274.68249
274.68246
274.68247
274.68253
274.68265
274.68293
274.68006
274.68039
274.68046
274.68052
274.68053
274.6805
274.68045
274.6804
274.68033
274.68027
274.6802
274.68012
274.68006
196.20299
196.20294
196.20286
196.20278
196.2027
196.20262
196.20256
196.2025
196.20247
196.20248
196.20255
196.20269
196.20303
196.20006
196.2004
196.20047
196.20053
196.20053
196.2005
196.20046
196.2004
196.20034
196.20027
196.2002
196.20013
196.20006
117.72295
117.7229
117.72283
117.72275
117.72268
117.7226
117.72254
117.72249
117.72246
117.72247
117.72253
117.72265
117.72293
117.72006
117.72039
117.72046
117.72052
117.72053
117.7205
117.72045
117.7204
117.72033
117.72027
117.7202
117.72012
117.72006
39.243192
39.24298
39.242867
39.242777
39.242692
39.242613
39.242544
39.242489
39.242451
39.242437
39.24246
39.242521
39.242652
39.240201
39.240429
39.24047
39.240513
39.240507
39.240478
39.240434
39.240381
39.240321
39.240257
39.240189
39.240119
39.240049
353.16319
353.16298
353.16287
353.16278
353.16269
353.16261
353.16254
353.16249
353.16245
353.16244
353.16246
353.16252
353.16265
353.1602
353.16043
353.16047
353.16051
353.16051
353.16048
353.16043
353.16038
353.16032
353.16026
353.16019
353.16012
353.16005
274.68295
274.6829
274.68283
274.68275
274.68268
274.6826
274.68254
274.68249
274.68246
274.68247
274.68253
274.68265
274.68293
274.68006
274.68039
274.68046
274.68052
274.68053
274.6805
274.68045
274.6804
274.68033
274.68027
274.6802
274.68012
274.68006
196.20299
196.20294
196.20286
196.20278
196.2027
196.20262
196.20256
196.2025
196.20247
196.20248
196.20255
196.20269
196.20303
196.20006
196.2004
196.20047
196.20053
196.20053
196.2005
196.20046
196.2004
196.20034
196.20027
196.2002
196.20013
196.20006
117.72295
117.7229
117.72283
117.72275
117.72268
117.7226
117.72254
117.72249
117.72246
117.72247
117.72253
117.72265
117.72293
117.72006
117.72039
117.72046
117.72052
117.72053
117.7205
117.72045
117.7204
117.72033
117.72027
117.7202
117.72012
117.72006
39.243192
39.24298
39.242867
39.242777
39.242692
39.242613
39.242544
39.242489
39.242451
39.242437
39.24246
39.242521
39.242652
39.240201
39.240429
39.24047
39.240513
39.240507
39.240478
39.240434
39.240381
39.240321
39.240257
39.240189
39.240119
39.240049
353.16319
353.16298
353.16286
353.16277
353.16268
353.16259
353.16251
353.16243
353.16235
353.16227
353.16217
353.162
353.16167
353.16086
353.16096
353.16086
353.16072
353.16053
353.16055
353.16054
353.16052
353.1605
353.16046
353.16041
353.16035
353.1603
353.16024
353.16017
353.16011
353.16004
274.68295
274.6829
274.68283
274.68275
274.68266
274.68258
274.6825
274.68242
274.68235
274.68228
274.68219
274.68202
274.68161
274.68061
274.68084
274.68081
274.68067
274.68048
274.6805
274.68052
274.68051
274.68049
274.68046
274.68041
274.68036
274.6803
274.68024
274.68018
274.68011
274.68004
196.20299
196.20294
196.20286
196.20277
196.20268
196.2026
196.20251
196.20244
196.20236
196.20229
196.20219
196.20202
196.20159
196.20057
196.20083
196.20081
196.20067
196.20049
196.20052
196.20053
196.20052
196.2005
196.20046
196.20042
196.20036
196.2003
196.20024
196.20018
196.20011
196.20004
117.72295
117.7229
117.72283
117.72275
117.72266
117.72258
117.7225
117.72242
117.72235
117.72228
117.72219
117.72202
117.72161
117.72061
117.72084
117.72081
117.72067
117.72048
117.7205
117.72052
117.72051
117.72049
117.72046
117.72041
117.72036
117.7203
117.72024
117.72018
117.72011
117.72004
39.243192
39.242979
39.242862
39.242768
39.242676
39.242588
39.242505
39.242427
39.24235
39.242269
39.242167
39.242
39.241667
39.240865
39.240964
39.240862
39.240723
39.240532
39.240546
39.240541
39.240525
39.240496
39.240456
39.240408
39.240355
39.240297
39.240237
39.240173
39.240107
39.240039
353.16323
353.16301
353.16288
353.16278
353.16268
353.16258
353.16249
353.1624
353.16231
353.16221
353.16211
353.16197
353.1618
353.16148
353.16125
353.16106
353.16089
353.16074
353.16067
353.16061
353.16057
353.16052
353.16047
353.16041
353.16035
353.16029
353.16023
353.16017
353.1601
353.16003
274.68299
274.68293
274.68285
274.68276
274.68266
274.68257
274.68248
274.68239
274.68231
274.68222
274.68212
274.68199
274.68181
274.68148
274.68123
274.68103
274.68086
274.68071
274.68064
274.6806
274.68056
274.68051
274.68046
274.68041
274.68035
274.68029
274.68023
274.68017
274.6801
274.68003
196.20303
196.20297
196.20288
196.20278
196.20269
196.20259
196.2025
196.20241
196.20232
196.20223
196.20212
196.202
196.20182
196.20149
196.20124
196.20103
196.20086
196.20071
196.20064
196.2006
196.20056
196.20052
196.20047
196.20042
196.20036
196.2003
196.20023
196.20017
196.2001
196.20003
117.72299
117.72293
117.72285
117.72276
117.72266
117.72257
117.72248
117.72239
117.72231
117.72222
117.72212
117.72199
117.72181
117.72148
117.72123
117.72103
117.72086
117.72071
117.72064
117.7206
117.72056
117.72051
117.72046
117.72041
117.72035
117.72029
117.72023
117.72017
117.7201
117.72003
39.243231
39.243009
39.242883
39.24278
39.24268
39.242583
39.24249
39.242399
39.242309
39.242214
39.242106
39.241972
39.241797
39.241485
39.241248
39.241057
39.240889
39.240743
39.240666
39.240615
39.240567
39.240518
39.240465
39.24041
39.240352
39.240291
39.240229
39.240165
39.240099
39.240032
353.16324
353.16301
353.16288
353.16277
353.16266
353.16255
353.16245
353.16234
353.16224
353.16213
353.162
353.16185
353.16167
353.16144
353.16126
353.16111
353.16097
353.16085
353.16075
353.16067
353.1606
353.16053
353.16047
353.16041
353.16034
353.16028
353.16022
353.16015
353.16009
353.16003
274.683
274.68294
274.68284
274.68274
274.68264
274.68254
274.68244
274.68234
274.68223
274.68212
274.682
274.68185
274.68167
274.68144
274.68125
274.6811
274.68097
274.68084
274.68075
274.68067
274.6806
274.68053
274.68047
274.6804
274.68034
274.68028
274.68022
274.68015
274.68009
274.68002
196.20304
196.20297
196.20287
196.20277
196.20266
196.20256
196.20245
196.20235
196.20224
196.20213
196.202
196.20185
196.20167
196.20144
196.20125
196.2011
196.20097
196.20085
196.20075
196.20067
196.2006
196.20054
196.20047
196.20041
196.20034
196.20028
196.20022
196.20015
196.20009
196.20002
117.723
117.72294
117.72284
117.72274
117.72264
117.72254
117.72244
117.72234
117.72223
117.72212
117.722
117.72185
117.72167
117.72144
117.72125
117.7211
117.72097
117.72084
117.72075
117.72067
117.7206
117.72053
117.72047
117.7204
117.72034
117.72028
117.72022
117.72015
117.72009
117.72002
39.243241
39.24301
39.242876
39.242766
39.242657
39.24255
39.242447
39.242345
39.24224
39.242128
39.242001
39.241851
39.24167
39.241443
39.241261
39.24111
39.240973
39.240849
39.24075
39.24067
39.240599
39.240532
39.240468
39.240405
39.240343
39.24028
39.240218
39.240155
39.240091
39.240027
353.16345
353.1631
353.16294
353.1628
353.16268
353.16256
353.16245
353.16234
353.16223
353.16211
353.16199
353.16185
353.1617
353.16153
353.16135
353.16118
353.16103
353.1609
353.16079
353.1607
353.16062
353.16054
353.16047
353.16041
353.16034
353.16028
353.16022
353.16015
353.16009
353.16003
274.68321
274.68302
274.68288
274.68277
274.68265
274.68255
274.68244
274.68233
274.68222
274.68211
274.68199
274.68185
274.6817
274.68153
274.68136
274.68119
274.68104
274.6809
274.68079
274.6807
274.68061
274.68054
274.68047
274.6804
274.68034
274.68028
274.68021
274.68015
274.68009
274.68002
196.20324
196.20305
196.20291
196.20279
196.20268
196.20256
196.20245
196.20234
196.20223
196.20211
196.20199
196.20185
196.2017
196.20153
196.20136
196.20119
196.20104
196.20091
196.20079
196.2007
196.20062
196.20055
196.20048
196.20041
196.20034
196.20028
196.20021
196.20015
196.20009
196.20002
117.72321
117.72302
117.72288
117.72277
117.72265
117.72255
117.72244
117.72233
117.72222
117.72211
117.72199
117.72185
117.7217
117.72153
117.72136
117.72119
117.72104
117.7209
117.72079
117.7207
117.72061
117.72054
117.72047
117.7204
117.72034
117.72028
117.72021
117.72015
117.72009
117.72002
39.24345
39.243099
39.242935
39.242804
39.24268
39.242563
39.242452
39.242341
39.24223
39.242114
39.241991
39.241854
39.241701
39.241526
39.24135
39.241184
39.241035
39.240904
39.240793
39.240699
39.240618
39.240544
39.240474
39.240408
39.240344
39.24028
39.240216
39.240153
39.24009
39.240027
)
;

boundaryField
{
    minX
    {
        type            calculated;
        value           nonuniform List<scalar> 
50
(
353.16345
274.68321
196.20324
117.72321
39.24345
353.16324
274.683
196.20304
117.723
39.243241
353.16323
274.68299
196.20303
117.72299
39.243231
353.16319
274.68295
196.20299
117.72295
39.243192
353.16319
274.68295
196.20299
117.72295
39.243192
353.16319
274.68295
196.20299
117.72295
39.243192
353.16319
274.68295
196.20299
117.72295
39.243192
353.16323
274.68299
196.20303
117.72299
39.243231
353.16324
274.683
196.20304
117.723
39.243241
353.16345
274.68321
196.20324
117.72321
39.24345
)
;
    }
    maxX
    {
        type            calculated;
        value           nonuniform List<scalar> 
50
(
353.16
274.68
196.2
117.72
39.24
353.16
274.68
196.2
117.72
39.24
353.16
274.68
196.2
117.72
39.24
353.16
274.68
196.2
117.72
39.24
353.16
274.68
196.2
117.72
39.24
353.16
274.68
196.2
117.72
39.24
353.16
274.68
196.2
117.72
39.24
353.16
274.68
196.2
117.72
39.24
353.16
274.68
196.2
117.72
39.24
353.16
274.68
196.2
117.72
39.24
)
;
    }
    minY
    {
        type            calculated;
        value           nonuniform List<scalar> 
292
(
392.40345
392.40324
392.40323
392.40319
392.40319
392.40319
392.40319
392.40323
392.40324
392.40345
392.4031
392.40301
392.40301
392.40298
392.40298
392.40298
392.40298
392.40301
392.40301
392.4031
392.40294
392.40288
392.40288
392.40286
392.40287
392.40287
392.40286
392.40288
392.40288
392.40294
392.4028
392.40277
392.40278
392.40277
392.40278
392.40278
392.40277
392.40278
392.40277
392.4028
392.40268
392.40266
392.40268
392.40268
392.40269
392.40269
392.40268
392.40268
392.40266
392.40268
392.40256
392.40255
392.40258
392.40259
392.40261
392.40261
392.40259
392.40258
392.40255
392.40256
392.40245
392.40245
392.40249
392.40251
392.40254
392.40254
392.40251
392.40249
392.40245
392.40245
392.40234
392.40234
392.4024
392.40243
392.40249
392.40249
392.40243
392.4024
392.40234
392.40234
392.40223
392.40224
392.40231
392.40235
392.40245
392.40245
392.40235
392.40231
392.40224
392.40223
392.40211
392.40213
392.40221
392.40227
392.40244
392.40244
392.40227
392.40221
392.40213
392.40211
392.40199
392.402
392.40211
392.40217
392.40246
392.40246
392.40217
392.40211
392.402
392.40199
392.40185
392.40185
392.40197
392.402
392.40252
392.40252
392.402
392.40197
392.40185
392.40185
392.4017
392.40167
392.4018
392.40167
392.40265
392.40265
392.40167
392.4018
392.40167
392.4017
392.40153
392.40144
392.40148
392.40086
392.40086
392.40148
392.40144
392.40153
392.40135
392.40126
392.40125
392.40096
392.40096
392.40125
392.40126
392.40135
392.40118
392.40111
392.40106
392.40086
392.40086
392.40106
392.40111
392.40118
392.40103
392.40097
392.40089
392.40072
392.40072
392.40089
392.40097
392.40103
392.4009
392.40085
392.40074
392.40053
392.4002
392.4002
392.40053
392.40074
392.40085
392.4009
392.40079
392.40075
392.40067
392.40055
392.40043
392.40043
392.40055
392.40067
392.40075
392.40079
392.4007
392.40067
392.40061
392.40054
392.40047
392.40047
392.40054
392.40061
392.40067
392.4007
392.40062
392.4006
392.40057
392.40052
392.40051
392.40051
392.40052
392.40057
392.4006
392.40062
392.40054
392.40053
392.40052
392.4005
392.40051
392.40051
392.4005
392.40052
392.40053
392.40054
392.40047
392.40047
392.40047
392.40046
392.40048
392.40048
392.40046
392.40047
392.40047
392.40047
392.40041
392.40041
392.40041
392.40041
392.40043
392.40043
392.40041
392.40041
392.40041
392.40041
392.40034
392.40034
392.40035
392.40035
392.40038
392.40038
392.40035
392.40035
392.40034
392.40034
392.40028
392.40028
392.40029
392.4003
392.40032
392.40032
392.4003
392.40029
392.40028
392.40028
392.40022
392.40022
392.40023
392.40024
392.40026
392.40026
392.40024
392.40023
392.40022
392.40022
392.40015
392.40015
392.40017
392.40017
392.40019
392.40019
392.40017
392.40017
392.40015
392.40015
392.40009
392.40009
392.4001
392.40011
392.40012
392.40012
392.40011
392.4001
392.40009
392.40009
392.40003
392.40003
392.40003
392.40004
392.40005
392.40005
392.40004
392.40003
392.40003
392.40003
)
;
    }
    minZ
    {
        type            calculated;
        value           nonuniform List<scalar> 
150
(
353.16345
274.68321
196.20324
117.72321
39.24345
353.1631
274.68302
196.20305
117.72302
39.243099
353.16294
274.68288
196.20291
117.72288
39.242935
353.1628
274.68277
196.20279
117.72277
39.242804
353.16268
274.68265
196.20268
117.72265
39.24268
353.16256
274.68255
196.20256
117.72255
39.242563
353.16245
274.68244
196.20245
117.72244
39.242452
353.16234
274.68233
196.20234
117.72233
39.242341
353.16223
274.68222
196.20223
117.72222
39.24223
353.16211
274.68211
196.20211
117.72211
39.242114
353.16199
274.68199
196.20199
117.72199
39.241991
353.16185
274.68185
196.20185
117.72185
39.241854
353.1617
274.6817
196.2017
117.7217
39.241701
353.16153
274.68153
196.20153
117.72153
39.241526
353.16135
274.68136
196.20136
117.72136
39.24135
353.16118
274.68119
196.20119
117.72119
39.241184
353.16103
274.68104
196.20104
117.72104
39.241035
353.1609
274.6809
196.20091
117.7209
39.240904
353.16079
274.68079
196.20079
117.72079
39.240793
353.1607
274.6807
196.2007
117.7207
39.240699
353.16062
274.68061
196.20062
117.72061
39.240618
353.16054
274.68054
196.20055
117.72054
39.240544
353.16047
274.68047
196.20048
117.72047
39.240474
353.16041
274.6804
196.20041
117.7204
39.240408
353.16034
274.68034
196.20034
117.72034
39.240344
353.16028
274.68028
196.20028
117.72028
39.24028
353.16022
274.68021
196.20021
117.72021
39.240216
353.16015
274.68015
196.20015
117.72015
39.240153
353.16009
274.68009
196.20009
117.72009
39.24009
353.16003
274.68002
196.20002
117.72002
39.240027
)
;
    }
    maxZ
    {
        type            calculated;
        value           nonuniform List<scalar> 
150
(
353.16345
274.68321
196.20324
117.72321
39.24345
353.1631
274.68302
196.20305
117.72302
39.243099
353.16294
274.68288
196.20291
117.72288
39.242935
353.1628
274.68277
196.20279
117.72277
39.242804
353.16268
274.68265
196.20268
117.72265
39.24268
353.16256
274.68255
196.20256
117.72255
39.242563
353.16245
274.68244
196.20245
117.72244
39.242452
353.16234
274.68233
196.20234
117.72233
39.242341
353.16223
274.68222
196.20223
117.72222
39.24223
353.16211
274.68211
196.20211
117.72211
39.242114
353.16199
274.68199
196.20199
117.72199
39.241991
353.16185
274.68185
196.20185
117.72185
39.241854
353.1617
274.6817
196.2017
117.7217
39.241701
353.16153
274.68153
196.20153
117.72153
39.241526
353.16135
274.68136
196.20136
117.72136
39.24135
353.16118
274.68119
196.20119
117.72119
39.241184
353.16103
274.68104
196.20104
117.72104
39.241035
353.1609
274.6809
196.20091
117.7209
39.240904
353.16079
274.68079
196.20079
117.72079
39.240793
353.1607
274.6807
196.2007
117.7207
39.240699
353.16062
274.68061
196.20062
117.72061
39.240618
353.16054
274.68054
196.20055
117.72054
39.240544
353.16047
274.68047
196.20048
117.72047
39.240474
353.16041
274.6804
196.20041
117.7204
39.240408
353.16034
274.68034
196.20034
117.72034
39.240344
353.16028
274.68028
196.20028
117.72028
39.24028
353.16022
274.68021
196.20021
117.72021
39.240216
353.16015
274.68015
196.20015
117.72015
39.240153
353.16009
274.68009
196.20009
117.72009
39.24009
353.16003
274.68002
196.20002
117.72002
39.240027
)
;
    }
    bottomWater_to_rightSolid
    {
        type            calculated;
        value           nonuniform List<scalar> 
130
(
0.00090353031
0.00079262421
0.00069907352
0.00061756151
0.00054366182
0.00047449833
0.00040819929
0.0003435216
0.00027969965
0.00021632491
0.00015323902
9.0314983e-05
2.7314348e-05
0.00084927883
0.00075014978
0.00066974413
0.00059879582
0.00053237614
0.00046824598
0.0004052837
0.00034281751
0.00028037183
0.00021765927
0.0001545482
9.0964812e-05
2.6831222e-05
0.00074274839
0.00066623289
0.00061482127
0.00056730953
0.00051785868
0.00046538305
0.00040991494
0.00035166244
0.00029121398
0.00022910184
0.00016515398
9.9387287e-05
3.2178312e-05
0.0005321761
0.00054641765
0.00054128515
0.00052476822
0.00049553228
0.00045581684
0.00040818009
0.00035469832
0.00029729711
0.00023653817
0.00017271325
0.00010654683
3.8991519e-05
0.00020075951
0.00042920346
0.00046995848
0.00051335717
0.00050743169
0.00047813708
0.00043449313
0.00038113361
0.00032119694
0.00025663993
0.0001887124
0.00011854822
4.8887318e-05
0.00020075931
0.0004292033
0.00046995837
0.00051335708
0.00050743162
0.00047813702
0.00043449309
0.00038113358
0.00032119691
0.00025663991
0.00018871238
0.00011854821
4.8887297e-05
0.00053217609
0.0005464176
0.00054128508
0.00052476815
0.00049553221
0.00045581678
0.00040818004
0.00035469829
0.00029729709
0.00023653816
0.00017271324
0.00010654682
3.8991492e-05
0.00074274835
0.00066623284
0.00061482122
0.00056730948
0.00051785864
0.00046538302
0.00040991492
0.00035166243
0.00029121398
0.00022910185
0.00016515398
9.9387278e-05
3.2178281e-05
0.00084927881
0.00075014976
0.00066974411
0.0005987958
0.00053237612
0.00046824597
0.00040528369
0.00034281751
0.00028037185
0.00021765929
0.00015454822
9.0964809e-05
2.6831187e-05
0.00090353028
0.00079262418
0.0006990735
0.00061756149
0.00054366181
0.00047449832
0.00040819929
0.0003435216
0.00027969965
0.00021632491
0.00015323902
9.0314971e-05
2.7314314e-05
)
;
    }
    bottomWater_to_leftSolid
    {
        type            calculated;
        value           nonuniform List<scalar> 
130
(
0.0034498386
0.0030990039
0.002935368
0.0028042899
0.0026804474
0.0025634827
0.0024516368
0.0023414739
0.002230027
0.0021144673
0.0019908291
0.0018544784
0.0017010484
0.0032408824
0.0030097501
0.0028763141
0.0027658666
0.002656896
0.0025502608
0.0024467879
0.0023448164
0.0022402416
0.0021277025
0.0020008509
0.0018511289
0.0016702691
0.0032308129
0.0030090958
0.0028829399
0.0027801816
0.0026797994
0.0025827702
0.0024896251
0.0023990789
0.002308679
0.0022136922
0.0021061174
0.0019723143
0.0017974825
0.0031924304
0.0029791137
0.0028622262
0.0027680849
0.0026760896
0.0025879378
0.0025052698
0.0024270689
0.0023504985
0.0022685087
0.0021673874
0.0020000726
0.0016665975
0.0031919473
0.0029804204
0.0028669759
0.0027774711
0.0026920205
0.0026129932
0.002544457
0.002489403
0.0024514772
0.0024373337
0.0024597308
0.0025209889
0.0026515447
0.0031919473
0.0029804204
0.0028669759
0.0027774711
0.0026920205
0.0026129932
0.002544457
0.002489403
0.0024514772
0.0024373337
0.0024597308
0.0025209889
0.0026515448
0.0031924304
0.0029791137
0.0028622262
0.0027680849
0.0026760896
0.0025879378
0.0025052699
0.0024270689
0.0023504985
0.0022685087
0.0021673874
0.0020000726
0.0016665976
0.0032308129
0.0030090958
0.0028829399
0.0027801816
0.0026797994
0.0025827702
0.0024896251
0.0023990789
0.002308679
0.0022136922
0.0021061175
0.0019723143
0.0017974825
0.0032408824
0.0030097501
0.0028763141
0.0027658666
0.002656896
0.0025502609
0.0024467879
0.0023448165
0.0022402416
0.0021277026
0.0020008509
0.0018511289
0.0016702691
0.0034498386
0.0030990039
0.002935368
0.0028042899
0.0026804474
0.0025634827
0.0024516369
0.0023414739
0.002230027
0.0021144674
0.0019908292
0.0018544784
0.0017010484
)
;
    }
    bottomWater_to_heater
    {
        type            calculated;
        value           nonuniform List<scalar> 
92
(
0.0015259745
0.0013498308
0.0011841225
0.0010345689
0.0014433216
0.0012610634
0.0011095912
0.00097257451
0.0014849999
0.0012476532
0.0010565691
0.00088942715
353.16086
353.16096
353.16086
353.16072
274.68061
274.68084
274.68081
274.68067
196.20057
196.20083
196.20081
196.20067
117.72061
117.72084
117.72081
117.72067
0.00086459315
39.240865
0.00096387257
39.240964
0.00086194541
39.240862
0.00072298423
39.240723
353.16265
353.1602
274.68293
274.68006
196.20303
196.20006
117.72293
117.72006
39.242652
39.240201
353.16265
353.16086
353.16096
353.16086
353.1602
353.16072
274.68293
274.68061
274.68084
274.68081
274.68006
274.68067
196.20303
196.20057
196.20083
196.20081
196.20006
196.20067
117.72293
117.72061
117.72084
117.72081
117.72006
117.72067
39.242652
39.240865
39.240964
39.240862
39.240201
39.240723
0.00086459324
0.00096387259
0.00086194543
0.00072298423
0.0014849999
0.0012476532
0.0010565691
0.00088942712
0.0014433216
0.0012610634
0.0011095912
0.00097257449
0.0015259745
0.0013498308
0.0011841225
0.0010345689
)
;
    }
}


// ************************************************************************* //
