/*--------------------------------*- C++ -*----------------------------------*\
| =========                 |                                                 |
| \\      /  F ield         | OpenFOAM: The Open Source CFD Toolbox           |
|  \\    /   O peration     | Version:  2412                                  |
|   \\  /    A nd           | Website:  www.openfoam.com                      |
|    \\/     M anipulation  |                                                 |
\*---------------------------------------------------------------------------*/
FoamFile
{
    version     2.0;
    format      ascii;
    arch        "LSB;label=32;scalar=64";
    class       volScalarField;
    location    "50/bottomWater";
    object      p_rgh;
}
// * * * * * * * * * * * * * * * * * * * * * * * * * * * * * * * * * * * * * //

dimensions      [1 -1 -2 0 0 0 0];

internalField   nonuniform List<scalar> 
1460
(
0.0034498386
0.0030990039
0.002935368
0.0028042899
0.0026804474
0.0025634827
0.0024516368
0.0023414739
0.002230027
0.0021144673
0.0019908291
0.0018544784
0.0017010484
0.0015259745
0.0013498308
0.0011841225
0.0010345689
0.0009035303
0.0007926242
0.00069907352
0.00061756151
0.00054366182
0.00047449833
0.0004081993
0.00034352161
0.00027969966
0.00021632492
0.00015323903
9.031499e-05
2.731435e-05
0.0032058686
0.0030161359
0.0028815479
0.0027671589
0.0026549907
0.0025450105
0.0024375289
0.0023303026
0.0022204977
0.0021062552
0.0019850657
0.0018522653
0.0017027973
0.0015310759
0.001355397
0.0011885708
0.0010357953
0.00090176765
0.00078945294
0.00069573056
0.00061447886
0.00054070612
0.00047144857
0.00040491895
0.00034004275
0.00027615911
0.00021284228
0.00014980007
8.6781189e-05
2.3048187e-05
0.0032418169
0.0030524141
0.0029120817
0.0027927399
0.0026764063
0.0025625489
0.0024514814
0.0023410763
0.0022282635
0.0021110478
0.0019876068
0.001853402
0.0017035254
0.0015325686
0.0013582359
0.0011930821
0.0010411059
0.00090672909
0.00079438668
0.00070071373
0.00061928725
0.00054513383
0.00047536582
0.0004082188
0.00034260879
0.00027790732
0.00021374198
0.00014994887
8.6244691e-05
2.1527667e-05
0.0032058686
0.0030161359
0.0028815479
0.0027671589
0.0026549907
0.0025450105
0.0024375289
0.0023303026
0.0022204977
0.0021062552
0.0019850657
0.0018522653
0.0017027973
0.0015310758
0.001355397
0.0011885708
0.0010357953
0.00090176765
0.00078945294
0.00069573056
0.00061447887
0.00054070612
0.00047144857
0.00040491894
0.00034004273
0.00027615909
0.00021284226
0.00014980006
8.6781183e-05
2.3048185e-05
0.0034498386
0.0030990039
0.002935368
0.0028042899
0.0026804474
0.0025634827
0.0024516368
0.0023414739
0.002230027
0.0021144673
0.0019908291
0.0018544784
0.0017010484
0.0015259745
0.0013498308
0.0011841225
0.0010345689
0.00090353031
0.00079262421
0.00069907352
0.00061756151
0.00054366182
0.00047449833
0.00040819929
0.0003435216
0.00027969965
0.00021632491
0.00015323902
9.0314983e-05
2.7314348e-05
0.0032408824
0.0030097501
0.0028763141
0.0027658666
0.002656896
0.0025502608
0.0024467879
0.0023448164
0.0022402416
0.0021277025
0.0020008509
0.0018511289
0.0016702691
0.0014433216
0.0012610634
0.0011095912
0.00097257451
0.00084927882
0.00075014978
0.00066974412
0.00059879581
0.00053237613
0.00046824598
0.0004052837
0.00034281752
0.00028037186
0.00021765931
0.00015454823
9.0964829e-05
2.6831227e-05
0.0030027967
0.0029350993
0.0028420479
0.0027430034
0.0026413554
0.0025389604
0.0024371541
0.0023360479
0.0022334958
0.0021239281
0.0019999083
0.0018523011
0.0016698039
0.0014366185
0.001250262
0.0011000418
0.000965312
0.00084400861
0.00074568046
0.00066673712
0.00059722094
0.00053157648
0.00046762156
0.00040448469
0.0003417089
0.00027891044
0.00021581143
0.00015223182
8.7673643e-05
2.0787718e-05
0.0030368628
0.0029703188
0.0028720028
0.0027681222
0.0026629425
0.0025574128
0.0024524664
0.0023481134
0.0022428701
0.0021311021
0.0020046269
0.00185446
0.0016695688
0.0014356823
0.001250166
0.0011017058
0.00096822974
0.00084823686
0.00075075021
0.00067205477
0.00060242665
0.00053640266
0.00047187375
0.00040791513
0.0003441892
0.00028046341
0.00021651948
0.00015212864
8.6602876e-05
1.7921303e-05
0.0030027967
0.0029350993
0.0028420479
0.0027430034
0.0026413554
0.0025389604
0.0024371541
0.0023360479
0.0022334958
0.0021239281
0.0019999083
0.0018523011
0.0016698039
0.0014366185
0.001250262
0.0011000418
0.000965312
0.00084400861
0.00074568047
0.00066673714
0.00059722096
0.0005315765
0.00046762157
0.00040448467
0.00034170886
0.00027891041
0.00021581141
0.0001522318
8.7673631e-05
2.0787718e-05
0.0032408824
0.0030097501
0.0028763141
0.0027658666
0.002656896
0.0025502608
0.0024467879
0.0023448164
0.0022402416
0.0021277025
0.0020008509
0.0018511289
0.0016702691
0.0014433216
0.0012610634
0.0011095912
0.00097257451
0.00084927883
0.00075014978
0.00066974413
0.00059879582
0.00053237614
0.00046824598
0.0004052837
0.00034281751
0.00028037183
0.00021765927
0.0001545482
9.0964812e-05
2.6831222e-05
0.0032308129
0.0030090958
0.0028829399
0.0027801816
0.0026797994
0.0025827702
0.0024896251
0.0023990789
0.002308679
0.0022136921
0.0021061174
0.0019723143
0.0017974825
0.0014849999
0.0012476532
0.0010565691
0.00088942714
0.00074274838
0.00066623288
0.00061482126
0.00056730952
0.00051785868
0.00046538306
0.00040991495
0.00035166246
0.000291214
0.00022910189
0.00016515402
9.9387316e-05
3.2178324e-05
0.0029918268
0.0029330073
0.0028480037
0.0027568263
0.0026640891
0.0025720162
0.0024820771
0.0023940501
0.0023065863
0.0022163632
0.0021156944
0.0019882961
0.0018079707
0.0014780009
0.0012267113
0.0010293086
0.00086007396
0.00071228587
0.00064095544
0.00059941452
0.0005592704
0.00051446808
0.00046481226
0.00041111066
0.00035407608
0.00029399508
0.00023099179
0.00016567004
9.8220382e-05
2.8092168e-05
0.0030266794
0.0029690377
0.002878829
0.002782892
0.0026868284
0.0025919248
0.0024993371
0.0024088322
0.0023189048
0.0022264109
0.0021237685
0.0019950529
0.0018151333
0.001485758
0.001235049
0.0010349318
0.00085976115
0.00071235465
0.00064367456
0.00060428913
0.00056489092
0.00051996409
0.00046971763
0.00041509907
0.00035682766
0.00029554019
0.00023174277
0.00016579314
9.7409564e-05
2.5358605e-05
0.0029918268
0.0029330073
0.0028480037
0.0027568263
0.0026640891
0.0025720162
0.0024820771
0.0023940501
0.0023065863
0.0022163632
0.0021156944
0.0019882961
0.0018079707
0.0014780009
0.0012267113
0.0010293086
0.00086007397
0.00071228589
0.00064095546
0.00059941454
0.00055927042
0.0005144681
0.00046481227
0.00041111065
0.00035407606
0.00029399504
0.00023099176
0.00016567001
9.8220371e-05
2.8092176e-05
0.0032308129
0.0030090958
0.0028829399
0.0027801816
0.0026797994
0.0025827702
0.0024896251
0.0023990789
0.002308679
0.0022136922
0.0021061174
0.0019723143
0.0017974825
0.0014849999
0.0012476532
0.0010565691
0.00088942715
0.00074274839
0.00066623289
0.00061482127
0.00056730953
0.00051785868
0.00046538305
0.00040991494
0.00035166244
0.00029121398
0.00022910184
0.00016515398
9.9387287e-05
3.2178312e-05
0.0031924304
0.0029791137
0.0028622262
0.0027680849
0.0026760896
0.0025879378
0.0025052698
0.0024270689
0.0023504984
0.0022685087
0.0021673874
0.0020000726
0.0016665976
0.00086459316
0.00096387257
0.00086194541
0.00072298421
0.00053217606
0.0005464176
0.00054128511
0.00052476819
0.00049553226
0.00045581683
0.00040818009
0.00035469833
0.00029729715
0.00023653821
0.00017271328
0.00010654686
3.899153e-05
0.0029544011
0.0029032363
0.0028280266
0.002745772
0.0026613917
0.0025779766
0.0024982425
0.0024231885
0.0023518341
0.002279678
0.0021899943
0.0020247065
0.001609146
0.00060869759
0.0008371617
0.00080658269
0.00066526107
0.00047535804
0.00050454564
0.0005191602
0.00051428491
0.00049212607
0.00045726081
0.00041318114
0.00036191891
0.00030436169
0.00024206342
0.0001765746
0.00010922213
4.104088e-05
0.0029884664
0.0029385187
0.0028582909
0.0027713616
0.0026837256
0.0025974876
0.0025149406
0.0024371403
0.0023627973
0.0022867749
0.0021926324
0.002023949
0.0015874454
0.00057464963
0.00082946839
0.00081403214
0.00067319707
0.0004892725
0.00051507967
0.00052955042
0.00052352746
0.00049947907
0.00046256174
0.00041640459
0.00036328565
0.00030480964
0.00024214987
0.00017650281
0.00010896819
4.0451639e-05
0.0029544011
0.0029032363
0.0028280266
0.002745772
0.0026613917
0.0025779766
0.0024982426
0.0024231885
0.0023518341
0.002279678
0.0021899943
0.0020247065
0.001609146
0.00060869759
0.0008371617
0.0008065827
0.00066526108
0.00047535809
0.0005045457
0.00051916026
0.00051428496
0.00049212611
0.00045726084
0.00041318114
0.0003619189
0.00030436167
0.00024206339
0.00017657458
0.00010922211
4.1040877e-05
0.0031924304
0.0029791137
0.0028622262
0.0027680849
0.0026760896
0.0025879378
0.0025052698
0.0024270689
0.0023504985
0.0022685087
0.0021673874
0.0020000726
0.0016665975
0.00086459315
0.00096387257
0.00086194541
0.00072298423
0.0005321761
0.00054641765
0.00054128515
0.00052476822
0.00049553228
0.00045581684
0.00040818009
0.00035469832
0.00029729711
0.00023653817
0.00017271325
0.00010654683
3.8991519e-05
0.0031919473
0.0029804204
0.0028669759
0.0027774711
0.0026920205
0.0026129932
0.002544457
0.002489403
0.0024514771
0.0024373337
0.0024597308
0.0025209889
0.0026515447
0.00020075943
0.00042920342
0.00046995847
0.00051335718
0.00050743171
0.00047813709
0.00043449315
0.00038113363
0.00032119695
0.00025663994
0.0001887124
0.00011854823
4.8887323e-05
0.0029535562
0.0029039564
0.0028320401
0.0027544041
0.0026765029
0.0026025729
0.0025374878
0.0024873181
0.0024605598
0.0024695997
0.0025306184
0.0026527766
0.0029344442
5.9306748e-05
0.00039341282
0.00045898132
0.00051890271
0.00052655544
0.00049971038
0.00045427253
0.00039778605
0.00033424149
0.00026628541
0.00019586358
0.00012499279
5.7913776e-05
0.0029876838
0.0029393108
0.002862397
0.0027801276
0.0026991021
0.0026226736
0.0025551976
0.0025030402
0.0024747115
0.0024834168
0.0025516862
0.0026941549
0.003028967
5.5836718e-05
0.00040115536
0.0004681441
0.00052688142
0.00053279981
0.00050379022
0.00045689958
0.00039959185
0.00033562861
0.00026746626
0.00019697283
0.00012626266
6.0212221e-05
0.0029535562
0.0029039564
0.0028320401
0.0027544041
0.0026765029
0.0026025729
0.0025374878
0.0024873181
0.0024605598
0.0024695997
0.0025306184
0.0026527766
0.0029344443
5.930684e-05
0.00039341285
0.00045898133
0.00051890271
0.00052655542
0.00049971035
0.00045427249
0.00039778602
0.00033424146
0.00026628539
0.00019586357
0.00012499278
5.7913771e-05
0.0031919473
0.0029804204
0.0028669759
0.0027774711
0.0026920205
0.0026129932
0.002544457
0.002489403
0.0024514772
0.0024373337
0.0024597308
0.0025209889
0.0026515447
0.00020075951
0.00042920346
0.00046995848
0.00051335717
0.00050743169
0.00047813708
0.00043449313
0.00038113361
0.00032119694
0.00025663993
0.0001887124
0.00011854822
4.8887318e-05
0.0031919473
0.0029804204
0.0028669759
0.0027774711
0.0026920205
0.0026129932
0.002544457
0.002489403
0.0024514772
0.0024373337
0.0024597308
0.0025209889
0.0026515447
0.00020075932
0.00042920332
0.00046995838
0.0005133571
0.00050743163
0.00047813702
0.00043449308
0.00038113357
0.0003211969
0.0002566399
0.00018871237
0.0001185482
4.8887305e-05
0.0029535562
0.0029039564
0.0028320401
0.0027544041
0.0026765029
0.0026025729
0.0025374878
0.0024873181
0.0024605598
0.0024695997
0.0025306184
0.0026527766
0.0029344443
5.930663e-05
0.0003934127
0.00045898121
0.00051890261
0.00052655535
0.0004997103
0.00045427245
0.00039778599
0.00033424144
0.00026628537
0.00019586355
0.00012499276
5.7913751e-05
0.0029876838
0.0029393108
0.002862397
0.0027801276
0.0026991021
0.0026226736
0.0025551976
0.0025030402
0.0024747115
0.0024834168
0.0025516862
0.0026941549
0.0030289671
5.5836546e-05
0.00040115522
0.00046814398
0.00052688131
0.00053279971
0.00050379014
0.00045689952
0.0003995918
0.00033562858
0.00026746623
0.00019697281
0.00012626264
6.0212191e-05
0.0029535562
0.0029039564
0.0028320401
0.0027544041
0.0026765029
0.0026025729
0.0025374878
0.0024873181
0.0024605598
0.0024695997
0.0025306184
0.0026527767
0.0029344443
5.9306617e-05
0.00039341269
0.0004589812
0.00051890259
0.00052655532
0.00049971027
0.00045427243
0.00039778598
0.00033424143
0.00026628537
0.00019586355
0.00012499276
5.7913742e-05
0.0031919473
0.0029804204
0.0028669759
0.0027774711
0.0026920205
0.0026129932
0.002544457
0.002489403
0.0024514772
0.0024373337
0.0024597308
0.0025209889
0.0026515448
0.00020075931
0.0004292033
0.00046995837
0.00051335708
0.00050743162
0.00047813702
0.00043449309
0.00038113358
0.00032119691
0.00025663991
0.00018871238
0.00011854821
4.8887297e-05
0.0031924304
0.0029791137
0.0028622262
0.0027680849
0.0026760896
0.0025879378
0.0025052699
0.0024270689
0.0023504985
0.0022685087
0.0021673874
0.0020000726
0.0016665976
0.00086459326
0.0009638726
0.00086194544
0.00072298424
0.0005321761
0.00054641762
0.00054128511
0.00052476818
0.00049553223
0.0004558168
0.00040818006
0.00035469829
0.00029729709
0.00023653816
0.00017271324
0.00010654682
3.89915e-05
0.0029544011
0.0029032363
0.0028280266
0.0027457721
0.0026613917
0.0025779766
0.0024982426
0.0024231885
0.0023518341
0.002279678
0.0021899943
0.0020247065
0.001609146
0.00060869771
0.00083716173
0.00080658273
0.00066526113
0.0004753581
0.00050454567
0.0005191602
0.00051428489
0.00049212603
0.00045726076
0.00041318108
0.00036191885
0.00030436163
0.00024206337
0.00017657456
0.00010922208
4.1040838e-05
0.0029884664
0.0029385187
0.0028582909
0.0027713616
0.0026837256
0.0025974876
0.0025149406
0.0024371403
0.0023627973
0.0022867749
0.0021926324
0.002023949
0.0015874454
0.00057464976
0.00082946841
0.00081403217
0.00067319709
0.00048927252
0.00051507964
0.00052955036
0.00052352739
0.00049947899
0.00046256166
0.00041640451
0.00036328558
0.00030480959
0.00024214983
0.00017650277
0.00010896815
4.0451587e-05
0.0029544011
0.0029032363
0.0028280266
0.0027457721
0.0026613917
0.0025779766
0.0024982426
0.0024231885
0.0023518341
0.002279678
0.0021899943
0.0020247065
0.001609146
0.0006086977
0.00083716172
0.00080658273
0.00066526113
0.00047535809
0.00050454563
0.00051916016
0.00051428486
0.00049212601
0.00045726074
0.00041318107
0.00036191884
0.00030436163
0.00024206337
0.00017657456
0.00010922208
4.1040831e-05
0.0031924304
0.0029791137
0.0028622262
0.0027680849
0.0026760896
0.0025879378
0.0025052699
0.0024270689
0.0023504985
0.0022685087
0.0021673874
0.0020000726
0.0016665976
0.00086459324
0.00096387259
0.00086194543
0.00072298423
0.00053217609
0.0005464176
0.00054128508
0.00052476815
0.00049553221
0.00045581678
0.00040818004
0.00035469829
0.00029729709
0.00023653816
0.00017271324
0.00010654682
3.8991492e-05
0.0032308129
0.0030090958
0.0028829399
0.0027801816
0.0026797994
0.0025827702
0.0024896251
0.0023990789
0.002308679
0.0022136922
0.0021061175
0.0019723143
0.0017974825
0.0014849999
0.0012476532
0.0010565691
0.00088942713
0.00074274836
0.00066623285
0.00061482123
0.00056730949
0.00051785865
0.00046538303
0.00040991492
0.00035166243
0.00029121397
0.00022910185
0.00016515399
9.9387288e-05
3.2178291e-05
0.0029918268
0.0029330073
0.0028480037
0.0027568263
0.0026640891
0.0025720162
0.0024820771
0.0023940501
0.0023065863
0.0022163632
0.0021156945
0.0019882961
0.0018079707
0.0014780009
0.0012267113
0.0010293086
0.00086007392
0.00071228585
0.00064095541
0.00059941449
0.00055927037
0.00051446805
0.00046481223
0.00041111064
0.00035407606
0.00029399505
0.00023099176
0.00016567001
9.8220356e-05
2.8092123e-05
0.0030266794
0.0029690377
0.002878829
0.002782892
0.0026868284
0.0025919249
0.0024993371
0.0024088322
0.0023189048
0.002226411
0.0021237686
0.001995053
0.0018151333
0.001485758
0.001235049
0.0010349318
0.00085976113
0.00071235462
0.00064367451
0.00060428908
0.00056489087
0.00051996405
0.0004697176
0.00041509905
0.00035682764
0.00029554018
0.00023174276
0.00016579312
9.740954e-05
2.5358547e-05
0.0029918268
0.0029330073
0.0028480037
0.0027568263
0.0026640891
0.0025720162
0.0024820771
0.0023940501
0.0023065863
0.0022163632
0.0021156945
0.0019882961
0.0018079707
0.0014780009
0.0012267113
0.0010293085
0.00086007391
0.00071228584
0.00064095541
0.00059941448
0.00055927036
0.00051446805
0.00046481223
0.00041111063
0.00035407605
0.00029399505
0.00023099176
0.00016567001
9.8220356e-05
2.8092129e-05
0.0032308129
0.0030090958
0.0028829399
0.0027801816
0.0026797994
0.0025827702
0.0024896251
0.0023990789
0.002308679
0.0022136922
0.0021061175
0.0019723143
0.0017974825
0.0014849999
0.0012476532
0.0010565691
0.00088942712
0.00074274835
0.00066623284
0.00061482122
0.00056730948
0.00051785864
0.00046538302
0.00040991492
0.00035166243
0.00029121398
0.00022910185
0.00016515398
9.9387278e-05
3.2178281e-05
0.0032408824
0.0030097501
0.0028763141
0.0027658666
0.002656896
0.0025502609
0.0024467879
0.0023448165
0.0022402416
0.0021277026
0.0020008509
0.0018511289
0.0016702691
0.0014433216
0.0012610634
0.0011095912
0.0009725745
0.00084927881
0.00075014976
0.00066974411
0.0005987958
0.00053237613
0.00046824598
0.0004052837
0.00034281751
0.00028037185
0.0002176593
0.00015454822
9.0964814e-05
2.6831192e-05
0.0030027967
0.0029350993
0.0028420479
0.0027430034
0.0026413554
0.0025389604
0.0024371542
0.002336048
0.0022334958
0.0021239281
0.0019999083
0.0018523011
0.0016698039
0.0014366185
0.001250262
0.0011000418
0.00096531199
0.0008440086
0.00074568045
0.00066673712
0.00059722093
0.00053157648
0.00046762156
0.00040448469
0.0003417089
0.00027891044
0.00021581143
0.00015223182
8.7673632e-05
2.078767e-05
0.0030368628
0.0029703188
0.0028720028
0.0027681222
0.0026629425
0.0025574129
0.0024524665
0.0023481135
0.0022428702
0.0021311022
0.002004627
0.00185446
0.0016695688
0.0014356824
0.001250166
0.0011017058
0.00096822972
0.00084823684
0.00075075019
0.00067205475
0.00060242664
0.00053640265
0.00047187375
0.00040791513
0.00034418921
0.00028046343
0.0002165195
0.00015212865
8.6602869e-05
1.7921247e-05
0.0030027967
0.0029350993
0.0028420479
0.0027430034
0.0026413554
0.0025389604
0.0024371542
0.002336048
0.0022334958
0.0021239281
0.0019999083
0.0018523011
0.0016698039
0.0014366185
0.0012502619
0.0011000418
0.00096531199
0.0008440086
0.00074568045
0.00066673711
0.00059722093
0.00053157648
0.00046762156
0.00040448468
0.00034170889
0.00027891044
0.00021581143
0.00015223182
8.7673628e-05
2.0787666e-05
0.0032408824
0.0030097501
0.0028763141
0.0027658666
0.002656896
0.0025502609
0.0024467879
0.0023448165
0.0022402416
0.0021277026
0.0020008509
0.0018511289
0.0016702691
0.0014433216
0.0012610634
0.0011095912
0.00097257449
0.00084927881
0.00075014976
0.00066974411
0.0005987958
0.00053237612
0.00046824597
0.00040528369
0.00034281751
0.00028037185
0.00021765929
0.00015454822
9.0964809e-05
2.6831187e-05
0.0034498386
0.0030990039
0.002935368
0.0028042899
0.0026804474
0.0025634827
0.0024516369
0.0023414739
0.002230027
0.0021144674
0.0019908292
0.0018544784
0.0017010484
0.0015259745
0.0013498308
0.0011841225
0.0010345689
0.00090353028
0.00079262418
0.0006990735
0.00061756149
0.00054366181
0.00047449831
0.00040819928
0.00034352159
0.00027969964
0.00021632491
0.00015323902
9.0314973e-05
2.7314315e-05
0.0032058686
0.0030161359
0.0028815479
0.0027671589
0.0026549907
0.0025450106
0.002437529
0.0023303026
0.0022204977
0.0021062552
0.0019850657
0.0018522653
0.0017027973
0.0015310758
0.001355397
0.0011885707
0.0010357953
0.00090176762
0.00078945292
0.00069573054
0.00061447885
0.00054070611
0.00047144856
0.00040491894
0.00034004274
0.0002761591
0.00021284227
0.00014980006
8.6781172e-05
2.3048142e-05
0.0032418169
0.0030524142
0.0029120817
0.0027927399
0.0026764063
0.002562549
0.0024514814
0.0023410763
0.0022282635
0.0021110478
0.0019876069
0.001853402
0.0017035254
0.0015325686
0.0013582358
0.0011930821
0.0010411059
0.00090672906
0.00079438665
0.00070071371
0.00061928723
0.00054513382
0.00047536581
0.00040821879
0.00034260879
0.00027790731
0.00021374197
0.00014994886
8.6244675e-05
2.1527621e-05
0.0032058686
0.0030161359
0.0028815479
0.0027671589
0.0026549907
0.0025450106
0.002437529
0.0023303026
0.0022204977
0.0021062552
0.0019850657
0.0018522653
0.0017027973
0.0015310758
0.001355397
0.0011885707
0.0010357953
0.00090176762
0.00078945291
0.00069573054
0.00061447884
0.0005407061
0.00047144856
0.00040491894
0.00034004274
0.00027615909
0.00021284226
0.00014980006
8.6781167e-05
2.3048139e-05
0.0034498386
0.0030990039
0.002935368
0.0028042899
0.0026804474
0.0025634827
0.0024516369
0.0023414739
0.002230027
0.0021144674
0.0019908292
0.0018544784
0.0017010484
0.0015259745
0.0013498308
0.0011841225
0.0010345689
0.00090353028
0.00079262418
0.0006990735
0.00061756149
0.00054366181
0.00047449832
0.00040819929
0.0003435216
0.00027969965
0.00021632491
0.00015323902
9.0314971e-05
2.7314314e-05
)
;

boundaryField
{
    minX
    {
        type            zeroGradient;
    }
    maxX
    {
        type            fixedValue;
        value           uniform 0;
    }
    minY
    {
        type            fixedFluxPressure;
        gradient        uniform 0;
        value           nonuniform List<scalar> 
292
(
0.0034498386
0.0032408824
0.0032308129
0.0031924304
0.0031919473
0.0031919473
0.0031924304
0.0032308129
0.0032408824
0.0034498386
0.0030990039
0.0030097501
0.0030090958
0.0029791137
0.0029804204
0.0029804204
0.0029791137
0.0030090958
0.0030097501
0.0030990039
0.002935368
0.0028763141
0.0028829399
0.0028622262
0.0028669759
0.0028669759
0.0028622262
0.0028829399
0.0028763141
0.002935368
0.0028042899
0.0027658666
0.0027801816
0.0027680849
0.0027774711
0.0027774711
0.0027680849
0.0027801816
0.0027658666
0.0028042899
0.0026804474
0.002656896
0.0026797994
0.0026760896
0.0026920205
0.0026920205
0.0026760896
0.0026797994
0.002656896
0.0026804474
0.0025634827
0.0025502608
0.0025827702
0.0025879378
0.0026129932
0.0026129932
0.0025879378
0.0025827702
0.0025502609
0.0025634827
0.0024516368
0.0024467879
0.0024896251
0.0025052698
0.002544457
0.002544457
0.0025052699
0.0024896251
0.0024467879
0.0024516369
0.0023414739
0.0023448164
0.0023990789
0.0024270689
0.002489403
0.002489403
0.0024270689
0.0023990789
0.0023448165
0.0023414739
0.002230027
0.0022402416
0.002308679
0.0023504984
0.0024514771
0.0024514772
0.0023504985
0.002308679
0.0022402416
0.002230027
0.0021144673
0.0021277025
0.0022136921
0.0022685087
0.0024373337
0.0024373337
0.0022685087
0.0022136922
0.0021277026
0.0021144674
0.0019908291
0.0020008509
0.0021061174
0.0021673874
0.0024597308
0.0024597308
0.0021673874
0.0021061175
0.0020008509
0.0019908292
0.0018544784
0.0018511289
0.0019723143
0.0020000726
0.0025209889
0.0025209889
0.0020000726
0.0019723143
0.0018511289
0.0018544784
0.0017010484
0.0016702691
0.0017974825
0.0016665976
0.0026515447
0.0026515447
0.0016665976
0.0017974825
0.0016702691
0.0017010484
0.0015259745
0.0014433216
0.0014849999
0.00086459316
0.00086459326
0.0014849999
0.0014433216
0.0015259745
0.0013498308
0.0012610634
0.0012476532
0.00096387257
0.0009638726
0.0012476532
0.0012610634
0.0013498308
0.0011841225
0.0011095912
0.0010565691
0.00086194541
0.00086194544
0.0010565691
0.0011095912
0.0011841225
0.0010345689
0.00097257451
0.00088942714
0.00072298421
0.00072298424
0.00088942713
0.0009725745
0.0010345689
0.0009035303
0.00084927882
0.00074274838
0.00053217606
0.00020075943
0.00020075932
0.0005321761
0.00074274836
0.00084927881
0.00090353028
0.0007926242
0.00075014978
0.00066623288
0.0005464176
0.00042920342
0.00042920332
0.00054641762
0.00066623285
0.00075014976
0.00079262418
0.00069907352
0.00066974412
0.00061482126
0.00054128511
0.00046995847
0.00046995838
0.00054128511
0.00061482123
0.00066974411
0.0006990735
0.00061756151
0.00059879581
0.00056730952
0.00052476819
0.00051335718
0.0005133571
0.00052476818
0.00056730949
0.0005987958
0.00061756149
0.00054366182
0.00053237613
0.00051785868
0.00049553226
0.00050743171
0.00050743163
0.00049553223
0.00051785865
0.00053237613
0.00054366181
0.00047449833
0.00046824598
0.00046538306
0.00045581683
0.00047813709
0.00047813702
0.0004558168
0.00046538303
0.00046824598
0.00047449831
0.0004081993
0.0004052837
0.00040991495
0.00040818009
0.00043449315
0.00043449308
0.00040818006
0.00040991492
0.0004052837
0.00040819928
0.00034352161
0.00034281752
0.00035166246
0.00035469833
0.00038113363
0.00038113357
0.00035469829
0.00035166243
0.00034281751
0.00034352159
0.00027969966
0.00028037186
0.000291214
0.00029729715
0.00032119695
0.0003211969
0.00029729709
0.00029121397
0.00028037185
0.00027969964
0.00021632492
0.00021765931
0.00022910189
0.00023653821
0.00025663994
0.0002566399
0.00023653816
0.00022910185
0.0002176593
0.00021632491
0.00015323903
0.00015454823
0.00016515402
0.00017271328
0.0001887124
0.00018871237
0.00017271324
0.00016515399
0.00015454822
0.00015323902
9.031499e-05
9.0964829e-05
9.9387316e-05
0.00010654686
0.00011854823
0.0001185482
0.00010654682
9.9387288e-05
9.0964814e-05
9.0314973e-05
2.731435e-05
2.6831227e-05
3.2178324e-05
3.899153e-05
4.8887323e-05
4.8887305e-05
3.89915e-05
3.2178291e-05
2.6831192e-05
2.7314315e-05
)
;
    }
    minZ
    {
        type            fixedFluxPressure;
        gradient        uniform 0;
        value           nonuniform List<scalar> 
150
(
0.0034498386
0.0032058686
0.0032418169
0.0032058686
0.0034498386
0.0030990039
0.0030161359
0.0030524141
0.0030161359
0.0030990039
0.002935368
0.0028815479
0.0029120817
0.0028815479
0.002935368
0.0028042899
0.0027671589
0.0027927399
0.0027671589
0.0028042899
0.0026804474
0.0026549907
0.0026764063
0.0026549907
0.0026804474
0.0025634827
0.0025450105
0.0025625489
0.0025450105
0.0025634827
0.0024516368
0.0024375289
0.0024514814
0.0024375289
0.0024516368
0.0023414739
0.0023303026
0.0023410763
0.0023303026
0.0023414739
0.002230027
0.0022204977
0.0022282635
0.0022204977
0.002230027
0.0021144673
0.0021062552
0.0021110478
0.0021062552
0.0021144673
0.0019908291
0.0019850657
0.0019876068
0.0019850657
0.0019908291
0.0018544784
0.0018522653
0.001853402
0.0018522653
0.0018544784
0.0017010484
0.0017027973
0.0017035254
0.0017027973
0.0017010484
0.0015259745
0.0015310759
0.0015325686
0.0015310758
0.0015259745
0.0013498308
0.001355397
0.0013582359
0.001355397
0.0013498308
0.0011841225
0.0011885708
0.0011930821
0.0011885708
0.0011841225
0.0010345689
0.0010357953
0.0010411059
0.0010357953
0.0010345689
0.0009035303
0.00090176765
0.00090672909
0.00090176765
0.00090353031
0.0007926242
0.00078945294
0.00079438668
0.00078945294
0.00079262421
0.00069907352
0.00069573056
0.00070071373
0.00069573056
0.00069907352
0.00061756151
0.00061447886
0.00061928725
0.00061447887
0.00061756151
0.00054366182
0.00054070612
0.00054513383
0.00054070612
0.00054366182
0.00047449833
0.00047144857
0.00047536582
0.00047144857
0.00047449833
0.0004081993
0.00040491895
0.0004082188
0.00040491894
0.00040819929
0.00034352161
0.00034004275
0.00034260879
0.00034004273
0.0003435216
0.00027969966
0.00027615911
0.00027790732
0.00027615909
0.00027969965
0.00021632492
0.00021284228
0.00021374198
0.00021284226
0.00021632491
0.00015323903
0.00014980007
0.00014994887
0.00014980006
0.00015323902
9.031499e-05
8.6781189e-05
8.6244691e-05
8.6781183e-05
9.0314983e-05
2.731435e-05
2.3048187e-05
2.1527667e-05
2.3048185e-05
2.7314348e-05
)
;
    }
    maxZ
    {
        type            fixedFluxPressure;
        gradient        uniform 0;
        value           nonuniform List<scalar> 
150
(
0.0034498386
0.0032058686
0.0032418169
0.0032058686
0.0034498386
0.0030990039
0.0030161359
0.0030524142
0.0030161359
0.0030990039
0.002935368
0.0028815479
0.0029120817
0.0028815479
0.002935368
0.0028042899
0.0027671589
0.0027927399
0.0027671589
0.0028042899
0.0026804474
0.0026549907
0.0026764063
0.0026549907
0.0026804474
0.0025634827
0.0025450106
0.002562549
0.0025450106
0.0025634827
0.0024516369
0.002437529
0.0024514814
0.002437529
0.0024516369
0.0023414739
0.0023303026
0.0023410763
0.0023303026
0.0023414739
0.002230027
0.0022204977
0.0022282635
0.0022204977
0.002230027
0.0021144674
0.0021062552
0.0021110478
0.0021062552
0.0021144674
0.0019908292
0.0019850657
0.0019876069
0.0019850657
0.0019908292
0.0018544784
0.0018522653
0.001853402
0.0018522653
0.0018544784
0.0017010484
0.0017027973
0.0017035254
0.0017027973
0.0017010484
0.0015259745
0.0015310758
0.0015325686
0.0015310758
0.0015259745
0.0013498308
0.001355397
0.0013582358
0.001355397
0.0013498308
0.0011841225
0.0011885707
0.0011930821
0.0011885707
0.0011841225
0.0010345689
0.0010357953
0.0010411059
0.0010357953
0.0010345689
0.00090353028
0.00090176762
0.00090672906
0.00090176762
0.00090353028
0.00079262418
0.00078945292
0.00079438665
0.00078945291
0.00079262418
0.0006990735
0.00069573054
0.00070071371
0.00069573054
0.0006990735
0.00061756149
0.00061447885
0.00061928723
0.00061447884
0.00061756149
0.00054366181
0.00054070611
0.00054513382
0.0005407061
0.00054366181
0.00047449831
0.00047144856
0.00047536581
0.00047144856
0.00047449832
0.00040819928
0.00040491894
0.00040821879
0.00040491894
0.00040819929
0.00034352159
0.00034004274
0.00034260879
0.00034004274
0.0003435216
0.00027969964
0.0002761591
0.00027790731
0.00027615909
0.00027969965
0.00021632491
0.00021284227
0.00021374197
0.00021284226
0.00021632491
0.00015323902
0.00014980006
0.00014994886
0.00014980006
0.00015323902
9.0314973e-05
8.6781172e-05
8.6244675e-05
8.6781167e-05
9.0314971e-05
2.7314315e-05
2.3048142e-05
2.1527621e-05
2.3048139e-05
2.7314314e-05
)
;
    }
    bottomWater_to_rightSolid
    {
        type            fixedFluxPressure;
        gradient        uniform 0;
        value           nonuniform List<scalar> 
130
(
0.00090353031
0.00079262421
0.00069907352
0.00061756151
0.00054366182
0.00047449833
0.00040819929
0.0003435216
0.00027969965
0.00021632491
0.00015323902
9.0314983e-05
2.7314348e-05
0.00084927883
0.00075014978
0.00066974413
0.00059879582
0.00053237614
0.00046824598
0.0004052837
0.00034281751
0.00028037183
0.00021765927
0.0001545482
9.0964812e-05
2.6831222e-05
0.00074274839
0.00066623289
0.00061482127
0.00056730953
0.00051785868
0.00046538305
0.00040991494
0.00035166244
0.00029121398
0.00022910184
0.00016515398
9.9387287e-05
3.2178312e-05
0.0005321761
0.00054641765
0.00054128515
0.00052476822
0.00049553228
0.00045581684
0.00040818009
0.00035469832
0.00029729711
0.00023653817
0.00017271325
0.00010654683
3.8991519e-05
0.00020075951
0.00042920346
0.00046995848
0.00051335717
0.00050743169
0.00047813708
0.00043449313