/*--------------------------------*- C++ -*----------------------------------*\
| =========                 |                                                 |
| \\      /  F ield         | OpenFOAM: The Open Source CFD Toolbox           |
|  \\    /   O peration     | Version:  2412                                  |
|   \\  /    A nd           | Website:  www.openfoam.com                      |
|    \\/     M anipulation  |                                                 |
\*---------------------------------------------------------------------------*/
FoamFile
{
    version     2.0;
    format      ascii;
    arch        "LSB;label=32;scalar=64";
    class       surfaceScalarField;
    location    "50/bottomWater";
    object      phi;
}
// * * * * * * * * * * * * * * * * * * * * * * * * * * * * * * * * * * * * * //

dimensions      [1 0 -1 0 0 0 0];

oriented        oriented;

internalField   nonuniform List<scalar> 
3858
(
7.3282138e-05
4.1438234e-06
2.5740382e-06
6.5943776e-05
4.2737633e-06
3.0645991e-06
5.9180211e-05
3.8009326e-06
2.9626324e-06
5.3485769e-05
3.1487259e-06
2.5457161e-06
4.9071186e-05
2.4675694e-06
1.9470134e-06
4.5954382e-05
1.8672638e-06
1.2495404e-06
4.4085638e-05
1.3887085e-06
4.8003491e-07
4.3393861e-05
1.0365008e-06
-3.4472344e-07
4.3795004e-05
8.0170883e-07
-1.2028516e-06
4.5239738e-05
6.3896002e-07
-2.083694e-06
4.7673992e-05
4.8290016e-07
-2.9171548e-06
5.0911507e-05
2.9935301e-07
-3.5368674e-06
5.4385686e-05
7.9725063e-08
-3.5539037e-06
5.6456978e-05
-1.2370311e-07
-1.9475897e-06
5.7076617e-05
-2.8335026e-07
-3.36288e-07
5.6405328e-05
-3.8054892e-07
1.0518379e-06
5.4604964e-05
-3.7890808e-07
2.1792718e-06
5.1830259e-05
-3.2505692e-07
3.099762e-06
4.8556129e-05
-2.6790963e-07
3.5420395e-06
4.5267484e-05
-2.2786078e-07
3.516506e-06
4.2289956e-05
-1.9978191e-07
3.1773092e-06
3.9780887e-05
-1.7088247e-07
2.6799517e-06
3.7779603e-05
-1.3321375e-07
2.1344976e-06
3.6253901e-05
-8.5425938e-08
1.6111283e-06
3.5136818e-05
-3.248895e-08
1.1495722e-06
3.4346887e-05
2.1176909e-08
7.6875352e-07
3.3797255e-05
7.1432261e-08
4.7820015e-07
3.3406333e-05
1.1086676e-07
2.8005456e-07
3.3098989e-05
1.4020014e-07
1.6714439e-07
1.8397589e-07
1.3191522e-07
7.9638559e-05
1.6702621e-06
2.8350023e-06
7.8430073e-05
1.8598942e-06
3.6223552e-06
7.6843287e-05
1.7400174e-06
3.6477014e-06
7.5112068e-05
1.4949466e-06
3.3849981e-06
7.3464766e-05
1.2017059e-06
2.9131656e-06
7.2131791e-05
9.2171406e-07
2.2785247e-06
7.1333735e-05
6.8419862e-07
1.5025658e-06
7.1304894e-05
4.9964733e-07
5.6569402e-07
7.2257671e-05
3.7283267e-07
-5.2390033e-07
7.4336659e-05
2.8913036e-07
-1.729158e-06
7.7602362e-05
2.1625448e-07
-2.999058e-06
8.1935048e-05
1.3498051e-07
-4.1683128e-06
8.6774745e-05
4.3102431e-08
-4.8030746e-06
9.0423199e-05
-4.9023361e-08
-3.7231338e-06
9.2484499e-05
-1.2794844e-07
-2.2167021e-06
9.3035534e-05
-1.8518392e-07
-7.4639948e-07
9.2193627e-05
-2.0173288e-07
6.6473184e-07
9.0077363e-05
-1.8155068e-07
1.9727574e-06
8.7009811e-05
-1.5451585e-07
2.9541586e-06
8.3401138e-05
-1.3547295e-07
3.5162843e-06
7.9601233e-05
-1.2424717e-07
3.724371e-06
7.5873908e-05
-1.1408482e-07
3.670527e-06
7.2417468e-05
-9.8781996e-08
3.4220086e-06
6.9362818e-05
-7.5178948e-08
3.0444028e-06
6.6778992e-05
-4.414214e-08
2.5954786e-06
6.4680634e-05
-8.9085412e-09
2.1284442e-06
6.3042307e-05
2.1978375e-08
1.6877804e-06
6.1798121e-05
4.9176895e-08
1.3058761e-06
6.0859854e-05
7.3196339e-08
1.0052705e-06
1.038489e-07
8.2321112e-07
8.048658e-05
-1.670262e-06
2.8539441e-06
8.0525593e-05
-1.859894e-06
3.6807749e-06
8.0257764e-05
-1.7400169e-06
3.7478639e-06
7.9716737e-05
-1.4949457e-06
3.5309186e-06
7.9020729e-05
-1.2017045e-06
3.0994187e-06
7.8368262e-05
-9.217123e-07
2.4958939e-06
7.7994002e-05
-6.8419689e-07
1.7426548e-06
7.8169043e-05
-4.9964599e-07
8.2425256e-07
7.9190027e-05
-3.728319e-07
-2.7531933e-07
8.1258764e-05
-2.8913011e-07
-1.4904765e-06
8.4473728e-05
-2.1625453e-07
-2.7824555e-06
8.8737033e-05
-1.3498062e-07
-3.9933434e-06
9.3549079e-05
-4.3102382e-08
-4.7258414e-06
9.7311001e-05
4.9023681e-08
-3.8599691e-06
9.960216e-05
1.2794907e-07
-2.5470559e-06
0.00010042998
1.8518478e-07
-1.1981871e-06
9.9891754e-05
2.0173377e-07
1.3475755e-07
9.8094158e-05
1.8155133e-07
1.4344933e-06
9.534425e-05
1.5451599e-07
2.4408767e-06
9.1991852e-05
1.3547241e-07
3.0814524e-06
8.8335328e-05
1.2424593e-07
3.4080309e-06
8.4612829e-05
1.1408313e-07
3.4943308e-06
8.1024591e-05
9.8780371e-08
3.390676e-06
7.7725932e-05
7.5178047e-08
3.1483025e-06
7.4827022e-05
4.4142431e-08
2.8106249e-06
7.2389088e-05
8.9102183e-09
2.4201156e-06
7.0415946e-05
-2.1976046e-08
2.0170957e-06
6.8875358e-05
-4.9174046e-08
1.6389394e-06
6.7703288e-05
-7.319355e-08
1.3184597e-06
-1.0384649e-07
1.1110482e-06
7.9638559e-05
-4.1438234e-06
2.8350023e-06
7.8430073e-05
-4.2737632e-06
3.6223552e-06
7.6843287e-05
-3.8009324e-06
3.6477014e-06
7.5112069e-05
-3.1487255e-06
3.384998e-06
7.3464768e-05
-2.4675687e-06
2.9131655e-06
7.2131794e-05
-1.867263e-06
2.2785247e-06
7.1333738e-05
-1.3887076e-06
1.5025659e-06
7.1304899e-05
-1.0365001e-06
5.6569412e-07
7.2257675e-05
-8.0170845e-07
-5.2390015e-07
7.4336663e-05
-6.389599e-07
-1.7291577e-06
7.7602366e-05
-4.8290019e-07
-2.9990575e-06
8.1935051e-05
-2.9935304e-07
-4.1683122e-06
8.6774747e-05
-7.9724965e-08
-4.8030739e-06
9.04232e-05
1.2370343e-07
-3.723133e-06
9.24845e-05
2.8335078e-07
-2.2167015e-06
9.3035534e-05
3.8054954e-07
-7.4639891e-07
9.2193627e-05
3.7890867e-07
6.6473229e-07
9.0077363e-05
3.2505735e-07
1.9727577e-06
8.7009811e-05
2.6790977e-07
2.9541586e-06
8.3401139e-05
2.2786053e-07
3.5162841e-06
7.9601233e-05
1.997813e-07
3.7243705e-06
7.5873908e-05
1.7088163e-07
3.6705264e-06
7.2417467e-05
1.3321292e-07
3.4220081e-06
6.9362817e-05
8.5425404e-08
3.044403e-06
6.6778991e-05
3.2488972e-08
2.5954794e-06
6.4680632e-05
-2.1176136e-08
2.1284454e-06
6.3042305e-05
-7.1430948e-08
1.6877818e-06
6.1798119e-05
-1.1086518e-07
1.3058776e-06
6.0859852e-05
-1.401986e-07
1.0052719e-06
-1.839746e-07
8.232124e-07
7.3282138e-05
2.5740382e-06
6.5943776e-05
3.0645991e-06
5.9180211e-05
2.9626324e-06
5.348577e-05
2.5457161e-06
4.9071188e-05
1.9470134e-06
4.5954384e-05
1.2495405e-06
4.4085641e-05
4.8003504e-07
4.3393865e-05
-3.4472324e-07
4.3795007e-05
-1.2028513e-06
4.5239741e-05
-2.0836937e-06
4.7673995e-05
-2.9171544e-06
5.0911509e-05
-3.5368668e-06
5.4385687e-05
-3.553903e-06
5.645698e-05
-1.947589e-06
5.7076618e-05
-3.3628735e-07
5.6405329e-05
1.0518386e-06
5.4604965e-05
2.1792723e-06
5.183026e-05
3.0997623e-06
4.855613e-05
3.5420396e-06
4.5267485e-05
3.516506e-06
4.2289957e-05
3.1773091e-06
3.9780887e-05
2.6799515e-06
3.7779602e-05
2.1344976e-06
3.6253899e-05
1.6111285e-06
3.5136815e-05
1.1495729e-06
3.4346884e-05
7.6875493e-07
3.3797251e-05
4.78202e-07
3.340633e-05
2.8005644e-07
3.3098985e-05
1.6714607e-07
1.319166e-07
7.6667964e-05
4.3756787e-06
1.530395e-06
7.286812e-05
4.7279579e-06
2.1364854e-06
6.9366809e-05
4.2313261e-06
2.2326178e-06
6.6317675e-05
3.641695e-06
1.9531546e-06
6.3852867e-05
3.0304527e-06
1.3813689e-06
6.2059229e-05
2.4608419e-06
5.8233674e-07
6.0996845e-05
1.9769091e-06
-4.3448983e-07
6.0768691e-05
1.5708205e-06
-1.6873899e-06
6.1525194e-05
1.1965693e-06
-3.1559245e-06
6.3485378e-05
8.3251125e-07
-4.876389e-06
6.6939914e-05
4.8178552e-07
-6.8534768e-06
7.2070686e-05
1.5845788e-07
-8.8260968e-06
7.8151284e-05
-4.3196315e-08
-9.5913053e-06
8.0594347e-05
5.0650099e-08
-4.4413028e-06
8.1196968e-05
1.9981793e-07
-1.1387273e-06
8.0576476e-05
2.9485392e-07
1.3774762e-06
7.8790445e-05
3.3554617e-07
3.6297566e-06
7.5539422e-05
3.4750066e-07
6.0032843e-06
7.1637541e-05
3.3525171e-07
7.1086692e-06
6.7717757e-05
2.8878083e-07
7.1475091e-06
6.4149142e-05
2.1628607e-07
6.5296377e-06
6.1113789e-05
1.3617373e-07
5.5791314e-06
5.8660815e-05
6.5199335e-08
4.5222717e-06
5.6760733e-05
1.4456972e-08
3.4967539e-06
5.5337319e-05
-8.5159334e-09
2.5815025e-06
5.4299793e-05
-4.9019368e-09
1.8111809e-06
5.3556089e-05
2.0713974e-08
1.20119e-06
5.3017937e-05
6.0208166e-08
7.579991e-07
5.2599087e-05
1.1318418e-07
4.7280986e-07
2.125153e-07
3.2572938e-07
8.3697553e-05
1.7857224e-06
1.7274055e-06
8.7421513e-05
2.0660534e-06
2.5602999e-06
9.0563231e-05
1.9330195e-06
2.8042903e-06
9.3188394e-05
1.7174784e-06
2.6840517e-06
9.5411691e-05
1.4664943e-06
2.2538269e-06
9.7399385e-05
1.2155679e-06
1.5361044e-06
9.9349323e-05
9.9083318e-07
5.3870385e-07
0.00010149196
7.9679682e-07
-8.0291672e-07
0.00010408023
6.1519431e-07
-2.530798e-06
0.00010743031
4.3637877e-07
-4.6831051e-06
0.00011196782
2.6432043e-07
-7.3191009e-06
0.00011813633
1.0257508e-07
-1.0280943e-05
0.00012571143
-8.5189937e-09
-1.2412855e-05
0.00013037271
-2.8766072e-09
-8.3308831e-06
0.00013352508
5.2539248e-08
-5.2217955e-06
0.00013545038
9.6708842e-08
-2.4735563e-06
0.00013593507
1.1924809e-07
3.9634437e-07
0.00013464273
1.2420665e-07
3.4883871e-06
0.00013207005
1.20679e-07
5.7414147e-06
0.00012874576
1.0383241e-07
7.0255205e-06
0.00012500589
7.4107044e-08
7.6064206e-06
0.00012111722
3.850239e-08
7.6568711e-06
0.00011727705
5.9306712e-09
7.321451e-06
0.00011364141
-2.1829124e-08
6.7163233e-06
0.00011033352
-3.4255223e-08
5.9291116e-06
0.00010743848
-3.0403969e-08
5.0489821e-06
0.00010500071
-1.2800079e-08
4.1590625e-06
0.00010302822
1.369608e-08
3.3248858e-06
0.00010149911
5.0902632e-08
2.5966585e-06
1.1211593e-07
2.029367e-06
8.4673771e-05
-1.7857224e-06
1.7516177e-06
8.9868822e-05
-2.0660532e-06
2.6178307e-06
9.458592e-05
-1.9330188e-06
2.8968041e-06
9.8731635e-05
-1.7174772e-06
2.8201597e-06
0.00010232569
-1.4664924e-06
2.438354e-06
0.0001054833
-1.2155655e-06
1.7694133e-06
0.00010839146
-9.9083056e-07
8.1615655e-07
0.00011127288
-7.9679451e-07
-4.6357577e-07
0.00011438429
-6.1519276e-07
-2.1563389e-06
0.0001180337
-4.3637824e-07
-4.2671308e-06
0.0001226447
-2.6432093e-07
-6.8648127e-06
0.00012869552
-1.025764e-07
-9.8390124e-06
0.00013608647
8.5171721e-09
-1.2133832e-05
0.00014078482
2.8742835e-09
-8.5640711e-06
0.00014422854
-5.2541223e-08
-5.8856906e-06
0.00014669476
-9.6710873e-08
-3.4709844e-06
0.0001478515
-1.1925024e-07
-7.8349191e-07
0.00014731243
-1.2420913e-07
2.2219817e-06
0.00014549059
-1.2068213e-07
4.5040789e-06
0.00014281726
-1.0383658e-07
5.9624523e-06
0.00013955831
-7.4112557e-08
6.8152031e-06
0.00013593643
-3.8509332e-08
7.1932164e-06
0.00013214
-5.9381635e-09
7.1989822e-06
0.00012833013
2.1819356e-08
6.9145216e-06
0.00012467334
3.4246613e-08
6.3989092e-06
0.00012131592
3.0397005e-08
5.7167375e-06
0.00011837037
1.2795036e-08
4.9370458e-06
0.00011590692
-1.3698859e-08
4.1297899e-06
0.00011396493
-5.0904118e-08
3.3622539e-06
-1.1211673e-07
2.7174298e-06
8.3697553e-05
-4.3756787e-06
1.7274055e-06
8.7421513e-05
-4.7279578e-06
2.5602998e-06
9.0563231e-05
-4.2313258e-06
2.8042903e-06
9.3188395e-05
-3.6416945e-06
2.6840517e-06
9.5411693e-05
-3.0304518e-06
2.2538268e-06
9.7399389e-05
-2.4608407e-06
1.5361044e-06
9.9349328e-05
-1.9769078e-06
5.3870391e-07
0.00010149196
-1.5708193e-06
-8.0291653e-07
0.00010408024
-1.1965686e-06
-2.5307976e-06
0.00010743032
-8.3251108e-07
-4.6831046e-06
0.00011196782
-4.8178591e-07
-7.3191002e-06
0.00011813634
-1.5845869e-07
-1.0280942e-05
0.00012571144
4.3195328e-08
-1.2412854e-05
0.00013037271
-5.0651104e-08
-8.3308824e-06
0.00013352508
-1.9981879e-07
-5.2217948e-06
0.00013545038
-2.9485471e-07
-2.4735558e-06
0.00013593507
-3.3554692e-07
3.9634458e-07
0.00013464273
-3.4750151e-07
3.4883869e-06
0.00013207005
-3.3525284e-07
5.741414e-06
0.00012874576
-2.8878243e-07
7.0255193e-06
0.00012500589
-2.1628839e-07
7.6064189e-06
0.00012111721
-1.3617698e-07
7.656869e-06
0.00011727704
-6.5203592e-08
7.3214486e-06
0.0001136414
-1.4462215e-08
6.7163205e-06
0.00011033351
8.5115706e-09
5.9291091e-06
0.00010743847
4.8987374e-09
5.04898e-06
0.0001050007
-2.0716262e-08
4.159061e-06
0.0001030282
-6.0209324e-08
3.3248849e-06
0.0001014991
-1.1318463e-07
2.5966581e-06
-2.1251539e-07
2.029367e-06
7.6667965e-05
1.530395e-06
7.286812e-05
2.1364854e-06
6.9366809e-05
2.2326177e-06
6.6317676e-05
1.9531546e-06
6.3852869e-05
1.3813688e-06
6.2059232e-05
5.8233678e-07
6.0996849e-05
-4.3448968e-07
6.0768696e-05
-1.6873896e-06
6.15252e-05
-3.1559241e-06
6.3485384e-05
-4.8763885e-06
6.693992e-05
-6.8534761e-06
7.207069e-05
-8.826096e-06
7.8151287e-05
-9.5913044e-06
8.0594349e-05
-4.441302e-06
8.1196969e-05
-1.1387267e-06
8.0576477e-05
1.3774766e-06
7.8790445e-05
3.6297567e-06
7.5539422e-05
6.0032839e-06
7.1637541e-05
7.1086682e-06
6.7717757e-05
7.1475076e-06
6.4149142e-05
6.5296359e-06
6.1113787e-05
5.5791293e-06
5.8660811e-05
4.5222696e-06
5.6760726e-05
3.4967518e-06
5.533731e-05
2.5815007e-06
5.4299783e-05
1.81118e-06
5.3556079e-05
1.2011899e-06
5.3017927e-05
7.5799964e-07
5.2599077e-05
4.7281081e-07
3.257305e-07
7.6487803e-05
4.391845e-06
6.5074721e-07
7.2789922e-05
4.7821056e-06
1.0522606e-06
6.9565815e-05
4.2984569e-06
1.1582676e-06
6.6813428e-05
3.7181249e-06
9.8741672e-07
6.4541402e-05
3.1065951e-06
5.4680036e-07
6.2772815e-05
2.5141766e-06
-1.6325321e-07
6.1496276e-05
1.9682876e-06
-1.1262381e-06
6.0782021e-05
1.4704227e-06
-2.4435581e-06
6.0858876e-05
9.9477277e-07
-4.2275523e-06
6.2175393e-05
4.8600254e-07
-6.678908e-06
6.5535801e-05
-1.0004437e-07
-1.0113841e-05
7.2072441e-05
-7.4244019e-07
-1.4620296e-05
8.2078957e-05
-1.0958566e-06
-1.8501965e-05
8.5824218e-05
-4.3096118e-07
-7.7556024e-06
8.688393e-05
1.8953592e-07
-2.3879751e-06
8.6437352e-05
7.3124392e-07
1.0928105e-06
8.4407425e-05
1.1707393e-06
4.4889439e-06
7.9080347e-05
1.535288e-06
9.7950739e-06
7.3618567e-05
1.6399628e-06
1.0930486e-05
6.8770829e-05
1.4910076e-06
1.050424e-05
6.4917786e-05
1.2002145e-06
9.1824665e-06
6.2063349e-05
8.5962765e-07
7.5739406e-06
6.0063159e-05
5.2645538e-07
5.996006e-06
5.8740406e-05
2.345401e-07
4.5849674e-06
5.7914755e-05
1.1455256e-08
3.3956977e-06
5.7420898e-05
-1.2520073e-07
2.4302385e-06
5.7117601e-05
-1.7133717e-07
1.6758246e-06
5.6912873e-05
-1.5109227e-07
1.1138192e-06
5.675007e-05
-8.4507349e-08
7.2012026e-07
2.4864038e-08
4.6810778e-07
8.3579045e-05
1.7936868e-06
7.465184e-07
8.7545169e-05
2.0929685e-06
1.2833132e-06
9.1170302e-05
1.9664131e-06
1.5112014e-06
9.4361882e-05
1.7552173e-06
1.4553787e-06
9.7101586e-05
1.5041455e-06
1.1165731e-06
9.9441471e-05
1.2427883e-06
4.6760774e-07
0.00010148128
9.8923061e-07
-5.2205124e-07
0.00010333087
7.4899303e-07
-1.9310781e-06
0.00010522297
5.1652709e-07
-3.9446512e-06
0.00010759167
2.7094163e-07
-6.8367423e-06
0.00011120875
-1.0660093e-08
-1.1025566e-05
0.00011745862
-3.6068971e-07
-1.6912565e-05
0.00012800032
-5.9804194e-07
-2.3452365e-05
0.0001334617
-3.5128818e-07
-1.3871938e-05
0.00013677696
-2.2068895e-08
-8.3254472e-06
0.00013912316
2.4372535e-07
-4.3322401e-06
0.00014017036
4.9553943e-07
2.4342465e-08
0.00013759429
6.9543572e-07
6.9043096e-06
0.00013420934
7.8767713e-07
9.9786546e-06
0.0001306276
7.5774845e-07
1.1340517e-05
0.00012719097
6.4666693e-07
1.15966e-05
0.00012404611
4.9406009e-07
1.1167293e-05
0.00012120275
3.2951637e-07
1.0361755e-05
0.00011863651
1.7473454e-07
9.3423624e-06
0.00011632811
4.6850467e-08
8.2021218e-06
0.00011428063
-4.3544113e-08
7.0148075e-06
0.00011251699
-8.7916295e-08
5.8392797e-06
0.00011105847
-9.1445565e-08
4.7237595e-06
0.00010993024
-6.1915719e-08
3.7022957e-06
-2.4411765e-09
2.8179496e-06
8.4576079e-05
-1.7936867e-06
7.6291173e-07
9.0057315e-05
-2.0929682e-06
1.3225323e-06
9.5311378e-05
-1.9664124e-06
1.5755666e-06
0.00010008999
-1.7552161e-06
1.5519797e-06
0.00010428331
-1.5041436e-06
1.2533234e-06
0.00010788511
-1.2427859e-06
6.5318357e-07
0.00011097457
-9.8922801e-07
-2.9484168e-07
0.00011365049
-7.4899084e-07
-1.6415083e-06
0.00011610849
-5.1652584e-07
-3.5812848e-06
0.00011876042
-2.7094163e-07
-6.3771793e-06
0.0001223495
1.0658605e-08
-1.0475216e-05
0.00012816408
3.606873e-07
-1.6374966e-05
0.00013815137
5.9803885e-07
-2.3317207e-05
0.00014338755
3.5128483e-07
-1.4502823e-05
0.00014692691
2.2064953e-08
-9.4691803e-06
0.00014978967
-2.4372871e-07
-5.846292e-06
0.00015159059
-4.9554328e-07
-1.5933239e-06
0.00015017578
-6.9544031e-07
5.0276598e-06
0.00014793953
-7.8768283e-07
8.3156922e-06
0.00014533871
-7.5775562e-07
1.0078776e-05
0.00014261287
-6.4667583e-07
1.0834388e-05
0.00013988201
-4.9407077e-07
1.0912209e-05
0.0001371678
-3.2952848e-07
1.0572233e-05
0.00013448587
-1.747472e-07
9.9459383e-06
0.00013187071
-4.6862515e-08
9.1077784e-06
0.00012938395
4.3532958e-08
8.1164216e-06
0.00012711407
8.7907432e-08
7.0311007e-06
0.00012515151
9.1438863e-08
5.9094633e-06
0.00012358918
6.1910777e-08
4.8007631e-06
2.4377429e-09
3.7707369e-06
8.3579045e-05
-4.391845e-06
7.465184e-07
8.7545169e-05
-4.7821055e-06
1.2833132e-06
9.1170302e-05
-4.2984566e-06
1.5112013e-06
9.4361883e-05
-3.7181243e-06
1.4553787e-06
9.7101588e-05
-3.1065942e-06
1.116573e-06
9.9441474e-05
-2.5141754e-06
4.6760772e-07
0.00010148129
-1.9682863e-06
-5.2205118e-07
0.00010333088
-1.4704216e-06
-1.9310779e-06
0.00010522298
-9.9477224e-07
-3.9446509e-06
0.00010759168
-4.8600276e-07
-6.8367417e-06
0.00011120876
1.0004339e-07
-1.1025566e-05
0.00011745863
7.4243875e-07
-1.6912564e-05
0.00012800032
1.095855e-06
-2.3452364e-05
0.0001334617
4.309597e-07
-1.3871937e-05
0.00013677696
-1.8953745e-07
-8.325447e-06
0.00013912316
-7.3124535e-07
-4.3322401e-06
0.00014017036
-1.1707408e-06
2.4342061e-08
0.00013759429
-1.5352898e-06
6.9043085e-06
0.00013420933
-1.639965e-06
9.9786524e-06
0.00013062759
-1.4910104e-06
1.1340514e-05
0.00012719096
-1.2002181e-06
1.1596596e-05
0.0001240461
-8.5963234e-07
1.1167287e-05
0.00012120273
-5.2646127e-07
1.0361748e-05
0.0001186365
-2.3454708e-07
9.3423546e-06
0.00011632809
-1.146191e-08
8.2021137e-06
0.00011428061
1.2519471e-07
7.0147997e-06
0.00011251697
1.7133277e-07
5.8392728e-06
0.00011105846
1.510893e-07
4.7237538e-06
0.00010993023
8.4505462e-08
3.7022915e-06
-2.4865414e-08
2.8179468e-06
7.6487803e-05
6.5074721e-07
7.2789922e-05
1.0522606e-06
6.9565816e-05
1.1582676e-06
6.6813429e-05
9.8741667e-07
6.4541404e-05
5.4680031e-07
6.2772818e-05
-1.632532e-07
6.149628e-05
-1.126238e-06
6.0782027e-05
-2.4435579e-06
6.0858882e-05
-4.2275519e-06
6.2175399e-05
-6.6789074e-06
6.5535806e-05
-1.011384e-05
7.2072444e-05
-1.4620295e-05
8.207896e-05
-1.8501965e-05
8.5824219e-05
-7.7556021e-06
8.688393e-05
-2.387975e-06
8.6437351e-05
1.0928104e-06
8.4407424e-05
4.4889433e-06
7.9080346e-05
9.7950721e-06
7.3618566e-05
1.0930483e-05
6.8770827e-05
1.0504235e-05
6.4917784e-05
9.1824612e-06
6.2063346e-05
7.5739347e-06
6.0063155e-05
5.9959999e-06
5.8740398e-05
4.5849613e-06
5.7914745e-05
3.3956918e-06
5.7420887e-05
2.4302333e-06
5.7117589e-05
1.6758205e-06
5.6912861e-05
1.1138164e-06
5.6750059e-05
7.2011873e-07
4.6810726e-07
7.6008243e-05
4.3969722e-06
2.4553209e-07
7.1849188e-05
4.8010265e-06
4.1028942e-07
6.8265721e-05
4.309095e-06
4.32639e-07
6.5233877e-05
3.7128817e-06
3.0637929e-07
6.2671532e-05
3.0858927e-06
2.3252317e-08
6.0512991e-05
2.4818441e-06
-4.86556e-07
5.8718723e-05
1.9261725e-06
-1.258143e-06
5.7308049e-05
1.3944077e-06
-2.4272913e-06
5.6490972e-05
8.1985788e-07
-4.2303331e-06
5.6849755e-05
9.4282053e-08
-7.1319729e-06
5.962876e-05
-8.8565297e-07
-1.2007193e-05
6.7042207e-05
-2.103432e-06
-1.9930311e-05
7.8531026e-05
-2.0936402e-06
-2.7897144e-05
6.8322007e-05
2.4534163e-06
6.243606e-05
3.4979728e-06
6.0265548e-05
3.2633216e-06
6.1407251e-05
3.3472412e-06
5.6248691e-05
3.7346468e-06
1.1218987e-05
5.258365e-05
3.4857125e-06
1.1109814e-05
5.0242273e-05
2.8343691e-06
1.0011248e-05
4.9494664e-05
2.0597943e-06
7.8702814e-06
4.9708501e-05
1.31784e-06
6.0422637e-06
5.0499931e-05
6.7226354e-07
4.5323126e-06
5.1605502e-05
1.5967624e-07
3.3197198e-06
5.2814314e-05
-1.9316979e-07
2.3800555e-06
5.3957525e-05
-3.8352326e-07
1.670551e-06
5.4925142e-05
-4.3633617e-07
1.1445431e-06
5.5680094e-05
-4.0518262e-07
7.6405029e-07
5.6235443e-05
-3.3549655e-07
5.002677e-07
-2.7390534e-07
3.2076319e-07
8.306367e-05
1.7951041e-06
2.8471661e-07
8.6538173e-05
2.1027375e-06
5.070995e-07
8.9798666e-05
1.9738637e-06
5.8593888e-07
9.2699608e-05
1.7559735e-06
5.1134548e-07
9.513805e-05
1.4974175e-06
2.6660644e-07
9.7052619e-05
1.2293131e-06
-1.9443092e-07
9.8457291e-05
9.6920965e-07
-9.697597e-07
9.940084e-05
7.1248527e-07
-2.1927054e-06
9.9999056e-05
4.3666848e-07
-4.159677e-06
0.00010058503
9.3926702e-08
-7.4223625e-06
0.0001021154
-3.7854188e-07
-1.3063049e-05
0.0001070508
-1.0450878e-06
-2.2906304e-05
0.00011852695
-1.3103405e-06
-3.5711813e-05
0.00010623027
8.7815733e-07
9.9768748e-05
1.634045e-06
9.708207e-05
1.617759e-06
9.8800274e-05
1.6533804e-06
9.6138085e-05
1.8358837e-06
1.1465261e-05
9.5335318e-05
1.8073997e-06
1.2459735e-05
9.5368705e-05
1.5440581e-06
1.2597441e-05
9.6365938e-05
1.1875319e-06
1.147163e-05
9.7827295e-05
8.1845874e-07
1.0205316e-05
9.9428083e-05
4.7883609e-07
8.9543946e-06
0.0001009656
1.9239055e-07
7.7721304e-06
0.00010233933
-2.4589184e-08
6.6598153e-06
0.0001035183
-1.6091321e-07
5.6132241e-06
0.00010450898
-2.2432677e-07
4.6365862e-06
0.00010532172
-2.3313413e-07
3.7389763e-06
0.00010597092
-2.0881253e-07
2.9264104e-06
-1.7296758e-07
2.2070338e-06
8.4060578e-05
-1.795104e-06
2.9254149e-07
8.9062892e-05
-2.1027372e-06
5.2569342e-07
9.3969266e-05
-1.9738631e-06
6.1691959e-07
9.8474549e-05
-1.7559723e-06
5.5864188e-07
0.00010238805
-1.4974156e-06
3.3465923e-07
0.00010559186
-1.2293108e-06
-9.2009201e-08
0.00010806956
-9.6920723e-07
-8.3412441e-07
0.00010986163
-7.1248332e-07
-2.0086074e-06
0.00011105936
-4.3666753e-07
-3.9056822e-06
0.00011194158
-9.3927105e-08
-7.0715365e-06
0.00011334417
3.7854004e-07
-1.263489e-05
0.00011744558
1.0450847e-06
-2.2566554e-05
0.00012789215
1.3103366e-06
-3.6384447e-05
0.00011514564
-8.7816083e-07
0.00010894455
-1.6340486e-06
0.00010633378
-1.617763e-06
0.00010804723
-1.6533853e-06
0.00010608353
-1.8358912e-06
1.0663135e-05
0.00010619203
-1.80741e-06
1.1821995e-05
0.00010708164
-1.5440709e-06
1.2277297e-05
0.0001087371
-1.1875465e-06
1.1554006e-05
0.00011063137
-8.1847425e-07
1.0654873e-05
0.00011245266
-4.788515e-07
9.7086332e-06
0.00011403813
-1.924048e-07
8.7452566e-06
0.00011532919
2.4577314e-08
7.7675577e-06
0.00011634521
1.6090375e-07
6.778586e-06
0.00011713742
2.2431987e-07
5.7902393e-06
0.00011775904
2.3312935e-07
4.8215855e-06
0.00011825246
2.0880925e-07
3.8897155e-06
1.7296511e-07
3.0172827e-06
8.306367e-05
-4.3969722e-06
2.8471661e-07
8.6538173e-05
-4.8010264e-06
5.0709948e-07
8.9798667e-05
-4.3090947e-06
5.8593885e-07
9.2699609e-05
-3.7128811e-06
5.1134541e-07
9.5138052e-05
-3.0858918e-06
2.6660635e-07
9.7052623e-05
-2.481843e-06
-1.94431e-07
9.8457295e-05
-1.9261712e-06
-9.6975971e-07
9.9400846e-05
-1.3944068e-06
-2.1927053e-06
9.9999062e-05
-8.1985753e-07
-4.1596767e-06
0.00010058504
-9.4282498e-08
-7.422362e-06
0.00010211541
8.8565174e-07
-1.3063049e-05
0.0001070508
2.1034303e-06
-2.2906303e-05
0.00011852695
2.0936384e-06
-3.5711813e-05
0.00010623027
-2.4534178e-06
9.9768747e-05
-3.4979742e-06
9.7082068e-05
-3.2633231e-06
9.8800267e-05
-3.347243e-06
9.6138075e-05
-3.7346495e-06
1.1465259e-05
9.5335305e-05
-3.4857161e-06
1.2459729e-05
9.536869e-05
-2.8343734e-06
1.2597432e-05
9.6365921e-05
-2.0597993e-06
1.1471617e-05
9.7827278e-05
-1.3178456e-06
1.0205301e-05
9.9428066e-05
-6.7226961e-07
8.9543781e-06
0.00010096559
-1.5968247e-07
7.7721135e-06
0.00010233931
1.9316401e-07
6.6597991e-06
0.00010351829
3.8351891e-07
5.6132094e-06
0.00010450897
4.3633318e-07
4.6365738e-06
0.00010532171
4.0518068e-07
3.7389664e-06
0.00010597091
3.3549529e-07
2.9264033e-06
2.7390444e-07
2.207029e-06
7.6008243e-05
2.4553209e-07
7.1849188e-05
4.1028941e-07
6.8265722e-05
4.3263896e-07
6.5233878e-05
3.0637922e-07
6.2671534e-05
2.3252232e-08
6.0512994e-05
-4.8655606e-07
5.8718728e-05
-1.258143e-06
5.7308054e-05
-2.4272911e-06
5.6490978e-05
-4.2303328e-06
5.684976e-05
-7.1319724e-06
5.9628764e-05
-1.2007193e-05
6.704221e-05
-1.993031e-05
7.8531028e-05
-2.7897144e-05
6.8322008e-05
6.2436059e-05
6.0265546e-05
6.1407246e-05
5.6248685e-05
1.1218984e-05
5.2583644e-05
1.1109808e-05
5.0242267e-05
1.0011238e-05
4.9494659e-05
7.8702701e-06
4.9708497e-05
6.0422517e-06
5.0499926e-05
4.5323007e-06
5.1605496e-05
3.3197087e-06
5.2814307e-05
2.3800454e-06
5.3957517e-05
1.6705423e-06
5.4925134e-05
1.1445364e-06
5.5680085e-05
7.640457e-07
5.6235434e-05
5.0026506e-07
3.2076208e-07
7.5841658e-05
4.4038746e-06
-5.0748794e-14
7.1435541e-05
4.8164058e-06
6.9133845e-14
6.7538211e-05
4.3299687e-06
5.3726303e-13
6.4110123e-05
3.7344662e-06
1.4245385e-12
6.1029631e-05
3.1037416e-06
2.5234516e-12
5.8063219e-05
2.4798527e-06
3.3726883e-12
5.4921506e-05
1.8835662e-06
3.5269664e-12
5.1238845e-05
1.2553672e-06
2.8382253e-12
4.6586117e-05
4.2239352e-07
1.4859133e-12
4.0302724e-05
-8.4858031e-07
-5.7991934e-14
3.1319649e-05
-3.0241171e-06
-1.4648648e-12
1.7902066e-05
-6.5127254e-06
-2.4055401e-12
-9.995076e-06
-2.2641872e-12
5.4810915e-06
5.7378931e-06
2.6339145e-12
1.2759658e-05
3.8312439e-06
4.1192828e-12
2.0495893e-05
2.2750091e-06
4.1612971e-12
2.7501544e-05
8.6462686e-07
3.5844848e-12
3.3745433e-05
-2.0162859e-07
3.0106791e-12
3.91595e-05
-8.817562e-07
2.2130145e-12
4.3702672e-05
-1.2234535e-06
1.3175189e-12
4.7411412e-05
-1.3286855e-06
4.0917589e-13
5.0353158e-05
-1.2711946e-06
-5.6173073e-13
5.2615043e-05
-1.11734e-06
-1.7085107e-12
5.4308707e-05
-9.296108e-07
-3.007288e-12
5.5572243e-05
-7.6326355e-07
-4.3606448e-12
-7.1616545e-07
-5.4982697e-12
8.2890567e-05
1.7980247e-06
-3.2220204e-14
8.6103407e-05
2.110665e-06
1.8822875e-13
8.9034072e-05
1.9852409e-06
8.7826555e-13
9.1511874e-05
1.7680078e-06
2.1528964e-12
9.3375422e-05
1.5067963e-06
3.8795264e-12
9.4432804e-05
1.2280346e-06
5.599784e-12
9.4399443e-05
9.4716057e-07
6.7184063e-12
9.2818093e-05
6.4400512e-07
6.7934227e-12
8.8827355e-05
2.5344906e-07
5.593596e-12
8.093228e-05
-3.7587122e-07
3.2468904e-12
6.6292177e-05
-1.4470638e-06
3.0171561e-13
4.0203068e-05
-3.329918e-06
-2.4570647e-12
-5.5038175e-06
-3.2652273e-12
1.4179469e-05
3.0236817e-06
3.4968038e-12
2.8327006e-05
2.1434372e-06
4.6096216e-12
4.1880404e-05
1.3190481e-06
3.850882e-12
5.3593548e-05
6.2311079e-07
2.4058935e-12
6.3555823e-05
4.1412144e-08
6.46452e-13
7.1981051e-05
-3.5258837e-07
-9.3664261e-13
7.9114179e-05
-5.8444958e-07
-2.3219651e-12
8.5137986e-05
-6.9267289e-07
-3.623995e-12
9.0187693e-05
-7.0767302e-07
-4.8739523e-12
9.4365573e-05
-6.5862767e-07
-6.1517394e-12
9.7750608e-05
-5.7566195e-07
-7.5576953e-12
0.00010040457
-4.9080167e-07
-9.1581505e-12
-4.4799357e-07
-1.0731596e-11
8.3888591e-05
-1.7980247e-06
-2.6963345e-14
8.8635614e-05
-2.1106648e-06
2.1904336e-13
9.3223014e-05
-1.9852404e-06
9.5318325e-13
9.7317668e-05
-1.7680067e-06
2.2917657e-12
0.00010066591
-1.5067947e-06
4.125234e-12
0.00010302997
-1.2280325e-06
6.0300203e-12
0.00010409015
-9.4715841e-07
7.4089086e-12
0.00010336955
-6.4400348e-07
7.7977801e-12
9.9970755e-05
-2.5344854e-07
6.8372502e-12
9.2147472e-05
3.7587014e-07
4.5132442e-12
7.6618456e-05
1.4470609e-06
1.2656422e-12
4.7392073e-05
3.3299134e-06
-2.0231009e-12
5.5038126e-06
-3.3805084e-12
1.6710505e-05
-3.0236914e-06
3.1274919e-12
3.281938e-05
-2.1434441e-06
1.3932568e-12
4.7734778e-05
-1.3190511e-06
-1.8219215e-12
6.0535011e-05
-6.2311072e-07
-5.1885766e-12
7.1272714e-05
-4.1409538e-08
-8.306436e-12
8.0276177e-05
3.5259258e-07
-1.0804705e-11
8.7852542e-05
5.8445486e-07
-1.2551345e-11
9.4234761e-05
6.9267866e-07
-1.3575017e-11
9.959801e-05
7.0767874e-07
-1.4026017e-11
0.000104071
6.5863285e-07
-1.4133981e-11
0.00010774127
5.7566621e-07
-1.417123e-11
0.0001106494
4.9080485e-07
-1.4394686e-11
4.4799575e-07
-1.47811e-11
8.2890567e-05
-4.4038746e-06
-3.6604025e-14
8.6103407e-05
-4.8164057e-06
1.6910762e-13
8.9034073e-05
-4.3299684e-06
8.2850531e-13
9.1511875e-05
-3.7344656e-06
2.0594351e-12
9.3375424e-05
-3.1037408e-06
3.7448743e-12
9.4432807e-05
-2.4798516e-06
5.4510903e-12
9.4399447e-05
-1.8835651e-06
6.6002628e-12
9.2818098e-05
-1.2553664e-06
6.7477746e-12
8.882736e-05
-4.2239342e-07
5.6406502e-12
8.0932286e-05
8.4857949e-07
3.3797735e-12
6.6292182e-05
3.0241154e-06
4.8668891e-13
4.0203071e-05
6.5127232e-06
-2.2394718e-12
9.9950742e-06
-3.0847916e-12
1.4179461e-05
-5.7378961e-06
2.4685976e-12
2.8326993e-05
-3.8312454e-06
-1.4773869e-12
4.1880389e-05
-2.2750088e-06
-6.4736287e-12
5.3593532e-05
-8.646253e-07
-1.1026285e-11
6.3555807e-05
2.0163087e-07
-1.4682441e-11
7.1981036e-05
8.8175851e-07
-1.7108638e-11
7.9114167e-05
1.2234557e-06
-1.8321772e-11
8.5137976e-05
1.3286876e-06
-1.8453937e-11
9.0187685e-05
1.2711964e-06
-1.7775564e-11
9.4365567e-05
1.1173415e-06
-1.6632338e-11
9.7750603e-05
9.2961193e-07
-1.5418245e-11
0.00010040456
7.6326434e-07
-1.4491792e-11
7.1616601e-07
-1.3934335e-11
7.5841658e-05
-5.4439407e-14
7.1435541e-05
5.0676936e-14
6.7538211e-05
4.8461254e-13
6.4110124e-05
1.3216202e-12
6.1029633e-05
2.3778598e-12
5.8063222e-05
3.2251145e-12
5.492151e-05
3.4354734e-12
5.123885e-05
2.8457735e-12
4.6586122e-05
1.6015358e-12
4.0302729e-05
1.2859437e-13
3.1319653e-05
-1.2678979e-12
1.7902068e-05
-2.2411936e-12
-2.1440655e-12
5.4810868e-06
1.610304e-12
1.2759651e-05
-1.6178784e-12
2.0495885e-05
-5.0077939e-12
2.7501537e-05
-7.2410832e-12
3.3745428e-05
-8.4643033e-12
3.9159497e-05
-8.8182772e-12
4.370267e-05
-8.5760992e-12
4.741141e-05
-7.9662325e-12
5.0353156e-05
-7.1494114e-12
5.2615041e-05
-6.2980736e-12
5.4308704e-05
-5.6349406e-12
5.5572239e-05
-5.3352196e-12
-5.3191927e-12
7.5841658e-05
4.4038746e-06
-2.4553217e-07
7.1435541e-05
4.8164057e-06
-4.1028926e-07
6.7538211e-05
4.3299686e-06
-4.3263797e-07
6.4110123e-05
3.7344661e-06
-3.0637665e-07
6.1029632e-05
3.1037416e-06
-2.3248046e-08
5.806322e-05
2.4798527e-06
4.8656247e-07
5.4921508e-05
1.8835662e-06
1.2581498e-06
5.1238846e-05
1.2553673e-06
2.4272968e-06
4.6586118e-05
4.2239375e-07
4.2303362e-06
4.0302725e-05
-8.4858002e-07
7.1319732e-06
3.1319649e-05
-3.024117e-06
1.2007191e-05
1.7902066e-05
-6.5127258e-06
1.9930307e-05
-9.9950771e-06
2.789714e-05
5.48109e-06
5.7378977e-06
-1.1218985e-05
1.2759656e-05
3.8312499e-06
-1.1109812e-05
2.049589e-05
2.2750152e-06
-1.0011246e-05
2.7501541e-05
8.6463318e-07
-7.8702799e-06
3.3745429e-05
-2.0162248e-07
-6.0422628e-06
3.9159495e-05
-8.817512e-07
-4.5323127e-06
4.3702667e-05