/*--------------------------------*- C++ -*----------------------------------*\
| =========                 |                                                 |
| \\      /  F ield         | OpenFOAM: The Open Source CFD Toolbox           |
|  \\    /   O peration     | Version:  2412                                  |
|   \\  /    A nd           | Website:  www.openfoam.com                      |
|    \\/     M anipulation  |                                                 |
\*---------------------------------------------------------------------------*/
FoamFile
{
    version     2.0;
    format      ascii;
    arch        "LSB;label=32;scalar=64";
    class       volScalarField;
    location    "50/bottomWater";
    object      T;
}
// * * * * * * * * * * * * * * * * * * * * * * * * * * * * * * * * * * * * * //

dimensions      [0 0 0 1 0 0 0];

internalField   nonuniform List<scalar> 
1460
(
300
300
300
300
300
299.99999
299.99999
299.99999
299.99999
300
300.00002
300.00052
300.00652
300.00928
300.00763
300.00559
300.00395
300.00268
300.00173
300.00106
300.00062
300.00035
300.00019
300.00009
300.00005
300.00002
300.00001
300
300
300
300
300
300
300
300
300
300
299.99999
299.99999
300
300
300.00016
300.00287
300.00644
300.00857
300.0083
300.00682
300.00535
300.004
300.00285
300.00193
300.00125
300.00077
300.00045
300.00025
300.00014
300.00007
300.00003
300.00002
300.00001
300
300
300
300
300
300
300
300
300
300
300
300.00007
300.00157
300.00389
300.00571
300.00615
300.00526
300.00429
300.00334
300.00248
300.00176
300.0012
300.00078
300.00048
300.00029
300.00017
300.00009
300.00005
300.00003
300.00001
300
300
300
300
300
300
300
300
300.00001
300.00001
300.00001
300.00009
300.0016
300.00741
300.0131
300.01671
300.01829
300.01837
300.01716
300.01503
300.01239
300.00965
300.00712
300.00501
300.00338
300.00222
300.00143
300.00091
300.00057
300.00038
300.00001
300.00002
300.00003
300.00004
300.00006
300.00009
300.00014
300.0002
300.00029
300.00039
300.00052
300.00087
300.01007
300.4198
300.64615
300.74467
300.75464
300.70469
300.61713
300.51103
300.40248
300.30326
300.21998
300.15457
300.1058
300.07094
300.04695
300.03111
300.02127
300.01596
300
300
300
300
300
299.99999
299.99999
299.99999
299.99999
300
300.00027
300.00771
300.11731
300.16681
300.15644
300.12634
300.09834
300.07354
300.05264
300.03596
300.0234
300.01447
300.0085
300.00473
300.0025
300.00126
300.0006
300.00027
300.00012
300.00005
300
300
300
300
300
300
300
299.99999
299.99999
300
300.00005
300.00213
300.04789
300.09765
300.13388
300.14553
300.13144
300.11423
300.09534
300.0763
300.05844
300.04277
300.02986
300.01986
300.01258
300.0076
300.00437
300.00241
300.00127
300.00064
300
300
300
300
300
300
300
300
300
300
300.00002
300.00109
300.0276
300.06018
300.08846
300.10394
300.09936
300.08742
300.07399
300.06018
300.04697
300.03508
300.02502
300.01702
300.01102
300.00679
300.00398
300.00223
300.0012
300.00062
300
300
300
300
300.00001
300.00001
300.00001
300.00001
300.00001
300.00001
300.00004
300.0011
300.02637
300.05585
300.07867
300.0883
300.08387
300.07693
300.06781
300.05718
300.04595
300.03513
300.02556
300.01775
300.01182
300.00758
300.0047
300.00284
300.00169
300.00101
300.00001
300.00002
300.00003
300.00005
300.00007
300.00011
300.00016
300.00024
300.00036
300.00051
300.00075
300.00271
300.03844
300.48202
300.76796
300.92676
300.98255
300.95338
300.86162
300.73189
300.58795
300.44919
300.32827
300.23088
300.15725
300.10441
300.06809
300.04414
300.02914
300.02065
300
300
300
300
300
299.99999
299.99999
299.99999
300
300.00004
300.00194
300.05955
301.08601
301.55515
301.64091
301.46345
301.27217
301.04753
300.81465
300.59869
300.41562
300.27251
300.16877
300.0988
300.0548
300.02889
300.01445
300.00685
300.00308
300.00132
300
300
300
300
300
300
300
299.99999
299.99999
300
300.00041
300.01748
300.47571
300.87199
301.18524
301.36231
301.29635
301.18213
301.03231
300.86458
300.69497
300.53632
300.39734
300.28243
300.19236
300.12529
300.07797
300.04634
300.0263
300.01431
300
300
300
300
300
300
300
300
300
300
300.0002
300.00966
300.2983
300.57323
300.81269
300.98172
300.99509
300.91162
300.8017
300.67763
300.55072
300.43029
300.323
300.23266
300.16059
300.10606
300.06693
300.04034
300.02321
300.01281
300
300
300
300.00001
300.00001
300.00001
300.00001
300.00001
300.00001
300.00002
300.00022
300.00945
300.2754
300.49829
300.66557
300.75254
300.7054
300.6353
300.54747
300.45062
300.35388
300.26513
300.18959
300.12947
300.08454
300.05292
300.03176
300.01829
300.01012
300.00543
300.00001
300.00002
300.00004
300.00006
300.00009
300.00014
300.00022
300.00033
300.00051
300.00078
300.00154
300.0164
300.32786
301.0799
301.52566
301.72087
301.76601
301.66752
301.46606
301.20924
300.94161
300.69683
300.49364
300.33712
300.22338
300.14448
300.09192
300.05814
300.03736
300.02564
300
300
300
300
300
299.99999
299.99999
299.99999
300
300.00019
300.00799
300.26152
305.63577
308.34267
311.14595
313.59638
314.9341
311.76383
308.57119
305.91187
303.89472
302.46496
301.5001
300.87747
300.49419
300.26717
300.13795
300.06777
300.03163
300.01415
300
300
300
300
300
300
300
299.99999
300
300.00003
300.00184
300.08513
302.76437
304.61898
306.63936
308.61991
310.33762
309.24506
307.73012
306.17065
304.75427
303.55978
302.59679
301.84459
301.27157
300.84808
300.54593
300.33835
300.20144
300.11545
300
300
300
300
300
300
300
300
300
300.00001
300.00097
300.0506
301.86707
303.21217
304.64044
306.03196
307.26722
306.58375
305.60505
304.56093
303.57692
302.71801
302.00524
301.43639
300.99774
300.67073
300.43555
300.27266
300.16427
300.09544
300
300
300
300.00001
300.00001
300.00001
300.00001
300.00001
300.00002
300.00004
300.00099
300.04814
301.66667
302.74504
303.8696
304.91331
305.7496
304.89927
303.90188
302.96616
302.17479
301.5482
301.07266
300.72308
300.47342
300.30053
300.18444
300.10915
300.06216
300.03416
300.00001
300.00003
300.00004
300.00007
300.00011
300.00017
300.00028
300.00045
300.00071
300.00116
300.00359
300.07456
301.84586
303.70294
305.33726
306.45748
306.80639
305.35016
303.90001
302.70279
301.80684
301.18017
300.75885
300.48248
300.30422
300.19017
300.11792
300.07295
300.04585
300.0307
300
300
300
300
299.99999
299.99999
299.99999
299.99999
300.00001
300.00051
300.02114
300.73361
319.97071
331.93107
310.32845
305.03459
302.79522
301.60893
300.9312
300.53118
300.29516
300.15843
300.08164
300.04022
300.01892
300.0086
300
300
300
300
300
300
299.99999
299.99999
300
300.00009
300.0053
300.26395
310.85366
325.69186
311.42002
306.68382
304.35193
302.93512
301.98458
301.32713
300.87037
300.55656
300.3455
300.20752
300.12026
300.06739
300
300
300
300
300
300
300
300
300
300.00004
300.00295
300.16592
307.75242
318.57966
308.53055
305.05952
303.30582
302.23554
301.51984
301.0235
300.67662
300.43642
300.27345
300.16589
300.09719
300.0551
300
300
300
300.00001
300.00001
300.00001
300.00001
300.00002
300.00002
300.00007
300.0029
300.15443
306.749
312.95335
305.2187
302.86552
301.76672
301.13319
300.734
300.47168
300.29764
300.18322
300.10953
300.06339
300.03546
300.01925
300.00002
300.00003
300.00005
300.00007
300.00012
300.0002
300.00032
300.00053
300.00088
300.00155
300.00759
300.2226
307.12313
311.35086
304.08785
302.28769
301.44862
300.95204
300.63229
300.419
300.27524
300.17863
300.11452
300.07293
300.04697
300.03204
300
300
300
300
299.99999
299.99999
299.99999
299.99999
300.00001
300.00051
300.02114
300.73361
319.9707
331.93106
310.32844
305.03459
302.79522
301.60893
300.9312
300.53118
300.29516
300.15843
300.08164
300.04022
300.01892
300.0086
300
300
300
300
300
300
299.99999
299.99999
300
300.00009
300.0053
300.26395
310.85365
325.69186
311.42003
306.68382
304.35194
302.93512
301.98458
301.32713
300.87038
300.55657
300.34551
300.20752
300.12026
300.06739
300
300
300
300
300
300
300
300
300
300.00004
300.00295
300.16592
307.75241
318.57968
308.53058
305.05953
303.30584
302.23555
301.51985
301.02351
300.67662
300.43643
300.27345
300.16589
300.09719
300.0551
300
300
300
300.00001
300.00001
300.00001
300.00001
300.00002
300.00002
300.00007
300.0029
300.15442
306.74899
312.95338
305.21873
302.86554
301.76674
301.1332
300.73401
300.47169
300.29765
300.18322
300.10953
300.0634
300.03546
300.01925
300.00002
300.00003
300.00005
300.00007
300.00012
300.0002
300.00032
300.00053
300.00088
300.00155
300.00759
300.2226
307.12312
311.3509
304.08788
302.2877
301.44863
300.95205
300.63229
300.419
300.27524
300.17863
300.11452
300.07293
300.04697
300.03204
300
300
300
300
299.99999
299.99999
299.99999
299.99999
300
300.00019
300.00799
300.26152
305.63577
308.34267
311.14594
313.59637
314.93408
311.76382
308.57118
305.91187
303.89471
302.46496
301.5001
300.87747
300.49419
300.26717
300.13795
300.06777
300.03163
300.01415
300
300
300
300
300
300
299.99999
299.99999
300
300.00003
300.00184
300.08513
302.76437
304.61897
306.63935
308.6199
310.3376
309.24505
307.73011
306.17064
304.75426
303.55978
302.59679
301.84459
301.27157
300.84808
300.54593
300.33835
300.20144
300.11545
300
300
300
300
300
300
300
300
300
300.00001
300.00097
300.0506
301.86707
303.21217
304.64044
306.03195
307.26721
306.58374
305.60505
304.56092
303.57692
302.71801
302.00524
301.4364
300.99774
300.67074
300.43555
300.27266
300.16427
300.09544
300
300
300
300.00001
300.00001
300.00001
300.00001
300.00001
300.00002
300.00004
300.00099
300.04814
301.66667
302.74503
303.8696
304.91331
305.74959
304.89927
303.90188
302.96617
302.1748
301.5482
301.07266
300.72309
300.47343
300.30054
300.18444
300.10915
300.06216
300.03416
300.00001
300.00003
300.00004
300.00007
300.00011
300.00017
300.00028
300.00045
300.00071
300.00116
300.00359
300.07456
301.84586
303.70294
305.33726
306.45748
306.80639
305.35017
303.90002
302.7028
301.80686
301.18018
300.75886
300.48249
300.30422
300.19017
300.11792
300.07295
300.04585
300.0307
300
300
300
300
300
299.99999
299.99999
299.99999
300
300.00004
300.00194
300.05955
301.08601
301.55515
301.64091
301.46345
301.27217
301.04753
300.81465
300.59869
300.41562
300.27251
300.16877
300.0988
300.0548
300.02889
300.01445
300.00685
300.00308
300.00132
300
300
300
300
300
300
300
299.99999
299.99999
300
300.00041
300.01748
300.47571
300.87199
301.18524
301.3623
301.29635
301.18212
301.0323
300.86458
300.69496
300.53632
300.39734
300.28243
300.19236
300.12529
300.07797
300.04634
300.0263
300.01431
300
300
300
300
300
300
300
300
300
300
300.0002
300.00966
300.29829
300.57323
300.81269
300.98172
300.99509
300.91162
300.8017
300.67763
300.55072
300.43029
300.323
300.23266
300.16059
300.10606
300.06693
300.04034
300.02321
300.01281
300
300
300
300.00001
300.00001
300.00001
300.00001
300.00001
300.00001
300.00002
300.00022
300.00945
300.2754
300.49829
300.66556
300.75254
300.7054
300.6353
300.54747
300.45062
300.35388
300.26514
300.18959
300.12947
300.08454
300.05292
300.03176
300.01829
300.01012
300.00543
300.00001
300.00002
300.00004
300.00006
300.00009
300.00014
300.00022
300.00033
300.00051
300.00078
300.00154
300.0164
300.32786
301.0799
301.52566
301.72088
301.76602
301.66753
301.46607
301.20925
300.94162
300.69684
300.49364
300.33713
300.22339
300.14449
300.09192
300.05814
300.03736
300.02564
300
300
300
300
300
299.99999
299.99999
299.99999
299.99999
300
300.00027
300.00771
300.11731
300.16681
300.15644
300.12634
300.09834
300.07354
300.05264
300.03596
300.0234
300.01447
300.0085
300.00473
300.0025
300.00126
300.0006
300.00027
300.00012
300.00005
300
300
300
300
300
300
300
299.99999
299.99999
300
300.00005
300.00213
300.04789
300.09765
300.13388
300.14553
300.13144
300.11423
300.09534
300.0763
300.05844
300.04277
300.02986
300.01986
300.01258
300.0076
300.00437
300.00241
300.00127
300.00064
300
300
300
300
300
300
300
300
300
300
300.00002
300.00109
300.0276
300.06018
300.08846
300.10394
300.09936
300.08742
300.07399
300.06018
300.04697
300.03508
300.02502
300.01702
300.01102
300.00679
300.00398
300.00223
300.0012
300.00062
300
300
300
300
300.00001
300.00001
300.00001
300.00001
300.00001
300.00001
300.00004
300.0011
300.02637
300.05585
300.07867
300.0883
300.08387
300.07693
300.06781
300.05718
300.04595
300.03513
300.02556
300.01775
300.01182
300.00758
300.0047
300.00284
300.00169
300.00101
300.00001
300.00002
300.00003
300.00005
300.00007
300.00011
300.00016
300.00024
300.00036
300.00051
300.00075
300.00271
300.03844
300.48202
300.76796
300.92677
300.98256
300.95339
300.86163
300.7319
300.58796
300.4492
300.32828
300.23089
300.15725
300.10441
300.06809
300.04414
300.02914
300.02065
300
300
300
300
300
299.99999
299.99999
299.99999
299.99999
300
300.00002
300.00052
300.00652
300.00928
300.00763
300.00559
300.00395
300.00268
300.00173
300.00106
300.00062
300.00035
300.00019
300.00009
300.00005
300.00002
300.00001
300
300
300
300
300
300
300
300
300
300
299.99999
299.99999
299.99999
300
300.00016
300.00287
300.00644
300.00857
300.0083
300.00682
300.00535
300.004
300.00285
300.00193
300.00125
300.00077
300.00045
300.00025
300.00014
300.00007
300.00003
300.00002
300.00001
300
300
300
300
300
300
300
300
300
300
300
300.00007
300.00157
300.00389
300.00571
300.00615
300.00526
300.00429
300.00334
300.00248
300.00176
300.0012
300.00078
300.00048
300.00029
300.00017
300.00009
300.00005
300.00003
300.00001
300
300
300
300
300
300
300
300
300.00001
300.00001
300.00001
300.00009
300.00159
300.00741
300.0131
300.01671
300.01829
300.01837
300.01716
300.01503
300.01239
300.00965
300.00712
300.00501
300.00338
300.00222
300.00143
300.00091
300.00057
300.00038
300.00001
300.00002
300.00003
300.00004
300.00006
300.00009
300.00014
300.0002
300.00029
300.00039
300.00052
300.00087
300.01007
300.4198
300.64615
300.74467
300.75464
300.7047
300.61715
300.51104
300.40249
300.30327
300.21999
300.15457
300.1058
300.07094
300.04695
300.03111
300.02127
300.01596
)
;

boundaryField
{
    minX
    {
        type            fixedValue;
        value           uniform 300;
    }
    maxX
    {
        type            inletOutlet;
        inletValue      uniform 300;
        value           nonuniform List<scalar> 
50
(
300
300.00001
300.00001
300.00038
300.01591
300.00005
300.00064
300.00061
300.00101
300.02058
300.00132
300.01424
300.01275
300.0054
300.02555
300.01409
300.115
300.09504
300.03401
300.0306
300.00856
300.06711
300.05485
300.01916
300.03194
300.00856
300.06711
300.05485
300.01916
300.03194
300.01409
300.115
300.09504
300.03401
300.0306
300.00132
300.01424
300.01275
300.0054
300.02555
300.00005
300.00064
300.00061
300.00101
300.02058
300
300.00001
300.00001
300.00038
300.01591
)
;
    }
    minY
    {
        type            zeroGradient;
    }
    minZ
    {
        type            zeroGradient;
    }
    maxZ
    {
        type            zeroGradient;
    }
    bottomWater_to_rightSolid
    {
        type            compressible::turbulentTemperatureRadCoupledMixed;
        refValue        nonuniform List<scalar> 
130
(
310.25523
308.61139
307.00451
305.53426
304.25861
303.1994
302.35256
301.69831
301.20959
300.85819
300.61867
300.47068
300.40021
312.48241
310.30074
308.22716
306.38736
304.83708
303.58287
302.6022
301.85855
301.31149
300.92295
300.66062
300.49963
300.42329
317.05968
313.62644
310.53853
307.94529
305.86426
304.24892
303.02849
302.12867
301.48161
301.03029
300.72979
300.54719
300.46112
324.06418
318.24142
313.49634
309.81706
307.04089
304.98535
303.48777
302.41429
301.65912
301.14128
300.80086
300.59587
300.49977
332.46106
322.68111
315.95702
311.23118
307.87479
305.48559
303.79109
302.59946
301.77285
301.21187
300.84589
300.62668
300.52422
332.46105
322.68109
315.95702
311.23117
307.87479
305.48559
303.7911
302.59946
301.77285
301.21187
300.84589
300.62668
300.52422
324.06417
318.24141
313.49635
309.81707
307.0409
304.98536
303.48779
302.41429
301.65912
301.14128
300.80086
300.59588
300.49977
317.05971
313.62646
310.53855
307.94532
305.86428
304.24894
303.02852
302.12867
301.48161
301.0303
300.72979
300.5472
300.46113
312.48247
310.30079
308.2272
306.3874
304.83711
303.5829
302.60224
301.85856
301.3115
300.92296
300.66062
300.49963
300.4233
310.25531
308.61145
307.00456
305.5343
304.25864
303.19943
302.3526
301.69832
301.2096
300.8582
300.61868
300.47068
300.40022
)
;
        refGradient     uniform 0;
        valueFraction   uniform 0.99248593;
        source          uniform 0;
        logInterval     -1;
        writePrecision  8;
        updateHeader    1;
        writeToFile     0;
        useUserTime     1;
        kappaMethod     fluidThermo;
        value           nonuniform List<scalar> 
130
(
310.18346
308.55131
306.95571
305.49569
304.22888
303.17701
302.33604
301.68634
301.20103
300.85209
300.61425
300.4673
300.39733
312.39577
310.2298
308.17083
306.34378
304.8041
303.55841
302.58438
301.84576
301.30241
300.91652
300.65598
300.49609
300.42027
316.94401
313.53505
310.46841
307.89265
305.82542
304.2207
303.00827
302.11434
301.47156
301.02324
300.72474
300.54336
300.45785
323.92352
318.13363
313.41521
309.75685
306.99684
304.95358
303.46518
302.39843
301.64808
301.13359
300.79539
300.59174
300.49624
332.30237
322.54136
315.85428
311.15765
307.82276
305.44912
303.76574
302.58199
301.76086
301.20362
300.84008
300.62232
300.52052
332.30236
322.54135
315.85429
311.15765
307.82276
305.44912
303.76576
302.58199
301.76086
301.20362
300.84008
300.62232
300.52052
323.92351
318.13361
313.41522
309.75686
306.99684
304.95359
303.4652
302.39843
301.64808
301.13359
300.79539
300.59174
300.49625
316.94404
313.53507
310.46844
307.89268
305.82544
304.22072
303.00829
302.11435
301.47156
301.02325
300.72474
300.54336
300.45786
312.39583
310.22985
308.17087
306.34381
304.80413
303.55844
302.58441
301.84578
301.30242
300.91653
300.65599
300.4961
300.42027
310.18354
308.55137
306.95576
305.49573
304.22891
303.17704
302.33608
301.68636
301.20104
300.8521
300.61426
300.4673
300.39733
)
;
    }
    bottomWater_to_leftSolid
    {
        type            compressible::turbulentTemperatureRadCoupledMixed;
        refValue        nonuniform List<scalar> 
130
(
300.00062
300.00075
300.00102
300.00147
300.00215
300.00311
300.00441
300.00609
300.00817
300.01058
300.01314
300.01553
300.0173
300.00067
300.00082
300.00114
300.00166
300.00247
300.00363
300.00526
300.00744
300.01027
300.01374
300.01768
300.02165
300.0248
300.00076
300.00094
300.00133
300.00198
300.003
300.00453
300.00675
300.0099
300.01424
300.01998
300.02719
300.03547
300.0433
300.00086
300.00107
300.00152
300.00231
300.00358
300.00552
300.00845
300.0128
300.01916
300.02828
300.04108
300.0583
300.07893
300.00092
300.00115
300.00165
300.00253
300.00396
300.00619
300.00963
300.0149
300.02293
300.03519
300.05408
300.08361
300.12887
300.00092
300.00115
300.00165
300.00253
300.00396
300.00619
300.00963
300.0149
300.02293
300.03519
300.05408
300.08361
300.12887
300.00086
300.00107
300.00152
300.00231
300.00358
300.00552
300.00845
300.0128
300.01916
300.02828
300.04108
300.0583
300.07893
300.00076
300.00094
300.00133
300.00198
300.003
300.00453
300.00675
300.0099
300.01424
300.01998
300.02719
300.03547
300.0433
300.00067
300.00082
300.00114
300.00166
300.00247
300.00363
300.00526
300.00744
300.01027
300.01374
300.01768
300.02165
300.0248
300.00062
300.00075
300.00102
300.00147
300.00215
300.00311
300.00441
300.00609
300.00817
300.01058
300.01314
300.01553
300.0173
)
;
        refGradient     uniform 0;
        valueFraction   uniform 0.99248593;
        source          uniform 0;
        logInterval     -1;
        writePrecision  8;
        updateHeader    1;
        writeToFile     0;
        useUserTime     1;
        kappaMethod     fluidThermo;
        value           nonuniform List<scalar> 
130
(
300.00061
300.00074
300.00101
300.00146
300.00214
300.00309
300.00438
300.00605
300.00811
300.01051
300.01305
300.01542
300.01725
300.00067
300.00081
300.00113
300.00165
300.00245
300.0036
300.00522
300.00739
300.0102
300.01364
300.01755
300.02151
300.0249
300.00076
300.00093
300.00132
300.00197
300.00298
300.0045
300.00671
300.00983
300.01413
300.01984
300.027
300.03533
300.04544
300.00085
300.00106
300.00151
300.0023
300.00355
300.00548
300.00839
300.01271
300.01902
300.02808
300.0408
300.05842
300.0922
300.00091
300.00114
300.00164
300.00251
300.00393
300.00614
300.00956
300.01479
300.02276
300.03494
300.05373
300.08465
300.1814
300.00091
300.00114
300.00164
300.00251
300.00393
300.00614
300.00956
300.01479
300.02276
300.03494
300.05373
300.08465
300.1814
300.00085
300.00106
300.00151
300.0023
300.00355
300.00548
300.00839
300.01271
300.01902
300.02808
300.0408
300.05842
300.0922
300.00076
300.00093
300.00132
300.00197
300.00298
300.0045
300.00671
300.00983
300.01413
300.01984
300.027
300.03533
300.04544
300.00067
300.00081
300.00113
300.00165
300.00245
300.0036
300.00522
300.00739
300.0102
300.01364
300.01755
300.02151
300.0249
300.00061
300.00074
300.00101
300.00146
300.00214
300.00309
300.00438
300.00605
300.00811
300.01051
300.01305
300.01542
300.01725
)
;
    }
    bottomWater_to_heater
    {
        type            compressible::turbulentTemperatureRadCoupledMixed;
        refValue        nonuniform List<scalar> 
92
(
314.5386
314.05022
313.11033
311.80053
318.2162
317.57573
316.32891
314.56917
326.10777
325.16184
323.26112
320.46774
481.65013
482.40276
482.41263
481.7142
449.29383
450.18785
450.14658
449.25261
420.78784
421.4566
421.22923
420.27744
396.06211
396.3127
395.63676
394.39108
339.25396
375.28437
337.93142
374.87434
335.07779
373.21148
330.42621
370.78752
481.65013
481.7142
449.29383
449.25261
420.78784
420.27744
396.06211
394.39108
375.28437
370.78752
481.65011
481.65011
482.40274
482.41261
481.7142
481.7142
449.29378
449.29378
450.18782
450.14656
449.2526
449.2526
420.78777
420.78777
421.45656
421.22922
420.27745
420.27745
396.06205
396.06205
396.31267
395.63676
394.39111
394.39111
375.28433
375.28433
374.87434
373.21149
370.78757
370.78757
339.25397
337.93144
335.07782
330.42624
326.10777
325.16185
323.26116
320.46778
318.21619
317.57575
316.32895
314.56923
314.53855
314.05023
313.11039
311.80063
)
;
        refGradient     uniform 0;
        valueFraction   uniform 0.99248593;
        source          uniform 0;
        logInterval     -1;
        writePrecision  8;
        updateHeader    1;
        writeToFile     0;
        useUserTime     1;
        kappaMethod     fluidThermo;
        value           nonuniform List<scalar> 
92
(
314.43251
313.94949
313.01741
311.71752
318.08294
317.44943
316.21316
314.46707
325.9197
324.98422
323.09926
320.3272
480.34787
481.11591
481.1441
480.46097
448.20673
449.10921
449.08313
448.20877
419.90437
420.57883
420.36362
419.42826
395.36091
395.61806
394.95505
393.725
338.98681
374.74648
337.68648
374.35181
334.8627
372.70985
330.24869
370.30672
480.43524
480.58863
448.25358
448.32407
419.93848
419.51319
395.39099
393.77909
374.77217
370.34084
480.43521
480.34785
481.11589
481.14409
480.58863
480.46096
448.25352
448.20668
449.10917
449.0831
448.32407
448.20877
419.93841
419.9043
420.57879
420.36361
419.51321
419.42827
395.39093
395.36085
395.61803
394.95504
393.77912
393.72503
374.77213
374.74644
374.3518
372.70986
370.34089
370.30677
338.98682
337.6865
334.86273
330.24872
325.9197
324.98424
323.09929
320.32724
318.08293
317.44945
316.2132
314.46713
314.43245
313.9495
313.01747
311.71762
)
;
    }
}


// ************************************************************************* //
