/*--------------------------------*- C++ -*----------------------------------*\
| =========                 |                                                 |
| \\      /  F ield         | OpenFOAM: The Open Source CFD Toolbox           |
|  \\    /   O peration     | Version:  2412                                  |
|   \\  /    A nd           | Website:  www.openfoam.com                      |
|    \\/     M anipulation  |                                                 |
\*---------------------------------------------------------------------------*/
FoamFile
{
    version     2.0;
    format      ascii;
    arch        "LSB;label=32;scalar=64";
    class       volVectorField;
    location    "50/bottomWater";
    object      U;
}
// * * * * * * * * * * * * * * * * * * * * * * * * * * * * * * * * * * * * * //

dimensions      [0 1 -1 0 0 0 0];

internalField   nonuniform List<vector> 
1460
(
(0.00091108213 5.8790396e-05 4.1791919e-05)
(0.00088221117 6.2089595e-05 4.8932017e-05)
(0.00078437757 5.3567889e-05 4.5283185e-05)
(0.00070036397 4.30785e-05 3.8056144e-05)
(0.00063689591 3.2935316e-05 2.9446923e-05)
(0.00059046088 2.4500302e-05 2.06752e-05)
(0.00055947727 1.8185876e-05 1.2116559e-05)
(0.00054362111 1.3860136e-05 3.6187359e-06)
(0.00054219024 1.1130176e-05 -4.6379597e-06)
(0.00055394557 9.1698981e-06 -1.1782115e-05)
(0.0005784525 7.0943632e-06 -1.657306e-05)
(0.00061469261 4.4915967e-06 -1.684083e-05)
(0.00065934647 1.1786321e-06 -9.2392379e-06)
(0.000695781 -1.976938e-06 1.2116829e-05)
(0.00071274369 -4.4668397e-06 2.9327714e-05)
(0.00071253538 -5.8804276e-06 3.8145352e-05)
(0.0006968845 -5.887929e-06 4.1986336e-05)
(0.00066774179 -5.024768e-06 4.3537444e-05)
(0.00062889038 -4.1307012e-06 4.1729652e-05)
(0.00058657434 -3.4616727e-06 3.6849639e-05)
(0.0005464613 -2.904117e-06 3.0393717e-05)
(0.00051172505 -2.2861721e-06 2.3682398e-05)
(0.00048344238 -1.5465361e-06 1.7520539e-05)
(0.00046149223 -7.2536855e-07 1.2283376e-05)
(0.00044513718 7.2314307e-08 8.0812735e-06)
(0.00043343582 7.4361148e-07 4.9065429e-06)
(0.00042530194 1.2375966e-06 2.7069352e-06)
(0.00041965917 1.5653778e-06 1.3687225e-06)
(0.00041552293 1.7271882e-06 6.9522603e-07)
(0.00040980591 2.1892593e-06 7.3784009e-07)
(0.00097326796 5.5421571e-05 4.6064082e-05)
(0.00099253639 5.9889433e-05 5.9175015e-05)
(0.00097503476 5.5631771e-05 5.8312919e-05)
(0.00095011972 4.7657431e-05 5.3153458e-05)
(0.00092769079 3.828647e-05 4.568472e-05)
(0.00090884022 2.9396275e-05 3.6846618e-05)
(0.00089513319 2.1861935e-05 2.7182844e-05)
(0.0008890198 1.5997123e-05 1.6648375e-05)
(0.0008941647 1.194079e-05 5.1733287e-06)
(0.00091312856 9.223241e-06 -6.4313262e-06)
(0.00094661263 6.8494828e-06 -1.6421079e-05)
(0.00099480281 4.230328e-06 -2.2296915e-05)
(0.0010549989 1.3111923e-06 -1.973169e-05)
(0.0011102528 -1.5080746e-06 -9.0759152e-07)
(0.0011473286 -3.7124704e-06 1.9117921e-05)
(0.0011634528 -5.2813923e-06 3.391634e-05)
(0.001161238 -5.6836529e-06 4.3441093e-05)
(0.0011428923 -5.072504e-06 4.9353023e-05)
(0.0011098782 -4.274772e-06 5.1494021e-05)
(0.0010669366 -3.7221022e-06 4.9855252e-05)
(0.0010194121 -3.4063566e-06 4.541048e-05)
(0.00097144459 -3.1259686e-06 3.9285767e-05)
(0.00092592072 -2.6996194e-06 3.2439128e-05)
(0.00088484116 -2.037583e-06 2.5591303e-05)
(0.00084944003 -1.1698212e-06 1.9289723e-05)
(0.00082016951 -2.0514449e-07 1.3927961e-05)
(0.00079693219 7.4108334e-07 9.7072617e-06)
(0.00077919064 1.5697136e-06 6.6557827e-06)
(0.00076591549 2.273854e-06 4.6784329e-06)
(0.0007514958 3.0874083e-06 4.2290302e-06)
(0.00097787678 4.8589496e-13 4.6005441e-05)
(0.001009423 1.9056623e-12 5.9789732e-05)
(0.0010094986 4.8337938e-12 5.9732718e-05)
(0.0010010051 9.2060952e-12 5.5341939e-05)
(0.0009920686 1.3807934e-11 4.8428284e-05)
(0.0009833649 1.665333e-11 3.9867554e-05)
(0.00097646487 1.6162907e-11 3.0243554e-05)
(0.00097421062 1.2333171e-11 1.959639e-05)
(0.00098057861 6.864979e-12 7.8231338e-06)
(0.00099983007 2.0071091e-12 -4.3431213e-06)
(0.0010328877 -8.2393396e-13 -1.4975692e-05)
(0.0010802287 -1.3993283e-12 -2.1548559e-05)
(0.0011395326 -3.5250542e-13 -1.9924074e-05)
(0.0011952654 1.7148499e-12 -2.7015672e-06)
(0.0012346442 3.9377458e-12 1.6214909e-05)
(0.0012543905 5.5103967e-12 3.0818798e-05)
(0.0012552648 5.6209336e-12 4.1043313e-05)
(0.0012410138 3.4788949e-12 4.7596569e-05)
(0.0012121948 -7.3839513e-13 5.0484536e-05)
(0.001172986 -6.3650066e-12 4.976415e-05)
(0.0011280729 -1.2062367e-11 4.6271232e-05)
(0.001081079 -1.5673059e-11 4.0983133e-05)
(0.0010347244 -1.471269e-11 3.4764002e-05)
(0.0009911899 -7.8597857e-12 2.8319987e-05)
(0.00095214102 2.6146298e-12 2.2171729e-05)
(0.00091865216 1.3064722e-11 1.6711608e-05)
(0.00089111275 2.1391009e-11 1.2194704e-05)
(0.00086936955 2.509104e-11 8.7663691e-06)
(0.00085275885 2.3935091e-11 6.4316206e-06)
(0.0008350436 2.0077397e-11 5.8298886e-06)
(0.00097326796 -5.542157e-05 4.6064082e-05)
(0.00099253639 -5.9889431e-05 5.9175015e-05)
(0.00097503476 -5.5631765e-05 5.8312919e-05)
(0.00095011973 -4.765742e-05 5.3153458e-05)
(0.00092769081 -3.8286453e-05 4.5684719e-05)
(0.00090884025 -2.9396254e-05 3.6846618e-05)
(0.00089513323 -2.1861913e-05 2.7182845e-05)
(0.00088901985 -1.5997106e-05 1.6648376e-05)
(0.00089416476 -1.194078e-05 5.17333e-06)
(0.00091312862 -9.2232372e-06 -6.4313236e-06)
(0.00094661268 -6.8494829e-06 -1.6421074e-05)
(0.00099480285 -4.2303286e-06 -2.2296908e-05)
(0.0010549989 -1.3111906e-06 -1.9731681e-05)
(0.0011102529 1.5080807e-06 -9.0758158e-07)
(0.0011473287 3.712481e-06 1.9117931e-05)
(0.0011634528 5.2814063e-06 3.3916348e-05)
(0.001161238 5.6836674e-06 4.3441099e-05)
(0.0011428923 5.0725156e-06 4.9353027e-05)
(0.0011098782 4.2747776e-06 5.1494021e-05)
(0.0010669366 3.7220994e-06 4.985525e-05)
(0.0010194121 3.4063452e-06 4.5410477e-05)
(0.00097144459 3.1259514e-06 3.9285765e-05)
(0.00092592072 2.699602e-06 3.2439131e-05)
(0.00088484115 2.0375728e-06 2.5591319e-05)
(0.00084944002 1.169824e-06 1.9289749e-05)
(0.00082016949 2.0516272e-07 1.3927991e-05)
(0.00079693217 -7.4105214e-07 9.7072909e-06)
(0.00077919062 -1.5696759e-06 6.6558093e-06)
(0.00076591546 -2.273817e-06 4.6784554e-06)
(0.00075149576 -3.0873765e-06 4.2290473e-06)
(0.00091108213 -5.8790396e-05 4.1791919e-05)
(0.00088221117 -6.2089594e-05 4.8932016e-05)
(0.00078437757 -5.3567888e-05 4.5283184e-05)
(0.00070036397 -4.3078497e-05 3.8056144e-05)
(0.00063689592 -3.2935312e-05 2.9446923e-05)
(0.0005904609 -2.4500297e-05 2.0675202e-05)
(0.0005594773 -1.8185872e-05 1.2116561e-05)
(0.00054362115 -1.3860134e-05 3.6187381e-06)
(0.00054219028 -1.1130174e-05 -4.637957e-06)
(0.00055394561 -9.1698982e-06 -1.1782111e-05)
(0.00057845254 -7.0943639e-06 -1.6573056e-05)
(0.00061469264 -4.4915969e-06 -1.6840824e-05)
(0.00065934649 -1.1786308e-06 -9.2392294e-06)
(0.00069578102 1.9769412e-06 1.2116839e-05)
(0.00071274371 4.4668443e-06 2.9327724e-05)
(0.00071253539 5.8804324e-06 3.814536e-05)
(0.00069688452 5.8879327e-06 4.1986343e-05)
(0.00066774181 5.0247696e-06 4.353745e-05)
(0.0006288904 4.1306997e-06 4.1729657e-05)
(0.00058657436 3.4616678e-06 3.6849643e-05)
(0.00054646131 2.9041096e-06 3.0393721e-05)
(0.00051172506 2.2861635e-06 2.3682402e-05)
(0.00048344237 1.546528e-06 1.7520544e-05)
(0.00046149222 7.2536252e-07 1.2283387e-05)
(0.00044513716 -7.231613e-08 8.0812935e-06)
(0.00043343579 -7.4360809e-07 4.9065713e-06)
(0.0004253019 -1.2375896e-06 2.7069656e-06)
(0.00041965913 -1.5653693e-06 1.3687489e-06)
(0.00041552288 -1.7271802e-06 6.9524635e-07)
(0.00040980586 -2.1892531e-06 7.3785455e-07)
(0.00094618494 6.2068775e-05 4.7748183e-05)
(0.0009408908 6.9478537e-05 6.1078292e-05)
(0.00089238346 6.1440023e-05 6.1809342e-05)
(0.00084647574 5.1689464e-05 5.4244699e-05)
(0.00081119537 4.2054902e-05 4.1134095e-05)
(0.00078485852 3.3415563e-05 2.4372335e-05)
(0.00076718347 2.6331365e-05 4.7995565e-06)
(0.00075899014 2.0566654e-05 -1.7430479e-05)
(0.00076176824 1.5403175e-05 -4.2066934e-05)
(0.00077812937 1.0483258e-05 -6.8660544e-05)
(0.00081125376 5.760989e-06 -9.607755e-05)
(0.00086435174 1.568784e-06 -0.00012021386)
(0.00094080438 -1.0540645e-06 -0.00012948517)
(0.00099963746 1.4088072e-06 -8.9469336e-05)
(0.001018403 3.8134624e-06 -4.3581395e-05)
(0.0010152861 5.164444e-06 -8.5661572e-07)
(0.00099931421 5.6846807e-06 3.7850516e-05)
(0.00096788959 5.9057871e-06 7.2404423e-05)
(0.00092205848 5.6530711e-06 9.0879713e-05)
(0.00087121849 4.868419e-06 9.448856e-05)
(0.00082310034 3.7400276e-06 8.8045132e-05)
(0.00078129162 2.5657352e-06 7.6006829e-05)
(0.00074690447 1.5878171e-06 6.1692453e-05)
(0.00071983454 9.2076608e-07 4.73548e-05)
(0.00069933624 6.0851499e-07 3.4359584e-05)
(0.00068420012 6.3767544e-07 2.3383327e-05)
(0.0006733119 8.8961002e-07 1.4808135e-05)
(0.00066558094 1.2471154e-06 8.8225624e-06)
(0.00065984015 1.6903316e-06 5.3428221e-06)
(0.00065243095 2.8232303e-06 4.0150184e-06)
(0.0010168758 5.8968188e-05 5.304655e-05)
(0.0010677569 6.6143495e-05 7.1665215e-05)
(0.0011134934 6.129659e-05 7.4943834e-05)
(0.0011496916 5.4282097e-05 7.0919134e-05)
(0.0011795154 4.6292854e-05 6.1185499e-05)
(0.0012054125 3.8371342e-05 4.6583889e-05)
(0.0012295285 3.1294449e-05 2.7478119e-05)
(0.0012548378 2.5168266e-05 3.4812199e-06)
(0.0012838733 1.943161e-05 -2.588347e-05)
(0.0013198641 1.3788967e-05 -6.0443685e-05)
(0.0013679736 8.3460067e-06 -9.9289826e-05)
(0.0014336881 3.2274361e-06 -0.00013883363)
(0.0015228756 -2.6839202e-07 -0.0001667846)
(0.0016054854 -6.0965634e-08 -0.00014479141)
(0.0016559921 1.7363358e-06 -0.00010651846)
(0.0016861091 3.156046e-06 -6.3808851e-05)
(0.0017006391 3.8737119e-06 -1.951926e-05)
(0.0016957498 4.0470937e-06 2.5631952e-05)
(0.0016710896 3.9526478e-06 6.0493267e-05)
(0.0016327061 3.4184448e-06 8.2850358e-05)
(0.0015871199 2.4686699e-06 9.4631318e-05)
(0.0015385109 1.3233698e-06 9.8129466e-05)
(0.0014896013 2.4060396e-07 9.5305326e-05)
(0.0014424493 -5.4553417e-07 8.782398e-05)
(0.0013986827 -9.0910199e-07 7.7236321e-05)
(0.0013596957 -8.1813435e-07 6.5110445e-05)
(0.001326295 -3.3449663e-07 5.2886618e-05)
(0.0012988267 4.4682022e-07 4.1711765e-05)
(0.001277139 1.5377846e-06 3.2471481e-05)
(0.0012549687 3.255906e-06 2.6035864e-05)
(0.0010224434 5.9711875e-13 5.3746991e-05)
(0.0010876566 2.4318156e-12 7.3155904e-05)
(0.0011535838 6.1224311e-12 7.719655e-05)
(0.0012099723 1.166761e-11 7.411105e-05)
(0.0012580612 1.7926827e-11 6.5353264e-05)
(0.0012998308 2.2832474e-11 5.1656635e-05)
(0.0013372311 2.4290073e-11 3.3334506e-05)
(0.0013730126 2.123548e-11 1.0026329e-05)
(0.0014101709 1.410192e-11 -1.8931151e-05)
(0.0014512276 4.7089875e-12 -5.3406106e-05)
(0.0015015715 -4.5267503e-12 -9.2466966e-05)
(0.001566852 -1.1820786e-11 -0.00013295204)
(0.0016533273 -1.6625942e-11 -0.00016377563)
(0.0017345511 -1.8642582e-11 -0.00014839847)
(0.0017872975 -1.9962849e-11 -0.00011645249)
(0.0018224671 -2.1106598e-11 -7.8228043e-05)
(0.0018452074 -2.3031198e-11 -3.6481715e-05)
(0.0018493035 -2.6815001e-11 7.1575004e-06)
(0.001834255 -3.3746836e-11 4.2258269e-05)
(0.0018049142 -4.4278855e-11 6.6645136e-05)
(0.001766614 -5.7838794e-11 8.1921453e-05)
(0.0017227809 -7.2437504e-11 8.9854861e-05)
(0.0016758157 -8.3546854e-11 9.1831713e-05)
(0.0016277381 -8.0936219e-11 8.8982528e-05)
(0.0015805715 -7.0367615e-11 8.2392704e-05)
(0.0015363051 -5.7626613e-11 7.3224197e-05)
(0.0014966325 -4.2716023e-11 6.2694118e-05)
(0.0014627603 -2.7606177e-11 5.201464e-05)
(0.0014352932 -1.5881204e-11 4.2356969e-05)
(0.0014073519 -9.9732636e-12 3.5066079e-05)
(0.0010168758 -5.8968187e-05 5.304655e-05)
(0.0010677569 -6.6143493e-05 7.1665214e-05)
(0.0011134934 -6.1296584e-05 7.4943834e-05)
(0.0011496916 -5.4282083e-05 7.0919134e-05)
(0.0011795154 -4.6292832e-05 6.1185498e-05)
(0.0012054125 -3.8371312e-05 4.6583889e-05)
(0.0012295286 -3.1294417e-05 2.747812e-05)
(0.0012548379 -2.5168237e-05 3.481223e-06)
(0.0012838734 -1.943159e-05 -2.5883464e-05)
(0.0013198642 -1.3788961e-05 -6.0443676e-05)
(0.0013679737 -8.3460129e-06 -9.9289813e-05)
(0.0014336882 -3.227453e-06 -0.00013883361)
(0.0015228757 2.6836938e-07 -0.00016678458)
(0.0016054854 6.0942327e-08 -0.0001447914)
(0.0016559921 -1.7363581e-06 -0.00010651844)
(0.0016861091 -3.1560672e-06 -6.3808837e-05)
(0.0017006391 -3.873733e-06 -1.951925e-05)
(0.0016957498 -4.0471174e-06 2.5631958e-05)
(0.0016710896 -3.9526781e-06 6.0493268e-05)
(0.001632706 -3.4184867e-06 8.2850353e-05)
(0.0015871198 -2.4687282e-06 9.4631307e-05)
(0.0015385108 -1.3234478e-06 9.8129451e-05)
(0.0014896012 -2.4070096e-07 9.5305312e-05)
(0.0014424491 5.4542646e-07 8.7823972e-05)
(0.0013986826 9.0899818e-07 7.7236324e-05)
(0.0013596955 8.1805064e-07 6.5110459e-05)
(0.0013262948 3.3444011e-07 5.2886641e-05)
(0.0012988266 -4.4685192e-07 4.1711794e-05)
(0.0012771388 -1.537798e-06 3.2471513e-05)
(0.0012549686 -3.2559097e-06 2.6035894e-05)
(0.00094618494 -6.2068775e-05 4.7748183e-05)
(0.0009408908 -6.9478537e-05 6.1078292e-05)
(0.00089238347 -6.1440022e-05 6.1809341e-05)
(0.00084647575 -5.1689461e-05 5.4244698e-05)
(0.00081119539 -4.2054897e-05 4.1134094e-05)
(0.00078485855 -3.3415557e-05 2.4372336e-05)
(0.00076718352 -2.6331359e-05 4.7995595e-06)
(0.0007589902 -2.0566649e-05 -1.7430474e-05)
(0.00076176831 -1.5403173e-05 -4.2066927e-05)
(0.00077812944 -1.0483261e-05 -6.8660535e-05)
(0.00081125383 -5.7609947e-06 -9.6077538e-05)
(0.0008643518 -1.5687917e-06 -0.00012021384)
(0.00094080443 1.0540573e-06 -0.00012948515)
(0.00099963749 -1.4088122e-06 -8.9469319e-05)
(0.001018403 -3.8134651e-06 -4.3581379e-05)
(0.0010152861 -5.1644456e-06 -8.5660141e-07)
(0.00099931422 -5.6846819e-06 3.7850527e-05)
(0.00096788959 -5.9057888e-06 7.2404429e-05)
(0.00092205848 -5.6530743e-06 9.0879713e-05)
(0.00087121849 -4.868425e-06 9.4488556e-05)
(0.00082310033 -3.7400384e-06 8.8045125e-05)
(0.00078129161 -2.565753e-06 7.6006822e-05)
(0.00074690444 -1.5878441e-06 6.1692447e-05)
(0.00071983447 -9.2080472e-07 4.7354797e-05)
(0.00069933613 -6.0855277e-07 3.435959e-05)
(0.0006842 -6.3769819e-07 2.338335e-05)
(0.00067331178 -8.8961865e-07 1.4808172e-05)
(0.00066558081 -1.2471174e-06 8.8226049e-06)
(0.00065984002 -1.6903313e-06 5.3428635e-06)
(0.00065243083 -2.8232295e-06 4.0150548e-06)
(0.00094489615 6.2226373e-05 1.3657965e-05)
(0.00093828669 7.011771e-05 2.2373037e-05)
(0.00089278917 6.2294134e-05 2.491179e-05)
(0.00085097877 5.2691576e-05 2.1587885e-05)
(0.00081906234 4.3059597e-05 1.2785246e-05)
(0.00079430547 3.4094652e-05 -1.1235693e-06)
(0.00077542146 2.6135037e-05 -1.9844776e-05)
(0.00076276405 1.9132161e-05 -4.3443683e-05)
(0.00075817197 1.2580274e-05 -7.2919488e-05)
(0.00076540863 5.5868923e-06 -0.00010964886)
(0.00079224275 -2.5402582e-06 -0.00015471933)
(0.00084960708 -1.0781819e-05 -0.00020190085)
(0.00096559183 -1.4677265e-05 -0.0002171261)
(0.0010632119 -3.7171234e-06 -6.4272891e-05)
(0.001088165 5.4462808e-06 5.2237698e-06)
(0.0010886917 1.2499847e-05 5.5733293e-05)
(0.0010731332 1.7728287e-05 0.000101204)
(0.0010283132 2.2240078e-05 0.00015598131)
(0.00095675526 2.2599086e-05 0.00017503136)
(0.00088823071 1.9549255e-05 0.00017271526)
(0.0008325723 1.4772761e-05 0.00015677688)
(0.00079071913 9.6908433e-06 0.00013395399)
(0.00076085436 5.1071069e-06 0.00010902229)
(0.00074059179 1.4155782e-06 8.502165e-05)
(0.0007276976 -1.1410496e-06 6.3617154e-05)
(0.00072008639 -2.3564246e-06 4.5534527e-05)
(0.00071541695 -2.3847143e-06 3.1048942e-05)
(0.00071243815 -1.7091648e-06 2.0217449e-05)
(0.00071022501 -6.9614227e-07 1.2805988e-05)
(0.0007072912 7.6098144e-07 8.4377261e-06)
(0.0010161937 5.9246944e-05 1.59033e-05)
(0.0010668567 6.70253e-05 2.7765254e-05)
(0.001117349 6.2372421e-05 3.3062345e-05)
(0.0011607132 5.5492308e-05 3.2324986e-05)
(0.0011977437 4.750435e-05 2.5706641e-05)
(0.0012294166 3.926459e-05 1.3094373e-05)
(0.0012566858 3.1299256e-05 -5.9247556e-06)
(0.0012806871 2.3759049e-05 -3.1866714e-05)
(0.0013034404 1.6449328e-05 -6.5990668e-05)
(0.0013289608 8.709879e-06 -0.00011083521)
(0.0013643038 -2.2880049e-07 -0.00016892466)
(0.0014209069 -1.0593724e-05 -0.00023713206)
(0.0015295105 -1.7447319e-05 -0.00028275722)
(0.0016443802 -9.8512746e-06 -0.00014787954)
(0.001696699 -4.3810713e-07 -7.923937e-05)
(0.0017275102 8.0217544e-06 -2.4736533e-05)
(0.0017516767 1.565525e-05 3.5374471e-05)
(0.0017436313 2.1813262e-05 0.00010700823)
(0.0017040532 2.4681342e-05 0.0001527526)
(0.0016562896 2.3705859e-05 0.00017861696)
(0.0016106372 2.0217806e-05 0.00018933834)
(0.0015691758 1.5461823e-05 0.00018881984)
(0.0015318074 1.0346208e-05 0.00018002589)
(0.0014981264 5.5255017e-06 0.00016527222)
(0.001467733 1.5143343e-06 0.00014654729)
(0.0014403563 -1.2476426e-06 0.00012569973)
(0.0014164883 -2.6088831e-06 0.00010441805)
(0.0013963774 -2.7572033e-06 8.4069457e-05)
(0.0013801808 -1.9124831e-06 6.5683948e-05)
(0.0013646405 -9.5800256e-08 5.0463222e-05)
(0.0010218743 5.8852957e-13 1.6182409e-05)
(0.0010872878 2.4688579e-12 2.8525796e-05)
(0.0011585383 6.2546814e-12 3.4379001e-05)
(0.0012228393 1.1898911e-11 3.4350707e-05)
(0.0012790763 1.8196989e-11 2.8586306e-05)
(0.0013277235 2.299584e-11 1.6939459e-05)
(0.001369467 2.404289e-11 -1.0547918e-06)
(0.0014052561 2.0053314e-11 -2.6038778e-05)
(0.0014367868 1.1487084e-11 -5.9028285e-05)
(0.0014676407 4.2766512e-13 -0.00010233802)
(0.0015045653 -1.057801e-11 -0.00015869891)
(0.0015589287 -2.0506347e-11 -0.00022634474)
(0.001659188 -2.732997e-11 -0.00027480166)
(0.0017684209 -3.0079803e-11 -0.00015221687)
(0.0018212086 -3.0921223e-11 -9.3236018e-05)
(0.0018564319 -3.3925703e-11 -4.6919787e-05)
(0.0018878625 -3.8814544e-11 8.2568818e-06)
(0.0018935789 -4.6446838e-11 7.6938115e-05)
(0.0018688557 -5.7895482e-11 0.00012429351)
(0.0018347169 -7.255984e-11 0.00015477618)
(0.0017998229 -8.9261196e-11 0.00017224354)
(0.0017654543 -1.0556832e-10 0.0001796208)
(0.0017314129 -1.167837e-10 0.00017891711)
(0.0016976262 -1.1778697e-10 0.00017162903)
(0.0016643826 -1.0929626e-10 0.0001591065)
(0.001632244 -9.56392e-11 0.00014270787)
(0.0016022573 -7.8562901e-11 0.00012387244)
(0.0015756289 -6.1416236e-11 0.00010404847)
(0.0015533858 -4.7630289e-11 8.4580781e-05)
(0.001531681 -3.9576121e-11 6.7204586e-05)
(0.0010161937 -5.9246944e-05 1.59033e-05)
(0.0010668567 -6.7025297e-05 2.7765254e-05)
(0.001117349 -6.2372414e-05 3.3062344e-05)
(0.0011607132 -5.5492294e-05 3.2324985e-05)
(0.0011977437 -4.7504327e-05 2.5706641e-05)
(0.0012294166 -3.9264561e-05 1.3094373e-05)
(0.0012566858 -3.1299224e-05 -5.9247541e-06)
(0.0012806871 -2.3759022e-05 -3.186671e-05)
(0.0013034405 -1.6449312e-05 -6.599066e-05)
(0.0013289609 -8.7098795e-06 -0.0001108352)
(0.0013643039 2.2878306e-07 -0.00016892465)
(0.0014209069 1.0593693e-05 -0.00023713205)
(0.0015295106 1.7447283e-05 -0.00028275721)
(0.0016443802 9.8512372e-06 -0.00014787953)
(0.001696699 4.3807059e-07 -7.9239363e-05)
(0.0017275102 -8.0217916e-06 -2.473653e-05)
(0.0017516767 -1.5655291e-05 3.5374469e-05)
(0.0017436313 -2.181331e-05 0.00010700822)
(0.0017040531 -2.46814e-05 0.00015275258)
(0.0016562896 -2.3705933e-05 0.00017861691)
(0.0016106371 -2.0217899e-05 0.00018933828)
(0.0015691756 -1.5461938e-05 0.00018881977)
(0.0015318072 -1.0346346e-05 0.00018002581)
(0.0014981262 -5.5256559e-06 0.00016527213)
(0.0014677328 -1.5144911e-06 0.00014654719)
(0.0014403561 1.2475043e-06 0.00012569963)
(0.0014164881 2.608774e-06 0.00010441797)
(0.0013963773 2.757124e-06 8.4069393e-05)
(0.0013801806 1.9124284e-06 6.5683902e-05)
(0.0013646404 9.5760932e-08 5.0463193e-05)
(0.00094489615 -6.2226372e-05 1.3657965e-05)
(0.00093828669 -7.011771e-05 2.2373037e-05)
(0.00089278918 -6.2294133e-05 2.4911789e-05)
(0.00085097878 -5.2691572e-05 2.1587885e-05)
(0.00081906236 -4.3059591e-05 1.2785246e-05)
(0.00079430551 -3.4094645e-05 -1.1235687e-06)
(0.00077542151 -2.6135031e-05 -1.9844774e-05)
(0.00076276412 -1.9132157e-05 -4.3443677e-05)
(0.00075817205 -1.2580274e-05 -7.291948e-05)
(0.00076540871 -5.5868985e-06 -0.00010964885)
(0.00079224282 2.5402473e-06 -0.00015471931)
(0.00084960713 1.0781807e-05 -0.00020190083)
(0.00096559186 1.4677254e-05 -0.00021712609)
(0.0010632119 3.7171151e-06 -6.4272879e-05)
(0.001088165 -5.4462875e-06 5.2237764e-06)
(0.0010886917 -1.2499852e-05 5.5733294e-05)
(0.0010731332 -1.7728292e-05 0.00010120399)
(0.0010283132 -2.2240083e-05 0.00015598129)
(0.00095675524 -2.2599094e-05 0.00017503132)
(0.00088823069 -1.9549266e-05 0.0001727152)
(0.00083257228 -1.4772777e-05 0.00015677682)
(0.00079071911 -9.6908685e-06 0.00013395391)
(0.00076085431 -5.1071451e-06 0.00010902221)
(0.00074059172 -1.4156294e-06 8.5021574e-05)
(0.00072769748 1.1409972e-06 6.3617083e-05)
(0.00072008624 2.3563872e-06 4.5534468e-05)
(0.0007154168 2.3846935e-06 3.10489e-05)
(0.000712438 1.709155e-06 2.0217427e-05)
(0.00071022487 6.9613901e-07 1.2805982e-05)
(0.00070729106 -7.6098162e-07 8.4377316e-06)
(0.00094234934 6.2381232e-05 9.3459103e-06)
(0.00092928254 7.0413865e-05 1.5405527e-05)
(0.0008784415 6.2451225e-05 1.6888533e-05)
(0.00083277424 5.2606418e-05 1.3996352e-05)
(0.00079754836 4.2744555e-05 6.6428192e-06)
(0.00076874461 3.3628968e-05 -5.6115338e-06)
(0.00074442314 2.5575026e-05 -2.3980811e-05)
(0.00072444617 1.8138676e-05 -5.0684517e-05)
(0.00071021323 1.020336e-05 -8.9471576e-05)
(0.00070537158 6.2806079e-08 -0.00014713)
(0.00072393785 -1.3418882e-05 -0.00023533328)
(0.00077994524 -2.8592399e-05 -0.00036551285)
(0.00092266683 -2.5846927e-05 -0.00051027587)
(0.0009732484 3.7255123e-05 -0.0002481426)
(0.00079140744 4.6897444e-05 -0.00010271472)
(0.00075112784 4.2901047e-05 -1.8966757e-05)
(0.00075901196 4.4131058e-05 6.0101091e-05)
(0.000752217 4.9574636e-05 0.00021317811)
(0.0006753782 4.4201038e-05 0.00023136354)
(0.0006370894 3.4304275e-05 0.00021883929)
(0.00061938568 2.3205007e-05 0.00018403968)
(0.00061727174 1.3206369e-05 0.00014678439)
(0.00062462778 5.0783567e-06 0.00011297718)
(0.00063710324 -9.5056034e-07 8.4525041e-05)
(0.00065247661 -4.6465935e-06 6.1811307e-05)
(0.00066768457 -5.9948161e-06 4.4170694e-05)
(0.0006810325 -5.6903847e-06 3.0768973e-05)
(0.00069179041 -4.6117095e-06 2.0854932e-05)
(0.00069990877 -3.3632664e-06 1.379597e-05)
(0.00070818728 -2.637973e-06 8.9591221e-06)
(0.0010136109 5.9265566e-05 1.0635602e-05)
(0.0010573975 6.7300657e-05 1.8562361e-05)
(0.0011021619 6.2570955e-05 2.1833148e-05)
(0.0011415175 5.5481847e-05 2.061701e-05)
(0.0011751488 4.7266655e-05 1.473996e-05)
(0.0012025858 3.8823011e-05 3.4591496e-06)
(0.0012234786 3.0652797e-05 -1.4763621e-05)
(0.0012382287 2.2584858e-05 -4.2804249e-05)
(0.0012479521 1.3887486e-05 -8.5692977e-05)
(0.0012557299 3.0241384e-06 -0.00015197497)
(0.0012687249 -1.1848821e-05 -0.00025611518)
(0.0013052896 -3.2422626e-05 -0.00041891864)
(0.001403018 -3.9857364e-05 -0.00063997551)
(0.0014680552 2.8866272e-05 -0.00040561182)
(0.0012670533 5.1772639e-05 -0.00024959006)
(0.0012079965 5.0883653e-05 -0.00014615927)
(0.001208972 5.2032067e-05 -3.5071669e-05)
(0.0012326199 5.7906448e-05 0.00015599913)
(0.0011965209 5.6619309e-05 0.00021742108)
(0.0011879516 4.8193718e-05 0.00024371202)
(0.001195699 3.7009598e-05 0.00024129426)
(0.0012123698 2.5487371e-05 0.0002255144)
(0.0012324692 1.4899085e-05 0.00020454831)
(0.0012527823 5.9565492e-06 0.00018174576)
(0.0012710372 -8.0134852e-07 0.0001583995)
(0.0012869792 -5.027533e-06 0.00013529915)
(0.0013005671 -6.9487725e-06 0.00011301045)
(0.0013118211 -7.1849923e-06 9.2009783e-05)
(0.001320976 -6.4287903e-06 7.2625055e-05)
(0.0013309828 -5.3515109e-06 5.53899e-05)
(0.0010192975 5.4839164e-13 1.0925991e-05)
(0.001077892 2.3290655e-12 1.9208112e-05)
(0.0011435937 5.9476583e-12 2.2858517e-05)
(0.0012041185 1.1351138e-11 2.2129758e-05)
(0.0012571931 1.7327078e-11 1.6876851e-05)
(0.0013019283 2.1715239e-11 6.3743445e-06)
(0.0013376175 2.2298963e-11 -1.0884081e-05)
(0.0013644534 1.7823264e-11 -3.7712031e-05)
(0.0013833179 8.6982287e-12 -7.90375e-05)
(0.0013966559 -3.2121264e-12 -0.00014333601)
(0.0014114136 -1.6039652e-11 -0.00024601322)
(0.0014450991 -2.8301891e-11 -0.00041014574)
(0.0015219349 -3.5940923e-11 -0.00064478812)
(0.0015799613 -3.57864e-11 -0.0004264374)
(0.0013818405 -3.6501019e-11 -0.00027991994)
(0.001322757 -4.0545495e-11 -0.00018194518)
(0.0013229972 -5.0390119e-11 -7.2383006e-05)
(0.0013502966 -7.6672082e-11 0.00011642544)
(0.0013271183 -1.0658841e-10 0.00018473047)
(0.0013295779 -1.3251196e-10 0.00022116351)
(0.0013468474 -1.5092436e-10 0.00023037547)
(0.0013704255 -1.5908149e-10 0.00022546901)
(0.001394533 -1.5478081e-10 0.00021368104)
(0.0014162505 -1.3865926e-10 0.00019796585)
(0.0014343108 -1.1603478e-10 0.0001796124)
(0.0014485867 -9.0785829e-11 0.00015939986)
(0.0014597367 -6.680915e-11 0.00013806769)
(0.0014684305 -4.715944e-11 0.00011634866)
(0.0014753391 -3.3436249e-11 9.4858325e-05)
(0.0014832245 -2.5947914e-11 7.4514543e-05)
(0.0010136109 -5.9265565e-05 1.0635602e-05)
(0.0010573975 -6.7300654e-05 1.856236e-05)
(0.0011021619 -6.2570948e-05 2.1833147e-05)
(0.0011415175 -5.5481834e-05 2.0617009e-05)
(0.0011751488 -4.7266633e-05 1.4739959e-05)
(0.0012025859 -3.8822983e-05 3.4591488e-06)
(0.0012234787 -3.0652767e-05 -1.476362e-05)
(0.0012382288 -2.2584834e-05 -4.2804245e-05)
(0.0012479522 -1.3887474e-05 -8.569297e-05)
(0.0012557299 -3.0241444e-06 -0.00015197496)
(0.001268725 1.1848797e-05 -0.00025611517)
(0.0013052897 3.2422587e-05 -0.00041891862)
(0.0014030181 3.9857321e-05 -0.00063997551)
(0.0014680553 -2.886631e-05 -0.00040561182)
(0.0012670533 -5.1772676e-05 -0.00024959006)
(0.0012079965 -5.0883694e-05 -0.00014615927)
(0.0012089719 -5.2032116e-05 -3.5071677e-05)
(0.0012326198 -5.7906522e-05 0.0001559991)
(0.0011965207 -5.6619411e-05 0.00021742103)
(0.0011879514 -4.8193842e-05 0.00024371194)
(0.0011956988 -3.7009739e-05 0.00024129415)
(0.0012123696 -2.5487524e-05 0.00022551426)
(0.001232469 -1.4899244e-05 0.00020454814)
(0.0012527821 -5.9567054e-06 0.00018174557)
(0.001271037 8.0121061e-07 0.0001583993)
(0.001286979 5.0274253e-06 0.00013529896)
(0.001300567 6.948696e-06 0.00011301027)
(0.001311821 7.1849416e-06 9.2009634e-05)
(0.0013209759 6.4287574e-06 7.2624942e-05)
(0.0013309827 5.3514878e-06 5.5389821e-05)
(0.00094234934 -6.2381232e-05 9.3459103e-06)
(0.00092928254 -7.0413864e-05 1.5405526e-05)
(0.00087844151 -6.2451224e-05 1.6888533e-05)
(0.00083277425 -5.2606415e-05 1.3996351e-05)
(0.00079754838 -4.2744549e-05 6.6428179e-06)
(0.00076874464 -3.3628962e-05 -5.6115342e-06)
(0.00074442318 -2.557502e-05 -2.3980809e-05)
(0.00072444623 -1.8138673e-05 -5.0684513e-05)
(0.0007102133 -1.0203362e-05 -8.9471569e-05)
(0.00070537166 -6.2814084e-08 -0.00014712998)
(0.00072393792 1.341887e-05 -0.00023533327)
(0.00077994528 2.8592387e-05 -0.00036551284)
(0.00092266686 2.5846916e-05 -0.00051027587)
(0.00097324841 -3.725513e-05 -0.00024814259)
(0.00079140744 -4.689745e-05 -0.00010271473)
(0.00075112782 -4.2901051e-05 -1.8966762e-05)
(0.00075901191 -4.4131062e-05 6.0101076e-05)
(0.00075221692 -4.9574642e-05 0.00021317806)
(0.00067537811 -4.4201043e-05 0.00023136347)
(0.00063708932 -3.4304281e-05 0.00021883919)
(0.00061938561 -2.3205016e-05 0.00018403955)
(0.00061727169 -1.3206385e-05 0.00014678425)
(0.00062462773 -5.0783835e-06 0.00011297703)
(0.00063710318 9.5052542e-07 8.4524888e-05)
(0.00065247652 4.6465627e-06 6.1811158e-05)
(0.00066768447 5.9947958e-06 4.4170557e-05)
(0.0006810324 5.690373e-06 3.076886e-05)
(0.0006917903 4.6117026e-06 2.0854849e-05)
(0.00069990866 3.3632618e-06 1.3795919e-05)
(0.00070818716 2.6379689e-06 8.9590974e-06)
(0.00094153557 6.2473956e-05 5.1523302e-07)
(0.00092594057 7.0583697e-05 7.5926419e-07)
(0.00087149806 6.2660772e-05 1.0383694e-07)
(0.00082142031 5.280943e-05 -1.8453426e-06)
(0.00078061625 4.2902524e-05 -5.567508e-06)
(0.00074391722 3.3528049e-05 -1.1626696e-05)
(0.00070675271 2.491644e-05 -2.1319523e-05)
(0.00066518265 1.612509e-05 -3.7120666e-05)
(0.00061386044 4.6982743e-06 -6.3703295e-05)
(0.000547657 -1.314442e-05 -0.00011087028)
(0.00045921947 -4.2589837e-05 -0.00019821229)
(0.00031844442 -8.6402724e-05 -0.00035177919)
(0.00014162781 -0.00011920566 -0.00048419505)
(5.8864578e-05 6.8334419e-05 0.00019244141)
(8.8745298e-05 4.448295e-05 0.00017816157)
(0.00021964975 2.5406512e-05 0.00015152451)
(0.00029917163 6.868739e-06 0.00011333647)
(0.00038365861 -6.6971484e-06 8.3067851e-05)
(0.00045753095 -1.4222517e-05 6.0129764e-05)
(0.00051994196 -1.7199404e-05 4.2698861e-05)
(0.00057154457 -1.7165311e-05 2.9676714e-05)
(0.00061301531 -1.5259614e-05 2.0197388e-05)
(0.00064531937 -1.2469721e-05 1.341954e-05)
(0.00066964148 -9.6497036e-06 8.6941636e-06)
(0.00068737234 -7.3795622e-06 5.5669342e-06)
(0.00070755705 -7.1837864e-06 3.4983753e-06)
(0.0010127618 5.9362565e-05 7.2653325e-07)
(0.0010538796 6.7557272e-05 1.2920984e-06)
(0.0010948702 6.2937718e-05 9.8286487e-07)
(0.0011295541 5.5871399e-05 -6.4583422e-07)
(0.0011571253 4.7581706e-05 -4.1067097e-06)
(0.0011759934 3.8819221e-05 -1.0117585e-05)
(0.0011832995 3.0019556e-05 -1.9968205e-05)
(0.0011746174 2.0523577e-05 -3.6371991e-05)
(0.0011429599 8.2322966e-06 -6.4781948e-05)
(0.001074045 -1.0898365e-05 -0.00011636505)
(0.00094693197 -4.4061705e-05 -0.0002153089)
(0.00069666078 -0.0001008765 -0.00040523905)
(0.00033584133 -0.00016585315 -0.00063180218)
(0.00013878627 9.5053122e-05 0.00025643428)
(0.00023599852 6.6724074e-05 0.00024371951)
(0.0004540504 4.1089983e-05 0.00022496466)
(0.00060076748 1.9404084e-05 0.00019335882)
(0.00073485072 1.2193877e-06 0.00016294011)
(0.00085010192 -1.0961983e-05 0.00013669302)
(0.00094734967 -1.8078357e-05 0.00011440145)
(0.0010293402 -2.1343988e-05 9.5172589e-05)
(0.0010983236 -2.1723687e-05 7.8242712e-05)
(0.0011558063 -2.0140179e-05 6.3233271e-05)
(0.0012028031 -1.7540235e-05 5.0006888e-05)
(0.0012400391 -1.4924596e-05 3.8475811e-05)
(0.0012791932 -1.3611639e-05 2.8614163e-05)
(0.0010184439 4.8332523e-13 7.4790897e-07)
(0.0010744045 2.0699228e-12 1.3704865e-06)
(0.0011364474 5.3251546e-12 1.1505358e-06)
(0.0011924557 1.022456e-11 -3.4236017e-07)
(0.0012396187 1.5668468e-11 -3.6110413e-06)
(0.0012759299 1.9627989e-11 -9.3754471e-06)
(0.001298292 1.9860492e-11 -1.8843838e-05)
(0.0013019766 1.4939242e-11 -3.462661e-05)
(0.001279319 4.9681447e-12 -6.1972514e-05)
(0.0012152246 -8.8065254e-12 -0.00011185752)