/*--------------------------------*- C++ -*----------------------------------*\
| =========                 |                                                 |
| \\      /  F ield         | OpenFOAM: The Open Source CFD Toolbox           |
|  \\    /   O peration     | Version:  2412                                  |
|   \\  /    A nd           | Website:  www.openfoam.com                      |
|    \\/     M anipulation  |                                                 |
\*---------------------------------------------------------------------------*/
FoamFile
{
    version     2.0;
    format      ascii;
    arch        "LSB;label=32;scalar=64";
    class       volScalarField;
    location    "40/rightSolid";
    object      T;
}
// * * * * * * * * * * * * * * * * * * * * * * * * * * * * * * * * * * * * * //

dimensions      [0 0 0 1 0 0 0];

internalField   nonuniform List<scalar> 
130
(
306.37259
305.20336
304.08961
303.10344
302.28057
301.62716
301.12999
300.76587
300.50865
300.33376
300.22063
300.15373
300.1228
308.32688
306.66176
305.1234
303.80676
302.74348
301.92364
301.31558
300.87985
300.5776
300.37517
300.24579
300.16994
300.13507
312.4332
309.59297
307.11569
305.11417
303.57896
302.44634
301.63685
301.07438
300.69405
300.44455
300.28768
300.19684
300.15538
318.90569
313.77432
309.73126
306.72241
304.5569
303.03576
301.98923
301.28346
300.81737
300.51729
300.33132
300.22475
300.17642
326.90006
317.91373
311.96707
307.96849
305.26617
303.44458
302.22635
301.42131
300.89762
300.56423
300.35938
300.24268
300.18996
326.90006
317.91372
311.96708
307.96849
305.26617
303.44458
302.22637
301.42131
300.89762
300.56423
300.35938
300.24268
300.18996
318.9057
313.77432
309.73128
306.72243
304.55691
303.03577
301.98926
301.28347
300.81738
300.51729
300.33132
300.22475
300.17643
312.43326
309.59301
307.11573
305.1142
303.57898
302.44635
301.63688
301.07439
300.69405
300.44455
300.28769
300.19684
300.15539
308.32695
306.66183
305.12345
303.80681
302.74351
301.92366
301.31561
300.87986
300.57761
300.37518
300.24579
300.16995
300.13508
306.37269
305.20344
304.08967
303.10348
302.2806
301.62718
301.13002
300.76589
300.50866
300.33377
300.22063
300.15373
300.1228
)
;

boundaryField
{
    maxX
    {
        type            zeroGradient;
    }
    minZ
    {
        type            zeroGradient;
    }
    maxZ
    {
        type            zeroGradient;
    }
    rightSolid_to_bottomWater
    {
        type            compressible::turbulentTemperatureRadCoupledMixed;
        refValue        nonuniform List<scalar> 
130
(
300.31867
300.26684
300.21079
300.15793
300.11287
300.07742
300.05126
300.03294
300.02063
300.01269
300.00776
300.00489
300.00344
300.48356
300.41294
300.33013
300.24871
300.17767
300.12115
300.07937
300.05029
300.031
300.01872
300.0112
300.00683
300.00454
300.93878
300.77576
300.5976
300.43261
300.2968
300.19463
300.1229
300.07526
300.04499
300.02642
300.0154
300.00913
300.00589
303.5006
302.33667
301.47646
300.89988
300.5375
300.31727
300.1858
300.10787
300.06198
300.03529
300.02004
300.01161
300.00731
308.07641
302.48487
301.25816
300.73757
300.45191
300.27955
300.17206
300.10456
300.06251
300.03676
300.0214
300.01262
300.00803
308.07645
302.4849
301.25817
300.73758
300.45191
300.27955
300.17206
300.10457
300.06251
300.03676
300.0214
300.01262
300.00803
303.50062
302.33668
301.47648
300.89989
300.53751
300.31727
300.18581
300.10787
300.06199
300.03529
300.02004
300.01161
300.00731
300.93879
300.77577
300.59761
300.43262
300.2968
300.19463
300.12291
300.07527
300.04499
300.02642
300.0154
300.00913
300.00589
300.48357
300.41295
300.33014
300.24871
300.17768
300.12115
300.07937
300.05029
300.031
300.01872
300.0112
300.00683
300.00454
300.31868
300.26685
300.2108
300.15794
300.11288
300.07743
300.05127
300.03294
300.02063
300.01269
300.00776
300.00489
300.00344
)
;
        refGradient     uniform 0;
        valueFraction   uniform 0.0075140686;
        source          uniform 0;
        logInterval     -1;
        writePrecision  8;
        updateHeader    1;
        writeToFile     0;
        useUserTime     1;
        kappaMethod     solidThermo;
        value           nonuniform List<scalar> 
130
(
306.31666
305.15725
304.0529
303.07514
302.25939
301.61174
301.11905
300.75828
300.50348
300.33027
300.21826
300.15202
300.12141
308.25644
306.60491
305.07911
303.77332
302.7189
301.90603
301.30324
300.87138
300.57189
300.37135
300.2432
300.1681
300.13357
312.33347
309.51529
307.05724
305.07136
303.54832
302.42485
301.62207
301.06439
300.68739
300.44015
300.28474
300.19475
300.15369
318.77443
313.67526
309.65846
306.67005
304.52
303.01025
301.97192
301.2719
300.80975
300.51229
300.328
300.22241
300.17454
326.74139
317.78345
311.87494
307.90492
305.22283
303.41538
302.20692
301.40853
300.88929
300.55883
300.35581
300.24019
300.18795
326.7414
317.78344
311.87496
307.90491
305.22283
303.41538
302.20693
301.40853
300.88929
300.55883
300.35581
300.24019
300.18795
318.77444
313.67526
309.65848
306.67007
304.52001
303.01025
301.97194
301.2719
300.80976
300.5123
300.328
300.22241
300.17454
312.33353
309.51534
307.05728
305.07139
303.54834
302.42487
301.6221
301.0644
300.6874
300.44016
300.28474
300.19475
300.15369
308.25652
306.60497
305.07916
303.77336
302.71893
301.90605
301.30327
300.87139
300.5719
300.37136
300.24321
300.1681
300.13357
306.31675
305.15733
304.05296
303.07519
302.25943
301.61177
301.11908
300.75829
300.50349
300.33028
300.21826
300.15203
300.12141
)
;
    }
    rightSolid_to_topAir
    {
        type            compressible::turbulentTemperatureRadCoupledMixed;
        refValue        nonuniform List<scalar> 
130
(
301.97707
302.10091
302.14265
302.11693
302.04022
301.92867
301.7967
301.65619
301.51634
301.38383
301.26318
301.1566
301.06229
302.25837
302.40899
302.46918
302.45612
302.38799
302.28174
302.15199
302.01066
301.86702
301.7282
301.59967
301.48551
301.38597
303.36752
303.54886
303.59385
303.53564
303.4052
303.22871
303.02707
302.81627
302.60822
302.41175
302.23336
302.07546
301.93588
305.36902
305.58242
305.585
305.44183
305.20444
304.91142
304.59068
304.26188
303.9386
303.63012
303.34302
303.08243
302.85843
308.3562
308.4897
308.33872
308.01486
307.59135
307.11685
306.62369
306.13307
305.65857
305.20869
304.78881
304.40294
304.06366
308.35621
308.48971
308.33873
308.01487
307.59135
307.11685
306.6237
306.13308
305.65858
305.2087
304.78882
304.40295
304.06367
305.36902
305.58242
305.58501
305.44183
305.20444
304.91142
304.59068
304.26189
303.9386
303.63013
303.34303
303.08243
302.85844
303.36753
303.54887
303.59386
303.53566
303.40521
303.22872
303.02708
302.81628
302.60824
302.41176
302.23337
302.07547
301.93589
302.25838
302.40901
302.46919
302.45613
302.388
302.28175
302.15201
302.01067
301.86704
301.72821
301.59968
301.48552
301.38598
301.97709
302.10093
302.14267
302.11695
302.04024
301.92869
301.79672
301.65621
301.51636
301.38385
301.26319
301.15662
301.0623
)
;
        refGradient     uniform 0;
        valueFraction   uniform 0.00032132529;
        source          uniform 0;
        logInterval     -1;
        writePrecision  8;
        updateHeader    1;
        writeToFile     0;
        useUserTime     1;
        kappaMethod     solidThermo;
        value           nonuniform List<scalar> 
130
(
306.36066
305.19328
304.08136
303.09691
302.27557
301.62346
301.12735
300.76406
300.50746
300.33302
300.22019
300.15346
300.1226
308.31334
306.65042
305.11422
303.79957
302.73803
301.91965
301.31278
300.87796
300.5764
300.37446
300.2454
300.16974
300.13495
312.41683
309.57952
307.10502
305.10598
303.57288
302.44199
301.63387
301.07244
300.69287
300.44392
300.2874
300.19676
300.15538
318.88572
313.75848
309.71908
306.71333
304.55036
303.03124
301.98627
301.28167
300.81642
300.5169
300.3313
300.22493
300.17667
326.87675
317.89625
311.95416
307.9592
305.2597
303.44031
302.22374
301.41992
300.89708
300.56427
300.35977
300.24325
300.19055
326.87676
317.89625
311.95418
307.95919
305.2597
303.44031
302.22376
301.41992
300.89708
300.56427
300.35977
300.24325
300.19056
318.88573
313.75847
309.7191
306.71335
304.55037
303.03125
301.9863
301.28167
300.81642
300.51691
300.3313
300.22493
300.17667
312.41689
309.57957
307.10506
305.10601
303.5729
302.442
301.6339
301.07245
300.69288
300.44392
300.28741
300.19676
300.15539
308.31342
306.65049
305.11427
303.79961
302.73806
301.91968
301.31281
300.87797
300.57641
300.37446
300.2454
300.16975
300.13495
306.36076
305.19336
304.08142
303.09696
302.2756
301.62348
301.12738
300.76407
300.50747
300.33302
300.22019
300.15346
300.12261
)
;
    }
    rightSolid_to_heater
    {
        type            compressible::turbulentTemperatureRadCoupledMixed;
        refValue        nonuniform List<scalar> 10(307.49203 309.95014 315.3096 324.64634 340.88664 340.88671 324.6464 315.30967 309.95023 307.49216);
        refGradient     uniform 0;
        valueFraction   uniform 0.50000003;
        source          uniform 0;
        logInterval     -1;
        writePrecision  8;
        updateHeader    1;
        writeToFile     0;
        useUserTime     1;
        kappaMethod     solidThermo;
        value           nonuniform List<scalar> 10(306.92705 309.13271 313.86467 321.76821 333.88467 333.88471 321.76824 313.86474 309.1328 306.92716);
    }
}


// ************************************************************************* //
