/*--------------------------------*- C++ -*----------------------------------*\
| =========                 |                                                 |
| \\      /  F ield         | OpenFOAM: The Open Source CFD Toolbox           |
|  \\    /   O peration     | Version:  2412                                  |
|   \\  /    A nd           | Website:  www.openfoam.com                      |
|    \\/     M anipulation  |                                                 |
\*---------------------------------------------------------------------------*/
FoamFile
{
    version     2.0;
    format      ascii;
    arch        "LSB;label=32;scalar=64";
    class       volScalarField;
    location    "10/rightSolid";
    object      T;
}
// * * * * * * * * * * * * * * * * * * * * * * * * * * * * * * * * * * * * * //

dimensions      [0 0 0 1 0 0 0];

internalField   nonuniform List<scalar> 
130
(
300.01934
300.01147
300.006
300.00281
300.0012
300.00047
300.00017
300.00006
300.00002
300.00001
300
300
300
300.07042
300.03961
300.01958
300.0087
300.00354
300.00133
300.00047
300.00016
300.00006
300.00003
300.00001
300.00001
300.00001
300.27197
300.14229
300.06569
300.02747
300.01059
300.00382
300.00131
300.00044
300.00016
300.00007
300.00004
300.00003
300.00003
300.91689
300.42866
300.18044
300.07007
300.02546
300.00876
300.0029
300.00097
300.00036
300.00017
300.00011
300.00009
300.00008
302.42692
300.94933
300.35567
300.12741
300.04367
300.01441
300.00465
300.00154
300.00059
300.0003
300.00021
300.00017
300.00015
302.42709
300.9494
300.35572
300.12742
300.04368
300.01441
300.00465
300.00155
300.00059
300.0003
300.00021
300.00017
300.00015
300.91703
300.42872
300.18047
300.07009
300.02546
300.00876
300.0029
300.00097
300.00036
300.00017
300.00011
300.00009
300.00008
300.27205
300.14233
300.0657
300.02748
300.01059
300.00382
300.00131
300.00044
300.00016
300.00007
300.00004
300.00003
300.00003
300.07045
300.03963
300.01959
300.00871
300.00354
300.00133
300.00047
300.00016
300.00006
300.00003
300.00001
300.00001
300.00001
300.01935
300.01148
300.006
300.00281
300.0012
300.00047
300.00017
300.00006
300.00002
300.00001
300
300
300
)
;

boundaryField
{
    maxX
    {
        type            zeroGradient;
    }
    minZ
    {
        type            zeroGradient;
    }
    maxZ
    {
        type            zeroGradient;
    }
    rightSolid_to_bottomWater
    {
        type            compressible::turbulentTemperatureRadCoupledMixed;
        refValue        nonuniform List<scalar> 
130
(
300.00012
300.00007
300.00004
300.00001
300
300
300
300
300
300
300
300
300
300.00054
300.0003
300.00015
300.00006
300.00002
300.00001
300
300
300
300
300
300
300
300.00273
300.00139
300.00061
300.00024
300.00008
300.00003
300.00001
300
300
300
300
300
300
300.05129
300.01426
300.00379
300.00102
300.00028
300.00008
300.00002
300.00001
300
300
300
300
300
300.32535
300.03279
300.00621
300.0016
300.00046
300.00013
300.00004
300.00001
300
300
300
300
300
300.32538
300.0328
300.00622
300.0016
300.00046
300.00013
300.00004
300.00001
300
300
300
300
300
300.05129
300.01427
300.00379
300.00102
300.00028
300.00008
300.00002
300.00001
300
300
300
300
300
300.00273
300.00139
300.00061
300.00024
300.00008
300.00003
300.00001
300
300
300
300
300
300
300.00054
300.0003
300.00015
300.00006
300.00002
300.00001
300
300
300
300
300
300
300
300.00012
300.00007
300.00004
300.00001
300
300
300
300
300
300
300
300
300
)
;
        refGradient     uniform 0;
        valueFraction   uniform 0.0075140686;
        source          uniform 0;
        logInterval     -1;
        writePrecision  8;
        updateHeader    1;
        writeToFile     0;
        useUserTime     1;
        kappaMethod     solidThermo;
        value           nonuniform List<scalar> 
130
(
300.01885
300.01117
300.00583
300.00273
300.00116
300.00045
300.00017
300.00006
300.00002
300.00001
300
300
300
300.06882
300.03867
300.01909
300.00847
300.00343
300.00129
300.00046
300.00016
300.00006
300.00002
300.00001
300.00001
300.00001
300.2665
300.13924
300.06418
300.02679
300.01031
300.00371
300.00127
300.00043
300.00016
300.00007
300.00004
300.00003
300.00003
300.90085
300.42046
300.17667
300.06848
300.02483
300.00852
300.00282
300.00094
300.00035
300.00017
300.00011
300.00009
300.00008
302.39066
300.93283
300.3488
300.1247
300.04266
300.01404
300.00453
300.0015
300.00057
300.00029
300.0002
300.00017
300.00015
302.39084
300.9329
300.34885
300.12471
300.04266
300.01404
300.00453
300.0015
300.00057
300.00029
300.0002
300.00017
300.00015
300.90099
300.42053
300.17671
300.0685
300.02484
300.00852
300.00282
300.00094
300.00035
300.00017
300.00011
300.00009
300.00008
300.26657
300.13928
300.0642
300.0268
300.01031
300.00371
300.00127
300.00043
300.00016
300.00007
300.00004
300.00003
300.00003
300.06885
300.03868
300.0191
300.00847
300.00344
300.00129
300.00046
300.00016
300.00006
300.00002
300.00001
300.00001
300.00001
300.01886
300.01117
300.00583
300.00273
300.00116
300.00046
300.00017
300.00006
300.00002
300.00001
300
300
300
)
;
    }
    rightSolid_to_topAir
    {
        type            compressible::turbulentTemperatureRadCoupledMixed;
        refValue        nonuniform List<scalar> 
130
(
300.0078
300.00772
300.00731
300.00675
300.00615
300.00557
300.00504
300.00456
300.00413
300.00374
300.0034
300.0031
300.00284
300.02529
300.02524
300.02422
300.02275
300.02114
300.01955
300.01805
300.01665
300.01537
300.01419
300.01311
300.01212
300.01125
300.10064
300.09961
300.09501
300.08894
300.08253
300.07629
300.07043
300.06499
300.05997
300.05535
300.05112
300.04724
300.04381
300.36884
300.35923
300.33831
300.31363
300.28869
300.2649
300.24274
300.22231
300.20357
300.18643
300.17079
300.15659
300.14412
301.11862
301.05
300.96094
300.8703
300.78498
300.70701
300.63659
300.57329
300.51653
300.46567
300.42016
300.37953
300.3444
301.11868
301.05006
300.96099
300.87035
300.78502
300.70704
300.63662
300.57332
300.51656
300.4657
300.42018
300.37955
300.34441
300.36888
300.35926
300.33835
300.31366
300.28872
300.26493
300.24277
300.22233
300.20359
300.18645
300.17081
300.1566
300.14413
300.10065
300.09963
300.09502
300.08895
300.08254
300.0763
300.07044
300.065
300.05998
300.05536
300.05113
300.04725
300.04382
300.02529
300.02524
300.02422
300.02275
300.02114
300.01955
300.01805
300.01666
300.01537
300.01419
300.01311
300.01213
300.01125
300.0078
300.00772
300.00731
300.00675
300.00615
300.00557
300.00504
300.00456
300.00413
300.00374
300.0034
300.0031
300.00284
)
;
        refGradient     uniform 0;
        valueFraction   uniform 0.00032132529;
        source          uniform 0;
        logInterval     -1;
        writePrecision  8;
        updateHeader    1;
        writeToFile     0;
        useUserTime     1;
        kappaMethod     solidThermo;
        value           nonuniform List<scalar> 
130
(
300.01898
300.01125
300.00587
300.00275
300.00117
300.00046
300.00017
300.00006
300.00002
300.00001
300.00001
300
300
300.06932
300.03895
300.01923
300.00854
300.00347
300.00131
300.00047
300.00016
300.00006
300.00003
300.00002
300.00001
300.00001
300.26844
300.14027
300.06467
300.02701
300.01041
300.00376
300.0013
300.00045
300.00018
300.00009
300.00006
300.00005
300.00004
300.90711
300.42352
300.17803
300.06907
300.0251
300.00867
300.00292
300.00102
300.00042
300.00023
300.00016
300.00014
300.00013
302.40588
300.93968
300.35159
300.12587
300.04322
300.01437
300.00476
300.0017
300.00074
300.00044
300.00034
300.00029
300.00026
302.40606
300.93975
300.35164
300.12588
300.04322
300.01437
300.00476
300.0017
300.00074
300.00044
300.00034
300.00029
300.00026
300.90725
300.42359
300.17807
300.06909
300.02511
300.00867
300.00292
300.00102
300.00042
300.00023
300.00016
300.00014
300.00013
300.26851
300.14031
300.06469
300.02702
300.01041
300.00376
300.0013
300.00045
300.00018
300.00009
300.00006
300.00005
300.00004
300.06935
300.03897
300.01924
300.00854
300.00347
300.00131
300.00047
300.00016
300.00006
300.00003
300.00002
300.00001
300.00001
300.019
300.01125
300.00587
300.00275
300.00117
300.00046
300.00017
300.00006
300.00002
300.00001
300.00001
300
300
)
;
    }
    rightSolid_to_heater
    {
        type            compressible::turbulentTemperatureRadCoupledMixed;
        refValue        nonuniform List<scalar> 10(300.02826 300.10692 300.43874 301.66764 305.9673 305.96773 301.66793 300.43887 300.10697 300.02828);
        refGradient     uniform 0;
        valueFraction   uniform 0.50000003;
        source          uniform 0;
        logInterval     -1;
        writePrecision  8;
        updateHeader    1;
        writeToFile     0;
        useUserTime     1;
        kappaMethod     solidThermo;
        value           nonuniform List<scalar> 10(300.02362 300.08813 300.35361 301.28746 304.1868 304.1871 301.28768 300.35372 300.08817 300.02364);
    }
}


// ************************************************************************* //
