/*--------------------------------*- C++ -*----------------------------------*\
| =========                 |                                                 |
| \\      /  F ield         | OpenFOAM: The Open Source CFD Toolbox           |
|  \\    /   O peration     | Version:  2412                                  |
|   \\  /    A nd           | Website:  www.openfoam.com                      |
|    \\/     M anipulation  |                                                 |
\*---------------------------------------------------------------------------*/
FoamFile
{
    version     2.0;
    format      ascii;
    arch        "LSB;label=32;scalar=64";
    class       volVectorField;
    location    "0.5";
    object      flux;
}
// * * * * * * * * * * * * * * * * * * * * * * * * * * * * * * * * * * * * * //

dimensions      [0 1 -1 1 0 0 0];

internalField   nonuniform List<vector> 
5712
(
(-0.431795 0.658313 0.418556)
(-0.534079 0.361864 1.25959)
(-0.967882 1.12289 0.321812)
(-1.54344 0.745802 1.36371)
(-1.49168 1.08481 0.172918)
(-2.91234 0.939182 1.41655)
(-1.00912 1.534 0.281243)
(-3.0274 1.96341 2.16765)
(-1.02599 2.36128 0.453196)
(-2.40961 3.073 2.70276)
(-1.26386 1.27978 0.474986)
(-2.10565 1.1451 1.96663)
(-0.956694 0.785358 0.514217)
(-1.29586 0.550927 1.76996)
(-0.517674 0.529907 0.511551)
(-0.536055 0.302584 1.54056)
(-0.782945 1.0171 0.23158)
(-0.923885 0.819003 0.13721)
(-1.02673 0.944006 0.714547)
(-0.95948 0.867861 0.354274)
(-0.688083 1.14616 0.214467)
(-1.02462 1.02246 0.100913)
(-1.00767 1.37798 0.744251)
(-1.01125 1.10506 0.301053)
(-0.303338 0.373881 0.331305)
(-0.237608 0.24707 0.262052)
(-0.409917 0.197537 0.970642)
(-0.309728 0.137995 0.754305)
(-0.703067 0.524536 0.221595)
(-0.500196 0.32426 0.19033)
(-1.27333 0.293795 0.972375)
(-0.93441 0.194524 0.782372)
(-1.05925 1.15921 0.503934)
(-1.09722 1.17613 0.188524)
(-1.14596 0.960729 0.400759)
(-1.22462 0.687357 0.159145)
(-0.310837 0.756015 0.195097)
(-0.252587 0.629684 0.494026)
(-2.36154 0.649149 2.19822)
(-2.91699 0.627584 0.660567)
(-1.30075 0.824677 0.670318)
(-1.71271 0.8302 0.286942)
(-2.92391 1.82769 2.57594)
(-3.60815 2.03629 0.789695)
(-1.37965 1.2173 0.593099)
(-1.69686 1.31708 0.251322)
(-1.83458 1.03505 1.5225)
(-2.39587 0.818704 0.502307)
(-1.51354 0.972122 0.776464)
(-2.06145 0.662299 0.342028)
(-0.889763 0.419944 1.29608)
(-1.10832 0.374037 0.4072)
(-0.197381 0.356574 0.419434)
(-0.065049 0.632587 0.223779)
(-0.250837 0.179995 0.600948)
(-0.0899756 0.275815 0.253805)
(-0.447803 0.466667 0.394746)
(-0.188388 0.826654 0.235821)
(-0.742621 0.30235 0.625237)
(-0.280879 0.457206 0.248807)
(-0.530491 0.456374 0.499701)
(-0.178437 0.974132 0.314781)
(-0.500162 0.358637 0.402948)
(-0.146879 0.667455 0.181225)
(-0.949318 0.10253 0.661152)
(-0.28589 0.440931 0.249361)
(-1.23525 0.00990363 0.254447)
(-0.400451 0.313706 0.09781)
(-1.4166 0.761992 0.809858)
(-0.834964 0.924135 0.629527)
(-1.19694 0.859126 0.463024)
(-0.828297 0.945902 0.425432)
(-1.35207 0.923999 0.776299)
(-0.868803 0.899775 0.676036)
(-1.0815 1.00275 0.406572)
(-0.836447 0.915274 0.423686)
(-1.00749 0.843446 0.47773)
(-0.741506 1.02595 0.432509)
(-1.11865 0.799114 0.693718)
(-0.730633 0.990501 0.606504)
(-1.16712 0.886936 0.323504)
(-0.843201 0.958675 0.281651)
(-1.21263 0.881269 0.165889)
(-0.861846 0.963858 0.140634)
(-1.0678 1.04496 0.284073)
(-0.840325 0.925698 0.27568)
(-1.11637 1.06498 0.138795)
(-0.854145 0.931199 0.136189)
(-1.0291 0.80738 0.34004)
(-0.770648 1.04004 0.281502)
(-1.10504 0.738989 0.179856)
(-0.795716 1.04362 0.128867)
(-1.13365 1.02903 0.440412)
(-0.498398 1.22112 0.25867)
(-0.706432 1.29021 0.465829)
(-0.847411 2.04131 0.511805)
(-1.22615 1.08318 0.638472)
(-0.585043 1.45419 0.489437)
(-0.710756 1.28626 0.698434)
(-0.899958 2.28911 0.899752)
(-1.13151 0.972102 0.298301)
(-0.458244 1.06339 0.136291)
(-0.730079 1.28138 0.283933)
(-0.828321 1.91309 0.296599)
(-1.17182 0.936392 0.155024)
(-0.459431 0.97006 0.0583241)
(-0.76141 1.28245 0.117792)
(-0.83414 1.8573 0.108385)
(-0.190997 0.341225 0.545138)
(-0.218256 0.453642 1.02612)
(-0.0694329 0.949049 0.376088)
(-0.150782 1.64217 1.15475)
(-0.544992 0.393864 0.589095)
(-0.643814 0.459554 1.01949)
(-0.241036 1.13813 0.443153)
(-0.48852 1.78361 1.20938)
(-0.884224 0.444179 0.728012)
(-1.04268 0.466245 0.972693)
(-0.451685 1.34929 0.593375)
(-0.831068 1.91644 1.19604)
(-0.783679 1.11299 0.637207)
(-0.377464 1.04248 0.615158)
(-0.948073 1.10369 0.611425)
(-1.29139 1.1428 0.642831)
(-0.726418 1.82652 0.730065)
(-0.235879 1.04402 0.397332)
(-0.397248 1.03079 0.554895)
(-0.638981 1.08122 0.844186)
(-1.29306 1.01892 1.05466)
(-0.995869 2.14608 1.53659)
(-0.523643 0.947173 0.549094)
(-0.749673 0.977603 0.548299)
(-0.916002 0.944878 0.594749)
(-0.984515 1.18141 0.771194)
(-1.30707 2.67997 1.19262)
(-0.197099 0.103899 1.25736)
(-0.188994 0.136034 1.18638)
(-0.130711 0.308228 1.47104)
(-0.131785 0.700297 1.45406)
(-0.578589 0.143235 1.20052)
(-0.498333 0.203297 1.16536)
(-0.414838 0.386394 1.45541)
(-0.393919 0.768028 1.41849)
(-0.855416 0.203407 1.06438)
(-0.698206 0.18987 1.07093)
(-0.624943 0.492986 1.36195)
(-0.582336 0.850389 1.34417)
(-0.378425 0.951486 0.479287)
(-0.394527 0.83553 0.488168)
(-0.612068 0.887001 0.589331)
(-0.627935 0.74016 0.604796)
(-0.855585 0.883917 0.762114)
(-0.763532 0.677495 0.773518)
(-1.1285 0.707547 0.961092)
(-0.960922 0.557476 0.939543)
(-0.926203 0.654539 1.28079)
(-0.8736 1.03253 1.278)
(-0.558283 0.845117 0.420971)
(-0.510969 0.675779 0.458414)
(-0.762329 0.865084 0.555805)
(-0.575428 0.717428 0.62498)
(-0.804321 0.832579 0.696096)
(-0.558201 0.680171 0.789508)
(-0.812257 0.839969 0.872136)
(-0.543416 0.666546 0.983146)
(-1.02749 0.752213 1.20664)
(-0.728625 1.06709 1.32369)
(-0.6237 0.922758 0.521176)
(-0.227874 0.932889 0.340282)
(-0.525008 0.966303 0.404485)
(-0.409786 1.01576 0.361404)
(-0.637393 0.84442 0.50851)
(-0.618316 0.73792 0.496754)
(-0.660488 0.874335 0.400897)
(-0.736935 0.800062 0.457287)
(-0.497952 0.943415 0.420139)
(-0.387449 0.916498 0.380825)
(-0.624246 0.930644 0.557422)
(-0.167608 0.878941 0.387787)
(-0.52824 0.986413 0.183008)
(-0.675379 1.04358 0.250785)
(-0.559121 0.987559 0.0559407)
(-0.739863 1.04373 0.0807069)
(-0.683441 0.896193 0.238747)
(-0.92526 0.842241 0.325773)
(-0.719234 0.895263 0.0735244)
(-0.972691 0.84506 0.108093)
(-0.508406 0.927467 0.180682)
(-0.66006 0.903158 0.250152)
(-0.539797 0.945611 0.0532514)
(-0.732722 0.915474 0.0803651)
(-0.66824 0.91965 0.440115)
(-0.40315 0.876208 0.34732)
(-0.931908 0.678222 0.492694)
(-0.35895 0.826789 0.300851)
(-0.67631 0.937002 0.645017)
(-0.13721 0.866041 0.450917)
(-0.866317 0.711218 0.787555)
(-0.107124 0.881203 0.521226)
(-0.705879 0.883683 0.218326)
(-0.599748 0.854105 0.213105)
(-0.982614 0.664197 0.274352)
(-0.452196 0.813972 0.152669)
(-0.658277 0.886752 0.142614)
(-0.702494 0.840885 0.139431)
(-0.91965 0.652091 0.160009)
(-0.572897 0.788698 0.113553)
(-0.157144 0.0977902 1.01777)
(-0.126865 0.0639364 0.659215)
(-0.0863098 0.0385506 0.218517)
(-0.104942 0.0464031 1.10866)
(-0.0901972 0.0303557 0.687147)
(-0.0662199 0.027551 0.235065)
(-0.400295 0.153474 0.981733)
(-0.279315 0.0806027 0.633383)
(-0.190202 0.0492946 0.218756)
(-0.290365 0.112101 1.08508)
(-0.196872 0.08165 0.675707)
(-0.131086 0.0548752 0.22814)
(-0.490332 0.14153 0.902756)
(-0.321098 0.0970059 0.572558)
(-0.234416 0.0814301 0.189252)
(-0.424193 0.202224 1.0355)
(-0.265026 0.136578 0.648881)
(-0.188639 0.0993202 0.219515)
(-0.297734 0.643037 0.356516)
(-0.163755 0.416382 0.212584)
(-0.114068 0.292385 0.0638908)
(-0.521619 0.590749 0.511438)
(-0.269127 0.410382 0.337412)
(-0.154776 0.302856 0.108726)
(-0.560027 0.445748 0.661889)
(-0.295163 0.318607 0.44097)
(-0.159823 0.248331 0.146075)
(-0.684986 0.379601 0.791518)
(-0.400732 0.269781 0.505774)
(-0.250946 0.206998 0.165297)
(-0.66329 0.33203 0.970768)
(-0.353017 0.178307 0.603438)
(-0.193824 0.10743 0.206896)
(-0.546243 0.508469 0.365262)
(-0.320141 0.341139 0.205427)
(-0.204348 0.245588 0.0703422)
(-0.471748 0.558315 0.478495)
(-0.27064 0.376959 0.309414)
(-0.152711 0.27835 0.11041)
(-0.492824 0.46329 0.60254)
(-0.270049 0.293382 0.391229)
(-0.142665 0.212077 0.136811)
(-0.515692 0.387511 0.744657)
(-0.286087 0.246888 0.465981)
(-0.154159 0.179724 0.159696)
(-0.669394 0.318928 0.918105)
(-0.318494 0.166438 0.533235)
(-0.137375 0.0991977 0.183826)
(-0.527889 1.22148 -0.0238126)
(-0.822204 1.20759 0.032716)
(-0.471014 1.34592 0.00549814)
(-0.639347 1.17807 0.0953704)
(-0.485434 1.2657 0.0896536)
(-0.939314 1.19176 0.0810405)
(-0.429672 1.57422 0.225789)
(-0.793898 1.27022 0.186313)
(0.000915335 0.722428 0.0230047)
(-0.0577509 0.730876 0.0303454)
(0.0156623 0.733752 0.0243066)
(-0.037317 0.671222 0.0317482)
(-0.133233 0.973108 0.0103698)
(-0.24056 0.79089 0.0277013)
(-0.0909268 0.977517 0.0198188)
(-0.158956 0.716401 0.0412388)
(-0.102957 1.06425 0.04707)
(-0.17504 1.07533 0.0343787)
(-0.469889 0.896885 0.124927)
(-0.663169 0.973756 0.0940137)
(-0.320035 1.09409 0.05084)
(-0.265864 0.998665 0.0725915)
(-0.550313 1.25765 0.110874)
(-0.493653 1.33088 -0.00888102)
(-0.803096 1.40197 0.281656)
(-0.872045 1.53707 0.0587296)
(0.00107215 1.03516 -0.217678)
(0.217812 1.08234 -0.0899473)
(-0.371713 0.89427 -0.00550991)
(-0.263591 0.896812 -0.0216132)
(-0.264838 0.979188 -0.0492016)
(-0.147911 0.955077 -0.0582777)
(-0.0561727 0.574629 0.318323)
(-0.0351145 0.300757 0.112153)
(-0.0507049 0.548719 0.0815195)
(-0.0332315 0.335095 0.0390345)
(-0.146777 0.565685 0.312634)
(-0.0453238 0.294547 0.110486)
(-0.0889428 0.535183 0.0854749)
(-0.0250331 0.323138 0.0426869)
(-0.376205 0.523527 0.295856)
(-0.0996525 0.269337 0.113251)
(-0.305621 0.506938 0.0994122)
(-0.0945841 0.306106 0.0505386)
(-0.337088 0.502765 0.0664758)
(-0.0965417 0.317475 0.0266786)
(-0.371159 0.483988 0.00589795)
(-0.109033 0.314033 0.00603986)
(-0.572309 0.85841 0.52529)
(-0.50261 0.609709 0.440834)
(-0.444497 0.8746 0.21469)
(-0.48656 0.639339 0.270122)
(-0.922622 0.99831 0.686146)
(-0.767483 0.828126 0.621246)
(-0.752422 1.04931 0.323338)
(-0.717078 0.847974 0.373941)
(-0.298285 0.771342 0.160978)
(-0.326461 0.464789 0.193048)
(-0.347876 0.773221 0.381284)
(-0.308677 0.432358 0.295313)
(-0.414188 0.91614 0.121261)
(-0.475297 0.657045 0.163382)
(-0.430846 0.955609 0.0468744)
(-0.475091 0.662927 0.0755068)
(-0.720392 1.10889 0.202892)
(-0.695198 0.864272 0.230398)
(-0.747454 1.14866 0.093098)
(-0.697267 0.871726 0.110826)
(-0.263158 0.766413 0.0730633)
(-0.324326 0.480142 0.115819)
(-0.251072 0.76853 0.0190279)
(-0.323038 0.483592 0.0544272)
(-0.030584 0.415308 0.119208)
(-0.0301997 0.254133 0.0604444)
(-0.216863 0.325853 0.131727)
(-0.0824735 0.194415 0.0607942)
(-0.0371116 0.369136 0.230116)
(-0.0240724 0.223348 0.0963044)
(-0.193277 0.294472 0.185854)
(-0.0698366 0.175152 0.0841786)
(-0.0274832 0.431501 0.0538355)
(-0.0255067 0.270359 0.0323218)
(-0.224117 0.340184 0.0826895)
(-0.0891123 0.204513 0.035766)
(-0.0328801 0.436208 0.0102519)
(-0.0256317 0.278832 0.0093115)
(-0.221981 0.343366 0.0407228)
(-0.0918828 0.208393 0.0151612)
(0.00351347 0.0842168 0.351007)
(0.00882287 0.0407355 0.184849)
(-0.0150147 0.148943 0.135476)
(-0.00682216 0.0825437 0.111844)
(0.0205041 0.0858867 0.349908)
(0.0360486 0.0458524 0.188807)
(-0.0231246 0.149687 0.13016)
(-0.00877042 0.0895481 0.108449)
(-0.0418944 0.0907569 0.356839)
(-0.00819803 0.0596735 0.190723)
(-0.0639633 0.14602 0.127394)
(-0.0445971 0.100874 0.100693)
(0.21536 0.405756 0.522037)
(0.108928 0.754753 0.594358)
(0.114549 0.253561 0.413184)
(0.0727237 0.226822 0.266152)
(0.0046529 0.158993 0.107633)
(0.242591 0.758018 0.348999)
(0.324875 0.436759 0.349229)
(0.130872 0.220171 0.309366)
(0.124629 0.19369 0.239302)
(0.00949373 0.120273 0.11498)
(-0.418673 0.741163 0.505543)
(-0.284237 0.492384 0.379905)
(-0.197763 0.337801 0.262465)
(-0.162421 0.233907 0.171572)
(-0.0631976 0.145496 0.0761189)
(0.0114679 0.0230924 0.11471)
(0.00843299 0.0161655 0.0814656)
(-0.00241579 0.0533631 0.0911736)
(-0.00143532 0.0410698 0.078428)
(0.0327881 0.0287258 0.121809)
(0.0292363 0.0175246 0.087311)
(-0.0054888 0.0628939 0.0910513)
(-0.00287431 0.0480821 0.0798707)
(0.0272731 0.0407835 0.130211)
(0.0323185 0.0266704 0.0979046)
(-0.0204602 0.0753043 0.0897153)
(-0.0137775 0.0585483 0.0811791)
(0.0646674 0.731523 0.378364)
(-0.00413792 0.602636 0.343286)
(0.210972 0.411886 0.289274)
(0.107668 0.314472 0.231292)
(0.091934 0.229358 0.17698)
(0.0433935 0.176746 0.155638)
(0.0830117 0.167333 0.132065)
(0.0530941 0.124778 0.114113)
(0.00639895 0.10364 0.0808323)
(0.000898186 0.0812751 0.0815937)
(-0.233023 0.638091 0.286775)
(-0.159459 0.474458 0.306126)
(-0.0349015 0.419637 0.204567)
(0.0115453 0.300556 0.212566)
(-0.00613958 0.286215 0.145818)
(0.02009 0.207861 0.1479)
(-0.0117912 0.18961 0.106032)
(0.0118226 0.13938 0.106832)
(0.000617279 0.125318 0.0596625)
(0.00186855 0.108071 0.0773498)
(-0.172948 0.411265 0.191882)
(-0.152534 0.265728 0.143663)
(-0.341183 0.42988 0.127882)
(-0.198151 0.258188 0.07836)
(-0.356251 0.582114 0.327206)
(-0.284646 0.377491 0.227644)
(-0.502538 0.613716 0.254835)
(-0.342429 0.38941 0.159167)
(-0.222062 0.316193 0.0764691)
(-0.121948 0.199544 0.0487617)
(-0.091054 0.305683 0.118302)
(-0.0908918 0.206904 0.0973318)
(-0.394453 0.457165 0.137448)
(-0.168645 0.251733 0.0648146)
(-0.42123 0.467153 0.0463712)
(-0.163658 0.25876 0.0241119)
(-0.572222 0.661084 0.211226)
(-0.341264 0.411968 0.119408)
(-0.613181 0.667963 0.0667142)
(-0.341209 0.421079 0.0432898)
(-0.261345 0.323756 0.0904605)
(-0.0951511 0.191576 0.0399052)
(-0.279852 0.33178 0.0324411)
(-0.0870035 0.20152 0.0145727)
(-0.127215 0.209502 0.0418934)
(-0.0786916 0.144555 0.0436614)
(-0.0513524 0.138453 0.0320985)
(-0.0794164 0.135983 0.047017)
(-0.061242 0.208595 0.0700084)
(-0.0629627 0.147817 0.0710601)
(-0.0266996 0.140392 0.0391885)
(-0.0628733 0.131223 0.0607266)
(-0.137665 0.210072 0.0492788)
(-0.0694689 0.142153 0.0297243)
(-0.0643314 0.135156 0.0211372)
(-0.0908185 0.141319 0.0331231)
(-0.165722 0.221311 0.0123357)
(-0.0627344 0.145943 0.00208405)
(-0.0822459 0.140641 -0.00756945)
(-0.0835972 0.139973 0.00124644)
(0.00593863 0.0186403 0.0545178)
(0.00420268 0.0110245 0.0247437)
(0.00384408 0.00660358 0.00696914)
(-0.00111302 0.0646774 0.0470046)
(0.000650217 0.0248351 0.0134226)
(0.000743479 0.0148235 0.00363391)
(0.0205008 0.017465 0.0604654)
(0.014976 0.0120892 0.0293187)
(0.0126096 0.00778897 0.00888288)
(-0.00144057 0.0709266 0.0494001)
(0.00310612 0.0295855 0.0149668)
(0.00311992 0.0183421 0.00422974)
(0.02585 0.0241297 0.0683063)
(0.0229534 0.0182307 0.0345285)
(0.0196624 0.0135387 0.00971579)
(-0.00742027 0.079708 0.0513378)
(0.00565983 0.0377007 0.0162869)
(0.00639219 0.0248861 0.00441157)
(-0.0268761 0.413446 0.22918)
(0.000320132 0.266324 0.128997)
(0.00209738 0.188927 0.037799)
(0.0394671 0.216518 0.150177)
(0.0396001 0.139619 0.083953)
(0.0318698 0.100531 0.0251466)
(0.0258169 0.129274 0.110025)
(0.0264439 0.0833662 0.0589587)
(0.0229724 0.06076 0.0179335)
(0.0327044 0.0921076 0.0781956)
(0.0286983 0.0579004 0.0396731)
(0.0244528 0.0415115 0.0112009)
(-0.00428088 0.0985886 0.0535277)
(0.00753025 0.0512708 0.0170562)
(0.00601867 0.0341037 0.00452925)
(-0.16178 0.309705 0.240857)
(-0.0752672 0.194518 0.126994)
(-0.0372071 0.13366 0.0415778)
(-0.0285713 0.191617 0.166577)
(-0.000176802 0.118131 0.0874566)
(0.00983454 0.0810577 0.0285398)
(-0.0106083 0.138107 0.116548)
(0.00808225 0.0829097 0.0601535)
(0.0128888 0.0550769 0.0192337)
(-0.00593266 0.105624 0.0817529)
(0.00849218 0.0625396 0.0381602)
(0.0111479 0.0417157 0.0116079)
(-0.0186173 0.133151 0.060526)
(0.00255197 0.0643593 0.0187096)
(0.00415059 0.0424902 0.00596663)
(-0.00309568 0.127806 0.0322492)
(-0.000715279 0.0503733 0.00890877)
(-0.000161368 0.0202871 0.003152)
(-4.72339e-05 0.00812645 0.000933416)
(-0.00105521 0.144365 0.0127544)
(1.67761e-05 0.05526 0.00362282)
(0.00038546 0.0215533 0.00134614)
(0.000178296 0.00860791 0.000407149)
(-0.00779194 0.122886 0.0318222)
(-0.00186742 0.0492273 0.00898597)
(-0.000292039 0.0201148 0.00343355)
(-8.07348e-05 0.00814698 0.00107123)
(-0.00247897 0.141686 0.013464)
(8.67039e-06 0.0549588 0.00404527)
(0.000719478 0.0219517 0.00181314)
(0.000313604 0.00894239 0.0006173)
(-0.0121539 0.114402 0.0341831)
(-0.00319412 0.0474389 0.00996321)
(-0.000697408 0.0206989 0.00410743)
(-5.43253e-05 0.00850791 0.00135108)
(-0.00799582 0.135175 0.0182134)
(-0.00154148 0.0545784 0.0060281)
(-0.000241469 0.0232102 0.00203214)
(7.80905e-05 0.00958641 0.000669632)
(-0.00464422 0.139922 0.00751272)
(-0.000962847 0.0560725 0.00310921)
(-0.00051851 0.0221565 0.000315778)
(-0.000148914 0.00899226 5.82542e-05)
(-0.00556623 0.140853 0.00391456)
(-0.00146791 0.056959 0.00212102)
(-0.000339859 0.021942 0.000371349)
(-3.80266e-05 0.00873676 0.000106275)
(-0.0214377 0.118896 0.0233142)
(-0.006067 0.0496452 0.00743871)
(-0.00260682 0.0217204 0.00259891)
(-0.000630855 0.00891777 0.000733668)
(-0.0247906 0.0965111 0.0206796)
(-0.00697446 0.0425887 0.00645728)
(-0.00377648 0.0195161 0.00283274)
(-0.000830982 0.00774228 0.000763751)
(-0.0179496 0.103757 0.0332548)
(-0.00506827 0.0446003 0.00997461)
(-0.00204536 0.0206639 0.0042305)
(-0.000183158 0.00855356 0.00128787)
(-0.0204809 0.0879533 0.0274632)
(-0.00577259 0.0395955 0.00816554)
(-0.00334945 0.0186615 0.00382367)
(-0.000750272 0.00742129 0.000860669)
(-0.0192473 0.126931 0.0134385)
(-0.00552305 0.0526616 0.00466485)
(-0.00223902 0.0219666 0.00145966)
(-0.000582142 0.00889348 0.000498743)
(-0.0267436 0.101459 0.0129852)
(-0.00752286 0.0445736 0.00430905)
(-0.00398815 0.0198932 0.00184327)
(-0.000885435 0.00780887 0.000563437)
(-0.0188128 0.130247 0.00552345)
(-0.00552196 0.0542363 0.0022945)
(-0.00197087 0.0221693 0.000743661)
(-0.000471462 0.00890495 0.000272273)
(-0.0275614 0.103536 0.00550091)
(-0.00776562 0.0456862 0.0021101)
(-0.00408034 0.0202631 0.000928331)
(-0.000940483 0.00795619 0.000339068)
(-0.00229045 0.0940591 0.0396079)
(-0.000597014 0.0421423 0.0110002)
(-0.000258974 0.0185382 0.0040995)
(-0.000101773 0.00751933 0.00117288)
(-0.00149434 0.0646992 0.0371942)
(-0.000395886 0.0333473 0.0104712)
(-0.000303026 0.0163337 0.00462636)
(-6.96521e-05 0.00653383 0.00113939)
(-0.00584498 0.0907784 0.0383895)
(-0.00156546 0.0412453 0.0107802)
(-0.000598815 0.0184967 0.00420826)
(-0.000199186 0.00752007 0.00119245)
(-0.00302025 0.0644202 0.0354875)
(-0.000776284 0.0332124 0.00999805)
(-0.000669165 0.0163145 0.00452316)
(-0.000162438 0.00652878 0.00107292)
(-0.0147208 0.0861143 0.0371841)
(-0.0041746 0.0399198 0.0105776)
(-0.00176079 0.0186847 0.00458838)
(-0.000474893 0.00759098 0.00132014)
(-0.0107135 0.0658773 0.0316822)
(-0.00296533 0.0336607 0.0089053)
(-0.00159973 0.016483 0.00431003)
(-0.000225638 0.00653326 0.00102476)
(-0.00801989 0.0816351 0.0321764)
(-0.00234171 0.0379994 0.00922553)
(-0.00110808 0.0182855 0.00439842)
(7.50587e-05 0.00744971 0.00142683)
(-0.00494771 0.0667321 0.0337856)
(-0.00133509 0.0337975 0.0094161)
(-0.00104526 0.0169329 0.00514133)
(-8.49124e-05 0.00668045 0.00130264)
(-0.0174869 0.0769663 0.0235227)
(-0.00492662 0.036313 0.00675412)
(-0.0029443 0.0174464 0.00328389)
(-0.000398728 0.00695537 0.000868491)
(3.8086e-05 0.0412475 0.0270076)
(6.33944e-05 0.0262524 0.00731375)
(-4.3932e-05 0.0125361 0.00343124)
(2.11108e-05 0.00325753 0.000802268)
(0.00129961 0.0225042 0.00980898)
(0.00042144 0.0228635 0.00252308)
(0.000113095 0.0110384 0.0010706)
(5.06359e-05 0.0028321 0.000294204)
(-0.000821401 0.0437072 0.0267816)
(-8.02231e-05 0.0271082 0.00725554)
(-0.000275435 0.0128796 0.00338626)
(1.47854e-05 0.00342229 0.000775929)
(0.0032308 0.0253188 0.0100853)
(0.00107099 0.0237976 0.00260239)
(0.000233461 0.0113261 0.00111142)
(0.000117446 0.00290752 0.000311419)
(-0.00246616 0.0479397 0.0253954)
(-0.000513971 0.0284922 0.00682764)
(-0.000543294 0.0131716 0.00329149)
(2.13857e-05 0.00342593 0.000733241)
(0.00486214 0.0301116 0.00990954)
(0.00157258 0.0254121 0.00254772)
(0.000339817 0.0116734 0.00113233)
(0.000164275 0.00296555 0.000327663)
(-0.00235751 0.054889 0.0216716)
(-0.000487945 0.0304091 0.00572102)
(-0.000668208 0.0138774 0.003035)
(1.71057e-05 0.00370362 0.000717187)
(0.0060121 0.037135 0.00894892)
(0.00189303 0.027684 0.00223387)
(0.000316272 0.0123106 0.0011464)
(0.000144398 0.00314016 0.000345905)
(-0.00465589 0.0658105 0.0188594)
(-0.000955744 0.0331997 0.00503819)
(-0.00132755 0.0150164 0.00271739)
(-0.000206648 0.00419675 0.000714592)
(0.00427214 0.0471981 0.00824187)
(0.00159649 0.03023 0.0021063)
(2.93247e-06 0.0129525 0.00112996)
(5.42642e-05 0.00329221 0.00034642)
(-0.0159118 0.0759004 0.0124244)
(-0.00338266 0.0367368 0.00369375)
(-0.00266572 0.0157192 0.0015888)
(-0.000538659 0.00411502 0.000417866)
(-0.00457376 0.0539541 0.00610324)
(-0.00043312 0.033697 0.00192857)
(-0.000638639 0.0141833 0.000706579)
(-0.00015079 0.00351057 0.000230643)
(-0.00994448 0.0735004 0.0149188)
(-0.00195655 0.0352919 0.00414227)
(-0.00215 0.0153038 0.00211327)
(-0.000418061 0.00409212 0.00055381)
(-0.000638956 0.0527745 0.00708175)
(0.000596695 0.0324434 0.00199717)
(-0.000368802 0.0135865 0.00093837)
(-6.04447e-05 0.00339881 0.000307241)
(-0.0202328 0.076489 0.00863677)
(-0.00467599 0.0375101 0.00283335)
(-0.00305839 0.0156865 0.00111651)
(-0.000655571 0.0039154 0.000328822)
(-0.00673262 0.0541806 0.00447566)
(-0.00119311 0.0344763 0.00156515)
(-0.000813669 0.0143996 0.00048308)
(-0.000214014 0.00349365 0.000170979)
(-0.0224131 0.0756045 0.00406282)
(-0.00555309 0.0381086 0.00159014)
(-0.00330264 0.0159593 0.000655968)
(-0.000745541 0.00395145 0.000237093)
(-0.00791404 0.0558537 0.00242625)
(-0.00175514 0.0351147 0.00100612)
(-0.000925969 0.0146616 0.000352971)
(-0.000252477 0.00353543 0.00014281)
(-1.21053e-05 0.00312373 0.000174711)
(1.10567e-06 0.00123181 3.10027e-05)
(1.34198e-06 0.000465045 5.88083e-06)
(5.848e-07 0.000162531 1.24857e-06)
(2.48893e-07 3.8911e-05 3.52549e-07)
(1.62108e-05 0.00326104 7.14179e-05)
(7.64338e-06 0.00125789 1.32428e-05)
(3.04809e-06 0.000469822 2.60901e-06)
(1.06204e-06 0.000163444 5.72683e-07)
(4.14658e-07 3.90618e-05 1.66211e-07)
(-3.95425e-05 0.00316232 0.000180436)
(1.37463e-06 0.00123866 3.47509e-05)
(2.78701e-06 0.000467636 7.50952e-06)
(1.22975e-06 0.000163488 1.82425e-06)
(5.21092e-07 3.91418e-05 5.76911e-07)
(4.03369e-05 0.00332186 9.17065e-05)
(2.26987e-05 0.00126923 2.13042e-05)
(8.75778e-06 0.00047376 5.36736e-06)
(2.96149e-06 0.000164807 1.455e-06)
(1.13446e-06 3.93809e-05 4.94742e-07)
(-2.97652e-05 0.00314914 0.000222784)
(8.73264e-06 0.0012403 5.02613e-05)
(5.26295e-06 0.000470082 1.25229e-05)
(1.98188e-06 0.000164536 3.37925e-06)
(7.89228e-07 3.93997e-05 1.14486e-06)
(7.6671e-05 0.00332213 0.000230674)
(3.68033e-05 0.00128494 6.53495e-05)
(1.32589e-05 0.000480446 1.87273e-05)
(4.32715e-06 0.00016707 5.47756e-06)
(1.62462e-06 3.98968e-05 1.94617e-06)
(1.26061e-05 0.00344407 0.000191918)
(9.83089e-06 0.00132445 5.96713e-05)
(3.91108e-06 0.000492971 1.78183e-05)
(1.32274e-06 0.000170802 5.3283e-06)
(5.05385e-07 4.0703e-05 1.92146e-06)
(-2.10959e-05 0.00346549 0.000121671)
(2.53645e-07 0.00135173 4.43707e-05)
(1.23636e-06 0.000503292 1.45761e-05)
(5.55691e-07 0.000174065 4.6381e-06)
(2.36288e-07 4.14255e-05 1.74721e-06)
(-1.81225e-05 0.00326926 0.000221567)
(8.34129e-06 0.00127752 5.48593e-05)
(4.57216e-06 0.000481581 1.47295e-05)
(1.67771e-06 0.000167961 4.16405e-06)
(6.59938e-07 4.01412e-05 1.45337e-06)
(-4.05468e-05 0.00305136 0.000161426)
(-3.94297e-06 0.00125114 4.12743e-05)
(-1.11177e-07 0.000478248 1.13089e-05)
(1.15408e-07 0.000167563 3.23032e-06)
(6.83653e-08 4.01052e-05 1.13289e-06)
(6.38158e-05 0.00308672 0.000236192)
(2.90075e-05 0.00124413 5.6355e-05)
(9.99152e-06 0.000473344 1.49486e-05)
(3.18198e-06 0.00016577 4.20721e-06)
(1.17762e-06 3.96901e-05 1.46159e-06)
(-1.53848e-05 0.00296053 0.000128018)
(2.32829e-06 0.00123328 3.40177e-05)
(1.59785e-06 0.0004736 9.68193e-06)
(6.03672e-07 0.000166282 2.82849e-06)
(2.3958e-07 3.98372e-05 1.00282e-06)
(-7.52344e-05 0.00335411 0.000204608)
(-8.93665e-06 0.00130689 5.53217e-05)
(-7.07306e-07 0.000490145 1.54451e-05)
(7.43603e-08 0.000170389 4.46493e-06)
(7.8816e-08 4.06541e-05 1.5832e-06)
(-4.4352e-05 0.00310233 0.000150207)
(-4.27756e-06 0.00127566 4.48503e-05)
(-1.0974e-07 0.000486022 1.32909e-05)
(1.28511e-07 0.000169842 3.966e-06)
(7.48699e-08 4.05926e-05 1.42933e-06)
(-9.44547e-05 0.00339008 0.000117433)
(-1.25461e-05 0.00133573 4.09971e-05)
(-1.35533e-06 0.000501103 1.33414e-05)
(-5.21034e-08 0.000173892 4.23522e-06)
(4.59258e-08 4.14339e-05 1.59501e-06)
(-6.12423e-05 0.00313958 0.000109258)
(-8.11185e-06 0.00130251 3.90133e-05)
(-1.04422e-06 0.000496477 1.28309e-05)
(-1.20472e-07 0.00017323 4.09075e-06)
(-9.33728e-09 4.13504e-05 1.54366e-06)
(-1.64164e-05 0.0029047 0.000185413)
(5.07136e-08 0.00119344 3.04907e-05)
(8.92606e-07 0.00045848 5.51901e-06)
(4.1979e-07 0.000161342 1.13014e-06)
(1.83318e-07 3.8722e-05 3.09667e-07)
(2.79595e-06 0.00267235 8.16081e-05)
(2.95752e-06 0.00116304 1.26159e-05)
(1.29062e-06 0.000453831 2.21623e-06)
(4.65844e-07 0.000160546 4.45362e-07)
(1.86028e-07 3.8599e-05 1.20192e-07)
(-2.81758e-05 0.00291009 0.000181901)
(2.37311e-06 0.00119717 3.12183e-05)
(2.45889e-06 0.00046026 6.18671e-06)
(1.02421e-06 0.000162026 1.40954e-06)
(4.27282e-07 3.88886e-05 4.25675e-07)
(1.15644e-05 0.00268862 7.75637e-05)
(7.93892e-06 0.00116841 1.23097e-05)
(3.18648e-06 0.000455714 2.3036e-06)
(1.10472e-06 0.000161187 5.01562e-07)
(4.31107e-07 3.87492e-05 1.46157e-07)
(-4.01312e-05 0.00290092 0.000169514)
(3.67774e-06 0.00120077 3.18763e-05)
(3.26415e-06 0.000462742 7.0324e-06)
(1.30145e-06 0.000162988 1.75415e-06)
(5.3032e-07 3.91193e-05 5.64565e-07)
(3.61067e-05 0.00271998 7.50706e-05)
(1.41808e-05 0.00117722 1.45039e-05)
(4.76986e-06 0.000458748 3.34337e-06)
(1.52398e-06 0.000162179 8.66397e-07)
(5.69343e-07 3.89754e-05 2.86597e-07)
(7.24076e-05 0.00288857 0.000203442)
(2.50145e-05 0.00120919 4.74876e-05)
(7.78822e-06 0.000466585 1.23861e-05)
(2.37401e-06 0.000164265 3.44913e-06)
(8.59599e-07 3.94071e-05 1.18673e-06)
(5.27118e-05 0.00278291 0.000103813)
(1.46665e-05 0.00119576 2.35195e-05)
(4.22116e-06 0.000463762 6.10974e-06)
(1.24724e-06 0.000163576 1.70191e-06)
(4.46367e-07 3.92704e-05 5.85558e-07)
(5.17811e-05 0.00286665 0.000141628)
(1.63009e-05 0.00122012 4.0837e-05)
(4.88296e-06 0.000470137 1.19491e-05)
(1.45906e-06 0.000165315 3.53562e-06)
(5.22325e-07 3.96332e-05 1.25968e-06)
(-0.0211313 0.724737 0.208371)
(-0.0295261 1.12584 0.366604)
(-0.0603371 0.744212 0.199239)
(-0.0871622 1.12929 0.356494)
(-0.0961394 0.776146 0.188825)
(-0.145269 1.13467 0.331798)
(-0.117004 0.813916 0.184188)
(-0.196666 1.16981 0.316481)
(-0.109953 0.843153 0.187251)
(-0.186097 1.24195 0.338768)
(-0.113463 0.721647 0.102988)
(-0.167871 0.87845 0.144159)
(-0.0854743 0.760941 0.14394)
(-0.114727 0.974239 0.222757)
(-0.147522 0.708448 0.0648976)
(-0.212195 0.852429 0.083276)
(-0.159896 0.700472 0.020504)
(-0.225298 0.844621 0.0293573)
(-0.0424951 0.609967 0.679482)
(-0.0103153 0.112737 0.177456)
(-0.0026876 0.0263409 0.0478018)
(-0.000831475 0.00650479 0.0150386)
(-0.000384936 0.00127493 0.00706272)
(-0.0131992 0.718929 0.184648)
(-0.00594035 0.207609 0.0533977)
(-0.000679788 0.053763 0.0164915)
(-0.000276915 0.0134192 0.00519207)
(-0.000123582 0.00262358 0.00229461)
(-0.137826 0.613844 0.666627)
(-0.0336775 0.109729 0.171997)
(-0.00883384 0.0252373 0.0460949)
(-0.00275669 0.00619545 0.0144489)
(-0.00128858 0.00121247 0.00675982)
(-0.0338433 0.720286 0.191137)
(-0.00826221 0.205781 0.0597609)
(-0.00213547 0.0527392 0.0170632)
(-0.000666904 0.0130437 0.0054695)
(-0.000279294 0.0025581 0.00248805)
(-0.240854 0.620577 0.629432)
(-0.0593734 0.107245 0.160265)
(-0.0157487 0.0241759 0.0427049)
(-0.00499271 0.00589092 0.013375)
(-0.00237153 0.00115211 0.00625642)
(-0.0637983 0.725114 0.185213)
(-0.0179442 0.203814 0.0574381)
(-0.00510305 0.0515547 0.0162522)
(-0.00175111 0.0126751 0.00515863)
(-0.000848975 0.00248528 0.00232228)
(-0.340019 0.627259 0.57396)
(-0.0848197 0.103728 0.144187)
(-0.0229368 0.0229509 0.0384)
(-0.00745022 0.00558157 0.0121221)
(-0.00361856 0.00109619 0.00572265)
(-0.0945263 0.731819 0.175619)
(-0.02942 0.201439 0.0531615)
(-0.00896666 0.0505127 0.014756)
(-0.00321916 0.0124261 0.00461447)
(-0.00162987 0.00244803 0.0020492)
(-0.466952 0.625611 0.4882)
(-0.12079 0.100018 0.121934)
(-0.0337546 0.0221826 0.0328395)
(-0.0113379 0.00547441 0.0105814)
(-0.00566012 0.0010903 0.00509705)
(-0.134557 0.731441 0.158407)
(-0.0470265 0.198439 0.0461101)
(-0.0150252 0.0501163 0.0125861)
(-0.00551212 0.0125071 0.00391099)
(-0.00284136 0.00249729 0.00172896)
(-0.619298 0.575474 0.265208)
(-0.177518 0.110981 0.0717338)
(-0.0534522 0.0277661 0.0203635)
(-0.0191461 0.00739849 0.00686281)
(-0.009983 0.00154378 0.00341377)
(-0.167369 0.631605 0.0779121)
(-0.0605076 0.197507 0.0212059)
(-0.0198628 0.0548093 0.00525934)
(-0.00744741 0.01471 0.00143252)
(-0.00391585 0.00308571 0.000556793)
(-0.567729 0.598265 0.374547)
(-0.156548 0.106812 0.0978958)
(-0.0455282 0.0252676 0.0271048)
(-0.0158018 0.00647915 0.00895208)
(-0.00806664 0.00132025 0.00439606)
(-0.157236 0.671829 0.110441)
(-0.0580627 0.19842 0.0311319)
(-0.0190145 0.0525315 0.00829399)
(-0.00706567 0.0135667 0.00252219)
(-0.0036741 0.0027727 0.00109413)
(-0.644005 0.563499 0.164861)
(-0.187983 0.11391 0.0459451)
(-0.0576926 0.0294792 0.0133008)
(-0.0210556 0.00805938 0.00454781)
(-0.0111106 0.00171079 0.00228109)
(-0.17352 0.615623 0.0485988)
(-0.0604953 0.197313 0.0134518)
(-0.0195125 0.0562628 0.00322552)
(-0.00725739 0.0154891 0.000783444)
(-0.00381401 0.00331264 0.000265578)
(-0.663437 0.558569 0.0595442)
(-0.19354 0.112049 0.0168938)
(-0.0598398 0.0291965 0.00495894)
(-0.0220577 0.00806821 0.00171885)
(-0.0117174 0.00172802 0.000870938)
(-0.175582 0.609054 0.021279)
(-0.0609528 0.195366 0.00550161)
(-0.0195217 0.0562472 0.00127788)
(-0.0069448 0.0156455 0.000396972)
(-0.00375381 0.0033763 9.56524e-05)
(-0.0317773 1.6523 -0.115494)
(-0.36237 2.46634 -0.00566769)
(-0.347803 2.17902 0.208948)