/*--------------------------------*- C++ -*----------------------------------*\
| =========                 |                                                 |
| \\      /  F ield         | OpenFOAM: The Open Source CFD Toolbox           |
|  \\    /   O peration     | Version:  2412                                  |
|   \\  /    A nd           | Website:  www.openfoam.com                      |
|    \\/     M anipulation  |                                                 |
\*---------------------------------------------------------------------------*/
FoamFile
{
    version     2.0;
    format      ascii;
    arch        "LSB;label=32;scalar=64";
    class       volScalarField;
    location    "0.5";
    object      gradTx;
}
// * * * * * * * * * * * * * * * * * * * * * * * * * * * * * * * * * * * * * //

dimensions      [0 -1 0 1 0 0 0];

internalField   nonuniform List<scalar> 
5712
(
-10794.9
-13352
-24197
-38586.1
-37291.9
-72808.5
-25228.1
-75685
-25649.8
-60240.3
-31596.4
-52641.2
-23917.4
-32396.6
-12941.8
-13401.4
-19573.6
-23097.1
-25668.1
-23987
-17202.1
-25615.6
-25191.8
-25281.2
-7583.44
-5940.21
-10247.9
-7743.19
-17576.7
-12504.9
-31833.2
-23360.2
-26481.3
-27430.6
-28649
-30615.6
-7770.92
-6314.67
-59038.4
-72924.7
-32518.8
-42817.6
-73097.8
-90203.7
-34491.3
-42421.6
-45864.6
-59896.8
-37838.5
-51536.3
-22244.1
-27708
-4934.53
-1626.22
-6270.93
-2249.39
-11195.1
-4709.7
-18565.5
-7021.97
-13262.3
-4460.92
-12504.1
-3671.98
-23733
-7147.26
-30881.3
-10011.3
-35415
-20874.1
-29923.4
-20707.4
-33801.8
-21720.1
-27037.5
-20911.2
-25187.2
-18537.6
-27966.3
-18265.8
-29178.1
-21080
-30315.8
-21546.1
-26694.9
-21008.1
-27909.3
-21353.6
-25727.4
-19266.2
-27625.9
-19892.9
-28341.1
-12459.9
-17660.8
-21185.3
-30653.7
-14626.1
-17768.9
-22498.9
-28287.7
-11456.1
-18252
-20708
-29295.6
-11485.8
-19035.3
-20853.5
-4774.91
-5456.41
-1735.82
-3769.54
-13624.8
-16095.4
-6025.89
-12213
-22105.6
-26067
-11292.1
-20776.7
-19592
-9436.59
-23701.8
-32284.6
-18160.4
-5896.99
-9931.2
-15974.5
-32326.6
-24896.7
-13091.1
-18741.8
-22900.1
-24612.9
-32676.7
-4927.48
-4724.85
-3267.77
-3294.62
-14464.7
-12458.3
-10371
-9847.97
-21385.4
-17455.1
-15623.6
-14558.4
-9460.61
-9863.17
-15301.7
-15698.4
-21389.6
-19088.3
-28212.6
-24023
-23155.1
-21840
-13957.1
-12774.2
-19058.2
-14385.7
-20108
-13955
-20306.4
-13585.4
-25687.2
-18215.6
-15592.5
-5696.86
-13125.2
-10244.6
-15934.8
-15457.9
-16512.2
-18423.4
-12448.8
-9686.22
-15606.1
-4190.19
-13206
-16884.5
-13978
-18496.6
-17086
-23131.5
-17980.9
-24317.3
-12710.2
-16501.5
-13494.9
-18318
-16706
-10078.8
-23297.7
-8973.76
-16907.8
-3430.24
-21657.9
-2678.11
-17647
-14993.7
-24565.3
-11304.9
-16456.9
-17562.3
-22991.2
-14322.4
-3928.59
-3171.62
-2157.75
-2623.55
-2254.93
-1655.5
-10007.4
-6982.87
-4755.04
-7259.12
-4921.8
-3277.16
-12258.3
-8027.45
-5860.39
-10604.8
-6625.66
-4715.97
-7443.36
-4093.87
-2851.7
-13040.5
-6728.19
-3869.39
-14000.7
-7379.07
-3995.58
-17124.7
-10018.3
-6273.65
-16582.2
-8825.43
-4845.61
-13656.1
-8003.51
-5108.69
-11793.7
-6766
-3817.77
-12320.6
-6751.23
-3566.62
-12892.3
-7152.18
-3853.97
-16734.8
-7962.36
-3434.36
-13197.2
-20555.1
-11775.4
-15983.7
-12135.9
-23482.8
-10741.8
-19847.5
22.8834
-1443.77
391.558
-932.924
-3330.82
-6013.99
-2273.17
-3973.9
-2573.92
-4376
-11747.2
-16579.2
-8000.87
-6646.6
-13757.8
-12341.3
-20077.4
-21801.1
26.8038
5445.31
-9292.82
-6589.77
-6620.95
-3697.78
-1404.32
-877.862
-1267.62
-830.787
-3669.42
-1133.09
-2223.57
-625.828
-9405.11
-2491.31
-7640.52
-2364.6
-8427.2
-2413.54
-9278.97
-2725.82
-14307.7
-12565.2
-11112.4
-12164
-23065.6
-19187.1
-18810.6
-17927
-7457.12
-8161.53
-8696.91
-7716.92
-10354.7
-11882.4
-10771.1
-11877.3
-18009.8
-17380
-18686.4
-17431.7
-6578.95
-8108.15
-6276.8
-8075.95
-764.6
-754.993
-5421.57
-2061.84
-927.789
-601.811
-4831.92
-1745.91
-687.081
-637.668
-5602.93
-2227.81
-822.002
-640.793
-5549.52
-2297.07
87.8367
220.572
-375.367
-170.554
512.603
901.216
-578.115
-219.26
-1047.36
-204.951
-1599.08
-1114.93
5384.01
2723.2
2863.72
1818.09
116.323
6064.78
8121.87
3271.81
3115.71
237.343
-10466.8
-7105.93
-4944.08
-4060.52
-1579.94
286.698
210.825
-60.3947
-35.8829
819.702
730.907
-137.22
-71.8577
681.828
807.963
-511.505
-344.438
1616.68
-103.448
5274.29
2691.71
2298.35
1084.84
2075.29
1327.35
159.974
22.4547
-5825.58
-3986.47
-872.538
288.633
-153.49
502.251
-294.78
295.566
15.432
46.7137
-4323.71
-3813.36
-8529.59
-4953.77
-8906.28
-7116.16
-12563.5
-8560.72
-5551.54
-3048.7
-2276.35
-2272.29
-9861.33
-4216.12
-10530.7
-4091.44
-14305.6
-8531.59
-15329.5
-8530.21
-6533.63
-2378.78
-6996.3
-2175.09
-3180.39
-1967.29
-1283.81
-1985.41
-1531.05
-1574.07
-667.491
-1571.83
-3441.63
-1736.72
-1608.28
-2270.46
-4143.06
-1568.36
-2056.15
-2089.93
148.466
105.067
96.102
-27.8255
16.2554
18.587
512.519
374.399
315.24
-36.0142
77.6531
77.9981
646.25
573.835
491.559
-185.507
141.496
159.805
-671.902
8.00329
52.4346
986.679
990.001
796.746
645.424
661.098
574.31
817.611
717.458
611.321
-107.022
188.256
150.467
-4044.51
-1881.68
-930.178
-714.283
-4.42004
245.863
-265.208
202.056
322.221
-148.317
212.305
278.698
-465.433
63.7993
103.765
-77.3919
-17.882
-4.0342
-1.18085
-26.3802
0.419404
9.63649
4.45739
-194.798
-46.6856
-7.30097
-2.01837
-61.9743
0.21676
17.9869
7.8401
-303.848
-79.8531
-17.4352
-1.35813
-199.896
-38.537
-6.03671
1.95226
-116.105
-24.0712
-12.9627
-3.72285
-139.156
-36.6978
-8.49646
-0.950665
-535.944
-151.675
-65.1705
-15.7714
-619.766
-174.361
-94.412
-20.7745
-448.741
-126.707
-51.1341
-4.57894
-512.022
-144.315
-83.7362
-18.7568
-481.181
-138.076
-55.9754
-14.5536
-668.589
-188.071
-99.7037
-22.1359
-470.321
-138.049
-49.2717
-11.7866
-689.035
-194.14
-102.009
-23.5121
-57.2614
-14.9254
-6.47436
-2.54433
-37.3585
-9.89716
-7.57566
-1.7413
-146.125
-39.1366
-14.9704
-4.97965
-75.5063
-19.4071
-16.7291
-4.06094
-368.02
-104.365
-44.0199
-11.8723
-267.836
-74.1332
-39.9933
-5.64094
-200.497
-58.5428
-27.7019
1.87647
-123.693
-33.3773
-26.1314
-2.12281
-437.171
-123.166
-73.6076
-9.9682
0.95215
1.58486
-1.0983
0.527769
32.4902
10.536
2.82737
1.2659
-20.535
-2.00558
-6.88588
0.369636
80.77
26.7747
5.83653
2.93616
-61.654
-12.8493
-13.5823
0.534642
121.553
39.3146
8.49544
4.10689
-58.9377
-12.1986
-16.7052
0.427642
150.302
47.3258
7.9068
3.60995
-116.397
-23.8936
-33.1889
-5.1662
106.803
39.9122
0.0733118
1.35661
-397.795
-84.5664
-66.6431
-13.4665
-114.344
-10.828
-15.966
-3.76975
-248.612
-48.9138
-53.7501
-10.4515
-15.9739
14.9174
-9.22006
-1.51112
-505.82
-116.9
-76.4599
-16.3893
-168.316
-29.8277
-20.3417
-5.35036
-560.327
-138.827
-82.5659
-18.6385
-197.851
-43.8785
-23.1492
-6.31192
-0.302632
0.0276419
0.0335494
0.01462
0.00622233
0.405271
0.191085
0.0762024
0.0265511
0.0103665
-0.988561
0.0343658
0.0696751
0.0307436
0.0130273
1.00842
0.567466
0.218945
0.0740374
0.0283616
-0.744131
0.218316
0.131574
0.0495471
0.0197307
1.91678
0.920083
0.331473
0.108179
0.0406156
0.315152
0.245772
0.0977769
0.0330684
0.0126346
-0.527397
0.00634113
0.030909
0.0138923
0.00590721
-0.453063
0.208532
0.114304
0.0419428
0.0164984
-1.01367
-0.0985743
-0.00277943
0.0028852
0.00170913
1.5954
0.725187
0.249788
0.0795496
0.0294404
-0.38462
0.0582072
0.0399463
0.0150918
0.00598949
-1.88086
-0.223416
-0.0176826
0.00185901
0.0019704
-1.1088
-0.106939
-0.0027435
0.00321277
0.00187175
-2.36137
-0.313653
-0.0338832
-0.00130258
0.00114814
-1.53106
-0.202796
-0.0261056
-0.0030118
-0.000233432
-0.410409
0.00126784
0.0223152
0.0104948
0.00458294
0.0698987
0.073938
0.0322656
0.0116461
0.0046507
-0.704394
0.0593277
0.0614722
0.0256053
0.010682
0.28911
0.198473
0.0796619
0.0276179
0.0107777
-1.00328
0.0919435
0.0816036
0.0325363
0.013258
0.902668
0.35452
0.119246
0.0380995
0.0142336
1.81019
0.625362
0.194705
0.0593502
0.02149
1.3178
0.366662
0.105529
0.0311811
0.0111592
1.29453
0.407521
0.122074
0.0364765
0.0130581
-528.282
-738.154
-1508.43
-2179.05
-2403.48
-3631.73
-2925.09
-4916.65
-2748.83
-4652.44
-2836.56
-4196.77
-2136.86
-2868.18
-3688.04
-5304.89
-3997.4
-5632.46
-1062.38
-257.883
-67.1899
-20.7869
-9.62341
-329.981
-148.509
-16.9947
-6.92287
-3.08954
-3445.66
-841.937
-220.846
-68.9172
-32.2146
-846.081
-206.555
-53.3867
-16.6726
-6.98234
-6021.35
-1484.33
-393.716
-124.818
-59.2882
-1594.96
-448.605
-127.576
-43.7778
-21.2244
-8500.48
-2120.49
-573.421
-186.255
-90.4641
-2363.16
-735.499
-224.167
-80.479
-40.7468
-11673.8
-3019.75
-843.865
-283.447
-141.503
-3363.92
-1175.66
-375.63
-137.803
-71.0339
-15482.5
-4437.96
-1336.3
-478.653
-249.575
-4184.23
-1512.69
-496.57
-186.185
-97.8963
-14193.2
-3913.69
-1138.21
-395.046
-201.666
-3930.9
-1451.57
-475.363
-176.642
-91.8525
-16100.1
-4699.57
-1442.31
-526.389
-277.765
-4338.01
-1512.38
-487.813
-181.435
-95.3503
-16585.9
-4838.49
-1495.99
-551.442
-292.935
-4389.54
-1523.82
-488.042
-173.62
-93.8453
-794.432
-9059.26
-8695.08
-4640.56
4136.76
5733.8
11217
15074
5942.77
12888.9
1075.36
6657.45
5762.46
10401.3
12059.2
17175.4
14429.3
16781.1
8196.18
9435.97
-16084.9
-10892.4
-1132.41
-571.85
-389.794
-564.198
-545.627
-9459.79
-7132.15
-6279.19
-5228.75
-3228.54
-2176.42
-3771.58
-1561.1
-1163.91
-1249.13
-775.57
-15866.6
-6019.68
-997.712
-1958.43
-3923.08
-2206.7
-2109.96
-1361.46
-462.597
-758.71
-924.209
-1139.78
-15685.4
-8517.14
-8298.42
-4513.45
-4005.92
-4773.41
-1327.78
-1290.78
-2006.74
-9535.76
-7813.91
-5461.24
-4056.78
-2630.4
-7088.24
-4695.27
-3266.35
-2170.94
-792.215
-944.068
-727.69
-505.882
-296.43
-97.4064
-485.974
-382.432
-269.898
-159.243
-52.4962
-329.183
-257.103
-180.01
-105.528
-34.6849
-481.781
-381.008
-269.767
-159.34
-52.5469
-459.762
-358.335
-250.706
-147.073
-48.3697
-5634.23
-4191.15
-2794.28
-1967.72
-1493.25
-3546.45
-2437.71
-1444.58
-910.671
-572.817
-4109.35
-2606.32
-1721.24
-1076.54
-404.199
-2680.35
-1758.35
-1054.24
-651.713
-339.862
-1550.18
-957.09
-555.576
-351.447
-162.141
-1632.7
-1141.25
-744.84
-427.139
-142.536
-2588.32
-1701.84
-1099.83
-644.402
-227.434
-1036.32
-652.472
-405.902
-230.617
-79.3093
-908.771
-656.7
-434.829
-248.525
-81.6024
-950.926
-670.394
-435.835
-246.372
-80.6687
-613.549
-448.412
-298.383
-170.224
-55.5909
-9659.62
-6973.71
-4831.24
-3444.56
-2289.76
-4260.7
-2882.2
-1937.52
-1199.37
-437.461
-780.527
-565.73
-377.119
-217.556
-71.8583
-1552.82
-1141.12
-770.721
-449.321
-148.977
-3013.66
-2156.7
-1449.13
-856.545
-288.761
-1761.96
-1301.68
-883.718
-516.684
-170.449
-1714.7
-1285.88
-879.731
-513.772
-168.173
-1116.61
-846.42
-580.927
-338.353
-111.192
-377.309
-284.013
-192.949
-111.14
-36.3128
-631.66
-485.989
-336.35
-196.031
-64.3277
-741.14
-549.269
-370.232
-213.426
-70.0335
-928.214
-698.928
-477.293
-277.338
-91.2043
-9306.52
-7166.92
-5048.19
-3700.43
-2331.67
-5746.68
-3844.76
-2654.09
-1724.15
-638.293
-5994.57
-4244.25
-2854.83
-1834.08
-677.539
-3405.77
-2320.33
-1564.38
-947.505
-293.696
-3134.06
-2252.7
-1521.78
-897.931
-289.807
-3592.5
-2438.82
-1638.68
-989.938
-299.874
-1069.48
-795.583
-540.213
-314.248
-103.278
-1073.51
-825.106
-571.408
-333.683
-109.591
-1621.93
-1211.76
-825.843
-481.399
-158.374
-9216.15
-20509.7
-15776.1
-52904.4
-14255.7
-66087.9
-9886.93
-26262.7
-12698.4
-11437.2
-25663.1
-20481.7
-12095.4
-14429.6
-26812.2
-21924.2
-6027.52
-4246.29
-14124.2
-10292.1
-10438.1
-5665.12
-38630.2
-28238.5
-22132.4
-15004.7
-24317.8
-16277.6
2892.85
-2368.04
-62025.2
-74160.2
-31588.9
-42786.8
-75868.6
-91414.3
-33337.4
-42180.6
-47892.5
-61001.6
-37092.2
-51727.3
-24462
-28649.5
-3496.63
-727.342
-7693.3
-2537.15
-6682.23
-3345.72
-21384.4
-7819.36
-3721.42
-1923.74
-9312.59
-2717.55
-24069.2
-7149.09
-31317.9
-10117.5
-25197.4
-16433.9
-26684.5
-18650.5
-22549.8
-16499.3
-23349.9
-18584
-22985.6
-16976.8
-21031.2
-15081.2
-27945.9
-20175.9
-30060.9
-21309.2
-25171.6
-19969.2
-27511.9
-21073.1
-25046.1
-18583
-27526.9
-19712.5
-27403.5
-12298.2
-16580.4
-20934.5
-26906.7
-13750.2
-15453
-21800.9
-28216.1
-11470.9
-17804.7
-20635.3
-29374.8
-11517.8
-18929.2
-20838.5
-1063.89
-946.604
78.3516
-1649.2
-4198.65
-5589.54
-3339.99
-9021.65
-7078.83
-9841.74
-7655.47
-16640.8
-21189.9
-18545.8
-19624.9
-24764.7
-16605.2
-10964.1
-9185.35
-10974.8
-24240.3
-23398.4
-16614.9
-17936.4
-18998.5
-19738.7
-30808.8
-1486.4
-1780.39
-1239.36
-1575.49
-5757.5
-5120.68
-6813.7
-6456.48
-6790.48
-4583.6
-11223.1
-10119.8
-11562.6
-11134.5
-11596.4
-11145.7
-13878.9
-11368.2
-20088.8
-16627.9
-20652.1
-18627.4
-16027
-13789.9
-16792.9
-12323.5
-15785
-10769.8
-16142.9
-10691.5
-23960.7
-16013.5
-14208.8
-5951.68
-12040.2
-10010
-15681.6
-15890.4
-15686.4
-18223.5
-11383.7
-9472.64
-13885.1
-4387.92
-12515.5
-16608.6
-13729.1
-18385.1
-16435.9
-22870.1
-17725.8
-24192.8
-12092.6
-16285.5
-13282.9
-18231.5
-16018.9
-10010.5
-23193.4
-9071.19
-15600.2
-3883.86
-21425.7
-3496.3
-17289.8
-14878.8
-24503.5
-11281.4
-16328.9
-17515.6
-22965.5
-14317.7
-1957.01
-1617.87
-1409.05
-1670.12
-4277.76
-2925.9
-5193.83
-5144.77
-3084.85
-2608.76
-8551.12
-7806.85
-10802.3
-7961.01
-10637.7
-6925.55
-9120.7
-5464.45
-12869.8
-8914.43
-15452.6
-9820.48
-15251.3
-10747.8
-9555.19
-6074.82
-9030.24
-5137
-9297.38
-5061.61
-12051.9
-4830.03
-5708.35
-10973.5
-5145.93
-11420.2
-8422.33
-13438.6
-10393.2
-16123.1
-1425.64
-1180.26
-1091.92
-968.179
-3953.3
-3745.06
-3417.04
-3163.72
-812.567
-1535.73
-8364.5
-8764.72
-4040.26
-4436.45
-11578.6
-11684.3
-18137.8
-21166.4
956.691
5666.75
-7469.23
-5975.35
-5609.7
-3415.95
-959.273
-825.847
-963.49
-767.587
-2191.3
-1158.71
-1486.21
-651.936
-6263.71
-2431.8
-5953.59
-2203.53
-7338.06
-2260.17
-8844.5
-2645.06
-7204.67
-9534.3
-8292.11
-10480.1
-13444.8
-14502.9
-15305.6
-15697
-5737.01
-7191.57
-4761.69
-6368.62
-8968.69
-11058.2
-10359.1
-11639.9
-16376.9
-16346.7
-18201.3
-17142.5
-5701.12
-7584.54
-5994.7
-7914.8
-261.711
-676.537
-4989.5
-1977.76
-365.482
-661.408
-4449.81
-1707.22
-350.777
-589.042
-5325.68
-2168.99
-684.031
-619.292
-5457.51
-2277.89
-819.577
-865.668
-780.999
-783.611
-2046.65
-2144.41
-1247.77
-1264.39
-5356.56
-5459.5
-2315.03
-2279.63
-4245.91
-10248.1
-2428.19
120.275
-348.758
-3790.95
-728.402
-1771.2
1399.56
-94.8552
-15303.5
-9929.22
-6379.14
-4850.52
-1770.01
-961.668
-925.974
-821.612
-810.57
-2385.46
-2279.48
-1354.8
-1386.32
-5206.78
-5004.8
-2037.44
-2075.07
-5538.8
-6045.46
-1538.68
-3069.19
-2651.18
-3308.23
-358.754
-973.126
-415.89
-654.082
-10864.3
-7335.46
-5304.23
-3252.24
-3142.25
-2009.63
-2174.65
-1275.96
-539.877
-564.002
-5761
-5325.34
-8596.91
-5324.66
-9985.79
-8444.58
-12273.4
-8801.82
-5855.39
-3445.73
-3576.87
-3571.82
-9634.58
-4293.08
-10402.2
-4074.31
-13857.2
-8515.67
-15124.8
-8479.32
-6492.13
-2503.55
-6937.5
-2182.87
-3536.8
-2305.94
-1591.4
-2308.77
-2515.91
-2548.22
-1210.6
-2282.85
-3516.64
-1867.63
-1729
-2402.77
-4135.89
-1590.6
-2078.63
-2115.28
-700.369
-706.657
-525.767
-448.413
-2238.56
-2295.88
-832.022
-571.027
-4648.6
-3643.81
-1112.8
-264.98
-6755.06
-4977.46
-4207.25
-2965.6
-3220.34
-2300.46
-1203.9
-807.302
-540.269
38.015
-6288.19
-4163.23
-3126.09
-1887.95
-2016.78
-1145.17
-1276.67
-700.698
-985.278
-14.48
-106.669
-29.916
-7.89529
-2.34507
-79.2474
-22.9098
1.2656
1.6674
-270.986
-77.875
-16.9401
-4.61304
-173.358
-50.9076
-1.60251
0.198231
-404.952
-122.843
-33.3232
-6.56309
-308.978
-95.6487
-33.1184
-10.697
-171.286
-55.8054
-27.8267
-9.12773
-156.336
-48.7624
-14.4013
-3.21871
-546.058
-167.38
-76.4877
-21.7785
-612.764
-177.066
-99.9804
-22.5471
-521.071
-159.771
-69.1486
-13.9741
-516.452
-150.207
-91.7129
-21.0931
-488.747
-149.589
-62.6434
-16.7702
-664.363
-190.445
-103.872
-24.1479
-473.243
-142.746
-52.0048
-12.8331
-688.12
-195.32
-103.485
-24.1444
-106.395
-28.6249
-10.2317
-3.32217
-104.943
-26.1072
-12.9643
-2.88403
-268.879
-74.3292
-25.2453
-7.32755
-258.815
-65.6604
-31.6068
-7.11944
-475.774
-138.995
-57.5992
-15.0876
-450.258
-124.235
-59.5732
-9.92921
-409.575
-126.103
-53.1353
-6.77039
-309.621
-88.147
-44.8546
-5.76714
-502.922
-146.79
-89.3477
-14.25
-79.209
-18.3786
-6.32929
-0.837635
-50.0387
-11.7526
-2.59678
-0.464834
-210.378
-50.4662
-20.8583
-3.45376
-128.469
-31.2349
-9.11195
-1.84272
-273.359
-71.0829
-32.2497
-5.06492
-148.715
-41.5143
-12.9553
-2.82377
-281.588
-79.8006
-39.307
-6.72293
-140.566
-45.5633
-16.873
-4.28544
-307.114
-84.1495
-55.642
-12.9966
-163.637
-46.1597
-24.0712
-6.56584
-529.664
-133.944
-85.8163
-20.1781
-232.172
-53.9951
-29.51
-8.41315
-439.921
-112.265
-77.8502
-18.7305
-223.946
-52.5236
-29.2426
-8.2658
-568.967
-144.135
-87.5779
-20.3891
-220.057
-51.6917
-27.63
-7.84836
-576.304
-146.708
-85.9665
-19.8882
-210.203
-49.8521
-25.2661
-7.05668
-0.900982
-0.216507
-0.0502659
-0.0124805
-0.00403499
-0.716818
-0.216066
-0.0588692
-0.016676
-0.00596237
-2.34267
-0.492896
-0.108323
-0.0263986
-0.00853197
-2.17554
-0.560449
-0.151782
-0.0443443
-0.0163827
-3.08552
-0.600943
-0.134768
-0.0347618
-0.0119211
-2.91751
-0.722784
-0.200166
-0.060676
-0.0231125
-1.26679
-0.280956
-0.0730773
-0.0214945
-0.00806121
-1.28453
-0.253115
-0.0549997
-0.0139357
-0.00475061
-2.63912
-0.494955
-0.108127
-0.0278424
-0.00963431
-1.31884
-0.189403
-0.0304445
-0.00557344
-0.00139346
-2.27034
-0.501808
-0.134992
-0.0407775
-0.0155875
-1.23017
-0.206147
-0.0417431
-0.0101758
-0.003386
-2.34349
-0.345372
-0.0533432
-0.00887522
-0.00193138
-1.46123
-0.207774
-0.0334174
-0.00627895
-0.00165813
-2.64742
-0.396904
-0.059547
-0.0093183
-0.00184273
-1.59006
-0.213403
-0.0283374
-0.00353081
-0.00037877
-0.840401
-0.179335
-0.0398877
-0.00956845
-0.00298233
-0.452076
-0.114443
-0.0293899
-0.00781979
-0.0026128
-1.83965
-0.375827
-0.083509
-0.0205227
-0.00661099
-0.995007
-0.245698
-0.0630883
-0.0171056
-0.00586147
-2.54525
-0.466371
-0.0994142
-0.024387
-0.00797821
-0.913248
-0.236365
-0.0653796
-0.0191311
-0.00699457
-1.12701
-0.282226
-0.0848585
-0.0272026
-0.0107121
-0.185398
-0.0975648
-0.0362596
-0.0124216
-0.00498495
-0.573027
-0.147753
-0.0472473
-0.0158382
-0.0064123
-206.907
-454.501
-743.176
-1471.6
-1519.94
-2755.94
-2209.54
-4121.62
-2339.5
-4229.08
-2815.12
-4239.57
-2088.06
-3020.16
-3650.03
-5289.93
-3977.35
-5619.56
-1055.12
-259.655
-67.8891
-20.9609
-9.66542
-282.53
-143.08
-15.7195
-6.76392
-3.09229
-3442.25
-850.043
-223.501
-69.5663
-32.3779
-730.103
-188.014
-50.2949
-16.1525
-6.88304
-6029.56
-1498.65
-398.228
-125.928
-59.5735
-1462.48
-427.993
-124.251
-43.2507
-21.1316
-8518.69
-2138.1
-578.924
-187.615
-90.8134
-2265.13
-720.407
-221.764
-80.1116
-40.6858
-11720.7
-3042.43
-850.492
-285.067
-141.923
-3342.9
-1171.9
-375.127
-137.783
-71.0494
-15575.5
-4462.26
-1342.33
-480.05
-249.93
-4202.35
-1516.07
-497.182
-186.312
-97.9231
-14282.2
-3940.5
-1145.32
-396.744
-202.104
-3958.88
-1455.07
-476.019
-176.807
-91.9011
-16165.1
-4716.12
-1446.29
-527.297
-277.989
-4341.5
-1513.56
-488.024
-181.474
-95.3544
-16608.8
-4844.28
-1497.38
-551.758
-293.015
-4388.97
-1523.97
-488.073
-173.612
-93.841
-412.627
-8735.05
-7644.66
-3110.93
-1643.1
-754.145
-3260.77
-2090.14
-6764.78
-7382.53
-4125.37
-3849.82
-12.1765
-24.8229
-55.9169
-116.062
-221.04
-389.032
-10.055
-28.2342
-73.5392
-162.969
-319.35
-565.646
-8.05591
-3.16783
-18.473
-9.82098
-45.6974
-29.2146
-101.164
-77.4604
-194.28
-172.086
-348.358
-329.859
-654.76
-1071.45
-1768.7
-3390.87
-4559.84
-6266.6
-911.237
-1322.78
-1714.54
-2074.82
-2157.45
-2320.54
-10.7027
-8.75733
-6.40577
-3.87477
-1.29353
-21.7547
-17.7368
-12.9266
-7.7964
-2.59858
-48.8398
-39.6571
-28.7839
-17.3055
-5.75822
-100.946
-81.5576
-58.9083
-35.2882
-11.7195
-191.198
-153.493
-110.209
-65.7404
-21.787
-333.964
-265.829
-189.438
-112.447
-37.1808
-8.8224
-7.20275
-5.25668
-3.17402
-1.05859
-24.6891
-20.0745
-14.5907
-8.7818
-2.9238
-64.0815
-51.8888
-37.5614
-22.5384
-7.49193
-141.389
-113.904
-82.0545
-49.0634
-16.28
-275.523
-220.562
-157.975
-94.0857
-31.1594
-484.588
-384.917
-273.853
-162.413
-53.6879
-7.09243
-5.81513
-4.26252
-2.58263
-0.862954
-2.79196
-2.29198
-1.68219
-1.02029
-0.341122
-16.2238
-13.2613
-9.68976
-5.85599
-1.95395
-8.63833
-7.07371
-5.17821
-3.13406
-1.04658
-40.0064
-32.5743
-23.7073
-14.2828
-4.75762
-25.6165
-20.8962
-15.2364
-9.19253
-3.0644
-88.1817
-71.4243
-51.7121
-31.0307
-10.3145
-67.6028
-54.8329
-39.7521
-23.8764
-7.94019
-168.357
-135.425
-97.4049
-58.169
-19.2878
-149.295
-120.236
-86.5645
-51.7232
-17.1542
-299.183
-238.217
-169.775
-100.763
-33.3102
-283.74
-226.263
-161.4
-95.8089
-31.6711
-556.052
-437.494
-308.868
-182.375
-60.1716
-895.353
-692.88
-483.531
-284.157
-93.6223
-1442.65
-1090.48
-751.031
-440.658
-145.3
-2672.12
-1956.9
-1332.83
-787.971
-260.953
-3382.2
-2388.37
-1623.41
-988.394
-341.347
-4463.41
-3082.12
-2100.04
-1308.16
-457.304
-773.75
-608.836
-429.93
-253.935
-83.8146
-1110.45
-863.751
-604.969
-356.1
-117.449
-1417.3
-1086.33
-754.127
-443.057
-146.234
-1675.47
-1257.48
-864.334
-508.662
-168.495
-1676.53
-1223.16
-833.971
-496.517
-167.261
-1740.32
-1238.2
-840.168
-507.237
-172.986
-12.322
-25.4017
-57.4028
-119.326
-227.388
-399.773
-10.2263
-28.9146
-75.2292
-166.426
-325.237
-573.976
-8.17688
-3.23813
-19.0264
-10.197
-47.4287
-30.6489
-105.795
-82.4437
-204.832
-189.572
-366.904
-380.038
-671.701
-1096.27
-1800.75
-3406.89
-4552.54
-6255.18
-921.069
-1332.33
-1721.96
-2076.04
-2153.21
-2317.07
-10.8341
-8.86854
-6.4901
-3.92735
-1.3114
-22.2769
-18.1785
-13.2613
-8.00498
-2.66939
-50.1805
-40.7909
-29.643
-17.8408
-5.93997
-103.893
-84.0511
-60.7994
-36.4673
-12.12
-196.941
-158.366
-113.913
-68.0553
-22.5743
-343.742
-274.181
-195.831
-116.464
-38.5512
-8.97701
-7.33372
-5.3561
-3.23604
-1.07965
-25.3044
-20.5964
-14.9873
-9.02948
-3.008
-65.6132
-53.1907
-38.5532
-23.1589
-7.7031
-144.534
-116.589
-84.1083
-50.3527
-16.7196
-280.918
-225.205
-161.555
-96.3475
-31.9335
-492.325
-391.673
-279.135
-165.786
-54.8489
-7.2015
-5.90708
-4.33199
-2.62581
-0.877598
-2.85508
-2.34504
-1.72215
-1.04505
-0.349497
-16.721
-13.6797
-10.0052
-6.0517
-2.02023
-8.97532
-7.35636
-5.39059
-3.26546
-1.09102
-41.5591
-33.8777
-24.6877
-14.8899
-4.96305
-26.8989
-21.9687
-16.0399
-9.68855
-3.23195
-92.3271
-74.8973
-54.3191
-32.6427
-10.8595
-72.046
-58.5373
-42.519
-25.5808
-8.51528
-177.79
-143.313
-103.316
-61.82
-20.5215
-164.787
-133.053
-96.0652
-57.5417
-19.1113
-315.842
-252.219
-180.324
-107.309
-35.5295
-327.973
-262.635
-188.206
-112.161
-37.1617
-571.637
-450.96
-319.291
-188.983
-62.4372
-918.64
-713.392
-499.687
-294.546
-97.2124
-1473.98
-1119.08
-774.259
-455.962
-150.656
-2693.37
-1980.51
-1354.76
-803.855
-266.731
-3384.61
-2397.1
-1634.7
-998.309
-345.558
-4458.14
-3081.35
-2102
-1311.03
-458.776
-783.101
-617.206
-436.622
-258.282
-85.3244
-1119.94
-872.609
-612.3
-360.982
-119.167
-1425.37
-1094.42
-761.187
-447.935
-147.983
-1678.72
-1262.1
-869.182
-512.396
-169.9
-1674.95
-1223.64
-835.613
-498.272
-168.044
-1738.29
-1237.36
-840.138
-507.582
-173.201
-16029.3
-10863.8
-1179.28
-610.374
-514.71
-658.973
-630.587
-9836.28
-9118.58
-7128.73
-7779.58
-2824.7
-5528.37
-1801.43
-1979.59
-1232.09
-16033.5
-6399.29
-1262.47
-2169.15
-4109.85
-2306.38
-2213.96
-1492.13
-633.695
-955.931
-1213.41
-1302.52
-15535.9
-8483.07
-8386.54
-4557.82
-4083.94
-4878.63
-1470.93
-1428.49
-2126.58
-9502.79
-7792.59
-5454.52
-4062.6
-2641.43
-7074.56
-4691.4
-3268.64
-2176.45
-795.538
-987.685
-765.749
-535.619
-315.452
-103.966
-520.619
-411.586
-291.894
-172.918
-57.1371
-438.445
-346.188
-245.258
-145.237
-48.023
-565.473
-449.987
-320.761
-190.547
-63.0487
-535.179
-420.868
-297.246
-175.741
-58.0605
-6276.29
-4877.04
-3425.84
-2475.49
-1833.44
-5551.54
-4368.28
-3045.13
-2110.79
-1281.85
-4992.59
-3381.55
-2354.48
-1523.92
-582.645
-4970.2
-3693.75
-2543.32
-1750.99
-913.696
-2223.35
-1632.64
-1118.92
-668.715
-229.499
-4111.91
-2881.02
-1972.84
-1216.28
-446.882
-1460.77
-1100.05
-758.507
-448.224
-150.219
-1598.71
-1199.42
-825.722
-488.322
-164.027
-1009.07
-766.643
-530.448
-312.804
-104.272
-10029.1
-7396.09
-5240.33
-3781.22
-2500.93
-4653.6
-3241.82
-2233.82
-1404.42
-515.785
-1017.67
-762.513
-525.033
-310.832
-104.328
-1748.27
-1309.83
-901.831
-533.765
-178.559
-3204.85
-2334.77
-1597.11
-957.626
-325.788
-1858.96
-1389.26
-954.469
-563.548
-187.078
-1812.77
-1372.3
-947.874
-557.775
-183.431
-1236.55
-949.392
-660.288
-388.768
-128.582
-528.086
-407.834
-284.614
-167.727
-55.5623
-805.166
-628.408
-441.512
-260.575
-86.1409
-996.475
-759.068
-525.972
-310.119
-103.152
-1075.68
-823.706
-572.308
-337.286
-111.852
-9238.81
-7143.52
-5061.8
-3739.87
-2381.21
-5745.11
-3861.2
-2678.82
-1748.7
-650.259
-6149.1
-4415.47
-3020.12
-1964.23
-733.733
-3466
-2385.84
-1624.23
-991.12
-308.556
-3219.84
-2336.46
-1593.88
-948.067
-307.826
-3713.84
-2556.95
-1740.97
-1062.05
-325.508
-1200.95
-908.394
-627.091
-369.423
-122.307
-1197.57
-929.669
-650.544
-383.146
-126.464
-1734.92
-1311.18
-904.335
-532.366
-176.214
-127.204
-370.504
-619.85
-905.451
-1235.86
-1573.64
-3305.5
-8299.42
-7335.36
-3124.5
-9639.67
-9872.92
-9351.12
-12990.5
-1986.1
-142.053
-3839.38
2316.3
-13903.5
-13413.5
3351.62
-2320.67
-6291.42
-5624.56
-2281.17
-7056.56
-4751.99
-7036.62
-7195.25
-877.469
1680.64
-1678.37
5845.74
-8891.24
-7398.91
6367.67
-1271.3
-3783.76
-3583.2
-1369.68
-3778.46
-557.407
-4458.7
-4046.34
-131.978
1767.18
378.605
5564.52
-4317.71
-608.619
6762.86
-682.319
-2232.98
-2309.52
-834.296
-1360.6
1540.73
-2964.91
-2796.81
175.574
1053.48
907.339
4007.26
-2383.82
2213.02
5851.55
-477.341
-1790.7
-1839.73
-622.737
-847.909
1288.97
-2712.46
-3441.2
265.132
506.714
954.637
2635.33
-2325.83
1754.4
3039.45
-407.94
-1611.83
-1590.34
-526.834
-1333.74
7.6372
-2398.59
-3264.24
273.951
767.063
613.253
2242.88
-3525.73
-279.813
1284.08
-1272.04
-2960.44
-4765.49
-2003.25
-6055.63
-10991.2
-7632.69
-13484.8
-1291.71
-982.641
-4217.12
-3013.67
-1707.59
-7922.22
-3162.39
-1161.85
-2699.82
-3992.57
-1622.49
-5370.54
-8678.1
-6404.9
-8909.25
-1244.44
-766.357
-3790.81
-2517.9
-871.094
-6676.89
-2705.62
-930.375
-2165.07
-2868.96
-1130.25
-4204.65
-6421.86
-4630.61
-6592.33
-899.668
-899.027
-2821.63
-2716.71
-883.216
-5064.48
-2743.74
-750.829
-1921.39
-2101.03
-788.028
-3569.93
-5058.39
-3708.48
-5276.43
-763.276
-980.565
-2374.65
-2875.95
-949.64
-4572.17
-2816.16
-625.849
-1597.64
-1717.53
-620.685
-2870.9
-4591.53
-3191.03
-5164.4
-692.255
-1149.12
-2144.34
-3256.18
-1425.05
-4633.71
-3302.94
-552.305
-1400.67
-1488.34
-531.672
-2701.62
-4446.09
-2773.21
-4714.28
-712.712
-1315.49
-2190.81
-3422.26
-2137.94
-4909.87
-3499.77
9892.81
12132
24198.5
38524.6
37300.8
72789.9
25233.4
75681.1
25657.4
60236.2
31619.9
52638.5
23969.6
32385.6
11139.5
11512.9
19577.8
23097.7
25662.8
23985.1
17205.5
25617.1
25192
25281.5
6990.87
5497
9398.97
7105.9
17584.5
12499.4
31783.5
23319.4
26461.1
27428.1
28640.8
30611
7765.12
6292.47
59040.6
72927
32518.8
42818.4
73098.9
90205
34491.8
42422.1
45866.5
59899.6
37837.3
51537.6
22248.4
27711
4622.46
1537.51
5784.56
2086.35
11171.4
4711.43
18528.1
7013.54
13249.7
4456.94
12487.3
3666.7
23733.5
7147.16
30883.6
10012
35413.6
20873.3
29922
20706.7
33801.9
21720
27037.3
20911
25184.7
18536.4
27963.6
18264.2
29177.5
21079.5
30315.7
21545.8
26694.9
21007.9
27909.3
21353.4
25726.7
19265.5
27626
19892.5
28336.7
12458.7
17659.2
21184.7
30647.5
14624.4
17766.4
22497.9
28286.8
11455.9
18251.2
20707.8
29296
11486
19034.9
20853.5
4478.02
5098.54
1640.12
3519.73
13577
16016.4
6023.65
12173.6
22084.6
26040.1
11285.6
20764.7
19590.6
9436.16
23699.1
32275.4
18158.2
5896.6
9930.36
15972.5
32316
24893.8
13090.9
18740.9
22897.7
24608.1
32674.5
4540.29
4364.26
2967.08
3047.18
14453.6
12418.9
10408.9
9854.04
21375.6
17443.8
15629.6
14562
9460.24
9862.85
15300.8
15697.7
21387.6
19086.9
28207.4
24019
23157.3
21842.9
13956.6
12773.9
19057.2
14385.1
20106.2
13954.2
20304
13584.5
25687.9
18217
15591.8
5696.58
13124.6
10244.4
15934.4
15457.5
16511.8
18423
12448
9686.01
15605.1
4189.9
13205.6
16884.2
13977.7
18496.3
17085.7
23131.1
17980.6
24316.9
12709.7
16501.4
13494.6
18318
16705.4
10078.7
23297.8
8974.01
16906.7
3430.1
21658.1
2678.56
17646.7
14993.7
24565.5
11305.1
16456.7
17562.4
22991.4
14322.6
3582.69
2890.32
1971.72
2434.14
2095.41
1543.11
9995.96
6973.06
4752.57
7262.98
4923.43
3279.92
12253.6
8024.82
5859.89
10606.8
6626.69
4717.42
7443.16
4093.78
2851.65
13040
6727.99
3869.32
14000
7378.76
3995.5
17122.7
10017.3
6273.41
16583.8
8826.07
4846.22
13655.7
8003.35
5108.6
11793.4
6765.85
3817.71
12320.3
6751.09
3566.58
12892
7152
3853.93
16735.5
7962.64
3434.58
13205.7
20558.1
11786.9
15986.4
12140.7
23485.3
10746.8
19849.3
14.9151
1340.1
-325.12
862.793
3290.1
5999.41
2228.15
3961.74
2563.97
4367.52
11744.3
16575.5
7993.53
6638.81
13758.6
12341.8
20078.2
21801.6
-27.9878
-5445.58
9291.84
6589.76
6620.07
3697.63
1281.31
813.709
1154.37
764.542
3672.74
1128.1
2223.62
623.393
9402.79
2489.04
7637.85
2362.71
8426.14
2412.86
9278.82
2725.62
14308.4
12565.4
11112.9
12164.1
23066.6
19187.4
18811.1
17927.1
7456.48
8161.25
8695.96
7716.56
10354.9
11882.4
10771.5
11877.4
18010.1
17380
18686.6
17431.7
6578.72
8108.03
6276.9
8076.01
763.286
754.164
5421.11
2061.43
926.285
600.641
4831.37
1745.37
686.382
637.209
5602.68
2227.55
821.852
640.597
5549.5
2296.96
-83.6532
-205.106
351.823
160.632
-509.32
-897.766
573.88
215.527
1047.49
205.652
1596.93
1113.43
-5384.02
-2723.16
-2863.91
-1818.47
-117.322
-6064.74
-8121.83
-3271.8
-3115.5
-238.033
10466.8
7105.9
4943.77
4060.05
1579.23
-271.113
-196.213
50.8052
28.6624
-814.415
-728.584
139.183
73.4514
-680.202
-806.633
511.834
345.177
-1616.65
103.444
-5274.18
-2691.61
-2298.29
-1084.72
-2074.77
-1326.75
-160.148
-22.2927
5825.48
3986.36
872.516
-288.626
153.408
-502.224
294.734
-295.48
-15.6787
-46.7432
4323.65
3813.25
8529.45
4953.64
8906.21
7115.99
12563.3
8560.54
5551.32
3048.55
2276.17
2272.18
9861.19
4216.02
10530.7
4091.41
14305.4
8531.43
15329.4
8530.1
6533.45
2378.68
6996.25
2175.07
3180.1
1967.12
1283.49
1985.18
1530.8
1573.93
667.171
1571.63
3441.43
1736.6
1608.05
2270.27
4142.99
1568.32
2056.04
2089.83
-140.77
-98.8213
-90.0181
20.9348
-17.6526
-18.821
-509.09
-372.531
-314.241
38.5892
-76.4172
-77.4069