/*--------------------------------*- C++ -*----------------------------------*\
| =========                 |                                                 |
| \\      /  F ield         | OpenFOAM: The Open Source CFD Toolbox           |
|  \\    /   O peration     | Version:  2412                                  |
|   \\  /    A nd           | Website:  www.openfoam.com                      |
|    \\/     M anipulation  |                                                 |
\*---------------------------------------------------------------------------*/
FoamFile
{
    version     2.0;
    format      ascii;
    arch        "LSB;label=32;scalar=64";
    class       volScalarField;
    location    "0.5";
    object      gradTy;
}
// * * * * * * * * * * * * * * * * * * * * * * * * * * * * * * * * * * * * * //

dimensions      [0 -1 0 1 0 0 0];

internalField   nonuniform List<scalar> 
5712
(
16457.8
9046.59
28072.2
18645.1
27120.2
23479.6
38350.1
49085.3
59032
76825.1
31994.5
28627.4
19634
13773.2
13247.7
7564.61
25427.6
20475.1
23600.2
21696.5
28653.9
25561.6
34449.4
27626.4
9347.04
6176.74
4938.43
3449.88
13113.4
8106.51
7344.88
4863.11
28980.2
29403.2
24018.2
17183.9
18900.4
15742.1
16228.7
15689.6
20616.9
20755
45692.2
50907.3
30432.5
32927
25876.3
20467.6
24303
16557.5
10498.6
9350.93
8914.36
15814.7
4499.87
6895.36
11666.7
20666.4
7558.74
11430.1
11409.3
24353.3
8965.94
16686.4
2563.25
11023.3
247.591
7842.66
19049.8
23103.4
21478.1
23647.6
23100
22494.4
25068.7
22881.8
21086.1
25648.8
19977.9
24762.5
22173.4
23966.9
22031.7
24096.4
26123.9
23142.4
26624.4
23280
20184.5
26001.1
18474.7
26090.4
25725.7
30528.1
32255.2
51032.8
27079.5
36354.7
32156.4
57227.8
24302.5
26584.8
32034.6
47827.3
23409.8
24251.5
32061.2
46432.5
8530.62
11341
23726.2
41054.2
9846.61
11488.9
28453.4
44590.3
11104.5
11656.1
33732.4
47910.9
27824.7
26062.1
27592.1
28570.1
45663
26100.4
25769.7
27030.5
25473
53652.1
23679.3
24440.1
23622
29535.2
66999.2
2597.48
3400.86
7705.71
17507.4
3580.88
5082.42
9659.85
19200.7
5085.18
4746.75
12324.6
21259.7
23787.2
20888.3
22175
18504
22097.9
16937.4
17688.7
13936.9
16363.5
25813.3
21127.9
16894.5
21627.1
17935.7
20814.5
17004.3
20999.2
16663.6
18805.3
26677.2
23069
23322.2
24157.6
25394
21110.5
18448
21858.4
20001.5
23585.4
22912.5
23266.1
21973.5
24660.3
26089.5
24689
26093.3
22404.8
21056
22381.6
21126.5
23186.7
22579
23640.3
22886.9
22991.3
21905.2
16955.5
20669.7
23425.1
21651
17780.4
22030.1
22092.1
21352.6
16604.9
20349.3
22168.8
21022.1
16302.3
19717.4
2444.75
1598.41
963.766
1160.08
758.893
688.776
3836.84
2015.07
1232.36
2802.54
2041.25
1371.88
3538.26
2425.15
2035.75
5055.6
3414.44
2483
16075.9
10409.5
7309.63
14768.7
10259.5
7571.41
11143.7
7965.18
6208.28
9490.02
6744.52
5174.94
8300.75
4457.68
2685.75
12711.7
8528.47
6139.69
13957.9
9423.96
6958.74
11582.3
7334.55
5301.92
9687.78
6172.2
4493.1
7973.2
4160.95
2479.94
30537.1
30189.7
33648.1
29451.9
31642.4
29794.1
39355.5
31755.6
18060.7
18271.9
18343.8
16780.5
24327.7
19772.2
24437.9
17910
26606.2
26883.1
22422.1
24343.9
27352.2
24966.6
31441.3
33272.1
35049.4
38426.8
25879.1
27058.5
22356.8
22420.3
24479.7
23876.9
14365.7
7518.93
13718
8377.38
14142.1
7363.67
13379.6
8078.46
13088.2
6733.42
12673.5
7652.66
12569.1
7936.89
12099.7
7850.82
21460.2
15242.7
21865
15983.5
24957.8
20703.2
26232.7
21199.3
19283.6
11619.7
19330.5
10808.9
22903.5
16426.1
23890.2
16573.2
27722.2
21606.8
28716.6
21793.2
19160.3
12003.5
19213.3
12089.8
10382.7
6353.32
8146.32
4860.37
9228.4
5583.7
7361.8
4378.8
10787.5
6758.96
8504.59
5112.81
10905.2
6970.81
8584.14
5209.81
2105.42
1018.39
3723.57
2063.59
2147.17
1146.31
3742.17
2238.7
2268.92
1491.84
3650.49
2521.86
10143.9
18868.8
6339.03
5670.56
3974.82
18950.5
10919
5504.28
4842.25
3006.84
18529.1
12309.6
8445.02
5847.67
3637.4
577.309
404.137
1334.08
1026.75
718.146
438.115
1572.35
1202.05
1019.59
666.761
1882.61
1463.71
18288.1
15065.9
10297.1
7861.8
5733.96
4418.66
4183.33
3119.46
2590.99
2031.88
15952.3
11861.5
10490.9
7513.9
7155.37
5196.53
4740.25
3484.49
3132.96
2701.77
10281.6
6643.19
10747
6454.71
14552.9
9437.27
15342.9
9735.24
7904.82
4988.59
7642.08
5172.6
11429.1
6293.33
11678.8
6469.01
16527.1
10299.2
16699.1
10527
8093.91
4789.41
8294.5
5037.99
5237.56
3613.87
3461.33
3399.59
5214.88
3695.43
3509.8
3280.57
5251.8
3553.82
3378.9
3532.97
5532.77
3648.57
3516.03
3499.32
466.007
275.612
165.089
1616.93
620.879
370.587
436.626
302.23
194.724
1773.17
739.637
458.552
603.241
455.767
338.468
1992.7
942.517
622.153
10336.1
6658.11
4723.19
5412.95
3490.48
2513.27
3231.86
2084.16
1519
2302.69
1447.51
1037.79
2464.71
1281.77
852.594
7742.61
4862.95
3341.51
4790.43
2953.27
2026.44
3452.68
2072.74
1376.92
2640.59
1563.49
1042.89
3328.77
1608.98
1062.26
3195.16
1259.33
507.176
203.161
3609.14
1381.5
538.832
215.198
3072.16
1230.68
502.869
203.674
3542.15
1373.97
548.792
223.56
2860.05
1185.97
517.472
212.698
3379.38
1364.46
580.255
239.66
3498.06
1401.81
553.914
224.807
3521.33
1423.97
548.55
218.419
2972.4
1241.13
543.01
222.944
2412.78
1064.72
487.904
193.557
2593.93
1115.01
516.597
213.839
2198.83
989.887
466.538
185.532
3173.27
1316.54
549.166
222.337
2536.47
1114.34
497.329
195.222
3256.16
1355.91
554.232
222.624
2588.41
1142.16
506.577
198.905
2351.48
1053.56
463.455
187.983
1617.48
833.682
408.344
163.346
2269.46
1031.13
462.417
188.002
1610.5
830.309
407.861
163.219
2152.86
997.994
467.118
189.774
1646.93
841.516
412.075
163.332
2040.88
949.986
457.138
186.243
1668.3
844.938
423.322
167.011
1924.16
907.824
436.16
173.884
1031.19
656.311
313.403
81.4382
562.605
571.588
275.959
70.8026
1092.68
677.705
321.989
85.5571
632.969
594.94
283.151
72.6881
1198.49
712.305
329.29
85.6481
752.79
635.302
291.835
74.1387
1372.23
760.228
346.935
92.5905
928.375
692.101
307.766
78.5041
1645.26
829.993
375.409
104.919
1179.95
755.749
323.813
82.3051
1897.51
918.42
392.98
102.875
1348.85
842.426
354.583
87.7642
1837.51
882.297
382.594
102.303
1319.36
811.084
339.663
84.9703
1912.22
937.752
392.163
97.885
1354.51
861.907
359.991
87.3412
1890.11
952.714
398.982
98.7862
1396.34
877.867
366.54
88.3857
78.0933
30.7953
11.6261
4.06328
0.972776
81.5261
31.4472
11.7456
4.08611
0.976546
79.0579
30.9666
11.6909
4.08721
0.978544
83.0466
31.7307
11.844
4.12019
0.984523
78.7286
31.0076
11.7521
4.11341
0.984992
83.0532
32.1235
12.0111
4.17675
0.997419
86.1017
33.1113
12.3243
4.27004
1.01758
86.6373
33.7932
12.5823
4.35162
1.03564
81.7314
31.938
12.0395
4.19902
1.00353
76.2839
31.2785
11.9562
4.18908
1.00263
77.1679
31.1034
11.8336
4.14425
0.992252
74.0134
30.832
11.84
4.15706
0.995929
83.8528
32.6723
12.2536
4.25973
1.01635
77.5581
31.8916
12.1505
4.24605
1.01481
84.7521
33.3933
12.5276
4.34731
1.03585
78.4896
32.5627
12.4119
4.33074
1.03376
72.6174
29.8361
11.462
4.03356
0.96805
66.8087
29.0759
11.3458
4.01364
0.964975
72.7522
29.9293
11.5065
4.05064
0.972214
67.2155
29.2102
11.3929
4.02967
0.96873
72.523
30.0192
11.5686
4.0747
0.977982
67.9995
29.4305
11.4687
4.05448
0.974385
72.2144
30.2298
11.6646
4.10663
0.985179
69.5728
29.8941
11.5941
4.0894
0.981761
71.6662
30.503
11.7534
4.13288
0.990831
18118.4
28145.9
18605.3
28232.2
19403.6
28366.7
20347.9
29245.3
21078.8
31048.8
18041.2
21961.2
19023.5
24356
17711.2
21310.7
17511.8
21115.5
15249.2
2818.41
658.522
162.62
31.8732
17973.2
5190.23
1344.08
335.48
65.5895
15346.1
2743.22
630.933
154.886
30.3118
18007.2
5144.52
1318.48
326.093
63.9526
15514.4
2681.14
604.397
147.273
28.8027
18127.8
5095.36
1288.87
316.877
62.132
15681.5
2593.2
573.773
139.539
27.4046
18295.5
5035.98
1262.82
310.653
61.2007
15640.3
2500.46
554.564
136.86
27.2574
18286
4960.98
1252.91
312.677
62.4323
14386.8
2774.53
694.152
184.962
38.5944
15790.1
4937.67
1370.23
367.749
77.1428
14956.6
2670.3
631.691
161.979
33.0063
16795.7
4960.49
1313.29
339.167
69.3176
14087.5
2847.74
736.98
201.485
42.7697
15390.6
4932.83
1406.57
387.228
82.816
13964.2
2801.23
729.913
201.705
43.2005
15226.4
4884.14
1406.18
391.137
84.4076
41307.6
61658.5
54475.4
38171.4
19883.8
21190.8
31966.2
32802.4
22569.7
24852.6
37470.6
51978.1
56472.2
79230.8
28056.3
31648.4
21899.1
21833.2
14836.7
15494.5
3016.25
1778.09
102.461
54.1027
64.224
49.2902
83.5269
2543.02
2028.22
1131.67
1229.48
818.208
321.224
597.565
356.232
198.659
235.612
160.765
2319.74
875.276
295.651
271.416
453.42
352.976
214.968
186.71
111.124
97.0243
174.779
170.121
2566.02
1258.58
1386.22
714.822
483.415
907.616
214.614
107.906
257.629
5779.24
4931.28
3980.2
3794.84
5396.91
3591.33
3316.25
2814.17
2641.82
2704.83
248.952
308.921
324.951
320.971
314.854
133.418
169.808
183.063
183.892
181.805
158.332
201.346
216.64
216.994
214.064
121.974
156.12
169.138
170.388
168.628
204.317
256.407
272.442
270.65
266.044
5162.4
4680.58
3680.44
3276.77
4567.2
3968.03
3446.4
2726.1
2365.3
2517.68
2372.67
2292.79
1948.88
1747.22
1714.64
2387.58
2118.99
1691.07
1433.86
1400.86
1588.71
1433.65
1148.55
965.303
916.729
729.318
810.444
772.237
716.042
685.852
1289.94
1318.02
1172.39
1052.11
1006.11
786.466
835.306
765.916
692.066
654.832
464.984
542.98
539.514
511.505
492.257
541.708
614.69
595.703
555.684
531.106
380.529
452.48
456.56
436.44
420.842
4755.99
4391.09
3529.48
3233.7
4562.07
1903.7
1953.3
1742.44
1599.41
1564.83
683.451
780.758
761.303
717.029
691.301
633.171
733.912
724.982
688.848
666.463
1027.4
1133.43
1074
1003.35
971.734
819.887
940.486
919.488
871.039
842.506
510.51
608.599
616.457
595.34
578.92
445.125
534.587
544.733
526.623
511.816
268.963
331.685
346.235
338.985
330.559
236.199
294.064
309.882
305.707
299.344
414.563
494.396
500.545
480.804
465.507
405.695
487.89
497.798
481.076
467.238
5066.18
4486.91
3626.97
3429.23
4869.9
2635.05
2573.23
2258.43
2113.95
2128.81
3163.13
3219.18
2688.6
2506.21
2583.34
1605.09
1726.92
1600.47
1501.13
1460.9
1111.83
1247.89
1195.32
1126.17
1088.7
2022.67
2106.06
1871.12
1732.79
1671.46
509.334
606.727
613.846
591.689
574.755
261.628
323.47
338.815
333.29
326.157
605.019
708.302
705.443
673.599
652.414
24279.2
16357.5
25460.3
19959.5
29355.7
45190.1
32001.8
47747.5
26237.8
24220.5
23776
23284.9
25807.9
24373.6
34112.7
27211.4
19985.4
19382.2
8916.23
7691.63
23083.9
19935.9
12270.1
8692.79
30773.4
33178.3
26400.5
22307.5
29737
19592
16586.4
15908.4
21476.4
21062.4
46724.4
51447.5
30581.6
33091.1
27359.4
20878.1
26046.9
16969.2
11630.3
9604.37
22201.6
27787.3
8846.47
11196
23358.8
30825.8
11710
15541
19691.7
31075.5
12088.7
20009.4
3134.71
12269.4
295.656
8099.86
21675.9
22838.7
22292.1
23649.1
22719.8
21581
24774.1
22429.1
22984.9
26157.6
24756.1
25285.7
22589.3
24014.2
22144.1
24116.7
26061.9
22940.9
26628.7
23218.3
21008.2
26325.7
18675.2
26201.7
27369.1
32816
33275.8
52434.3
29575.2
40153.5
33599.8
59322.5
25160.5
27733.3
32631
48642.9
23658.5
24579.1
32264.3
46711.2
30261.4
34121.2
41697
60316.2
28379
30046.1
42867.7
59665.7
23985.8
24098.2
43083.6
56987.4
21708.9
20741.9
25617.9
30051.2
50390.6
20238.7
19559.6
26365
26913.1
58688.6
20022.3
21308.8
22741.9
31141.5
69784.1
17792.7
15602.3
16136.8
21854.6
17207.8
15416
16494.3
22537.6
15635.3
13116
16467.5
22721.2
18651.3
16380.2
18041.1
15671.7
22382.2
18544.7
19405.3
15859.6
18246.1
25642.1
18420
15547.1
19506.3
17220.3
20318
17238.3
22061.8
17569.6
19453.4
25776.2
22214.1
22649.3
23798.4
24990.9
19932.8
17696.3
21275.7
19558.1
23626.5
22814.7
23122.9
21798.4
24523
25899.6
24653.9
26037
22143.2
20836.2
22306.2
21059.6
23241.2
22540.3
23657.6
22874
23318.6
22036.2
17284.1
20860
23915
21857.6
18304.4
22156.2
22281.1
21438.5
16792.6
20488.3
22241.4
21056.8
16375.3
19771.4
13892.4
14910
5561.65
5587.09
13547
13105.8
6594.99
6719.12
10515.8
9527.79
7501.33
6947.58
14159
11972.7
14296
12741.4
14315.2
12519.1
12235.3
10203.6
9806.35
6815.41
13379
11399.1
15519.4
13182.2
13497.3
10904.1
11708.1
9267.82
8275.8
5430.28
24294.2
23127.3
31161.3
26221
28065.5
25622.6
39934
30410.8
18840.1
13391.1
21463.9
15113.6
19441.5
13472.6
22239.9
15189.7
22636.8
19465.9
19291.7
17563.3
18522.3
20977.6
29856.7
32802
34520.1
38300.5
24032
26533.9
20715.3
21950.9
22375.1
23234.5
10052.8
7002.28
11362
7503.86
9838.77
6839.97
11183.7
7314.01
9429.96
6313.68
10818.5
7034.66
11496.5
7476.84
11743.8
7683.8
17099.5
14057.7
19805.5
15123.4
21890.7
19050.2
24868.8
20267.6
16967
11015.5
14840.9
10230.8
21862.5
15937.6
23583.5
16412.9
27107.1
21137.8
28548.3
21648.4
17954.3
11611.1
18842
11953.2
9562.88
6108.65
7863.53
4839.13
8428.56
5617.52
7307.85
4579.89
10267.7
6536.46
8270.1
5046.56
10737
6886.75
8495.37
5178.84
8030.87
7593.96
6098.54
5523.15
7667.23
7406.69
5867.38
5324.46
7166.35
6895.17
5291.93
4786.19
13714.9
18800.4
11232
7149.6
5010.73
18111.2
14517.3
11820.1
6928.23
4554.52
17819.3
13204.3
9610.81
6913.33
4375.03
7566.24
7356.12
5318.7
5099.67
7241.13
6760.81
5048.21
4767.49
6543.66
5845.09
4380.42
3927.13
16456.9
13421.8
12000.1
9514.53
9780.54
8367.2
6414.01
5528.62
4225.52
3713.3
14960.2
11250.1
10944.7
7900.7
8238.8
6211.22
5930.97
4650.34
3937.19
3549.33
10048.5
6669.58
10472
6399.95
13827.1
9127.36
14872.9
9530.93
7793.82
5025.06
7747.9
5432.52
11228.7
6229.84
11607.6
6443.71
16266
10178.3
16616.3
10487.8
7965.7
4756.63
8242
5019.43
5250.21
3703.55
3541.71
3540.73
5508.7
4058.16
3826.6
3699.58
5197.47
3550.1
3383.07
3565.71
5505.97
3640.7
3511.11
3502.18
7611.43
7218.62
7178.23
6004.42
6753.46
6336.02
6667.38
5562.08
5580.97
5108.24
5622.04
4667.63
10586.2
8848.28
7723.07
6521.43
7133.72
6209.25
4815
3979.98
5248.7
4253.29
7970.21
6670.11
5578.53
4723.45
4685.65
3947.47
4001.21
3272.9
5284.3
3967.25
3446.5
1421.84
576.732
232.642
3618.91
1478.21
592.498
240.71
3298.97
1381.39
566.19
230.766
3536.23
1452.96
593.917
245.962
3056.4
1319.51
574.207
237.2
3363.66
1422.61
616.315
258.238
3451.73
1428.11
574.91
235.88
3498.55
1430.94
555.068
222.072
3010.36
1295.64
573.257
238.039
2488.78
1120.93
515.953
206.261
2787.79
1226.51
566.201
235.59
2397.05
1095.12
511.076
203.3
3159.85
1339.07
565.049
231.007
2556.82
1140.04
512.729
202.893
3245.91
1361.77
559.246
225.458
2591.03
1149.36
511.468
201.402
3139.22
1325.57
559.68
223.788
2782.96
1204.82
532.692
203.695
2971.65
1285.07
552.826
221.782
2634.51
1172.64
524.323
201.375
2734.22
1223.94
550.32
220.856
2431.03
1126.65
512.833
196.768
2500.97
1137.87
527.846
212.299
2293.26
1084.62
509.475
195.368
2307.23
1068.97
498.563
195.279
2336.49
1078.55
438.442
106.881
1706.51
1003.82
407.567
97.7675
2228.71
1061.58
438.791
110.307
1642.87
987.857
405.42
98.1142
2073.83
1031.29
428.406
106.81
1544.48
962.676
396.046
96.0977
2047.45
1013.36
430.856
111.536
1564.85
950.264
392.645
96.9868
2084.87
1005.77
439.977
121.018
1651.84
942.545
387.93
96.914
1989.49
978.082
423.188
111.256
1426.75
901.715
381.436
94.5802
2061.1
992.689
429.54
114.415
1528.01
923.493
383.279
95.3975
1941.26
964.866
408.149
102.468
1373.75
887.93
373.653
90.9587
1894.81
960.123
403.821
100.214
1398.52
884.82
370.59
89.491
90.1505
35.2655
13.1704
4.55964
1.08521
92.4965
35.6783
13.2319
4.56727
1.08583
90.3659
35.0759
13.1047
4.54159
1.08153
92.8021
35.4729
13.1567
4.54551
1.08123
88.9419
34.6898
13.0171
4.52053
1.07739
90.7337
35.0701
13.0497
4.51487
1.07452
90.77
34.872
12.9567
4.47881
1.06551
88.3311
34.4627
12.8265
4.43294
1.05439
88.17
34.4168
12.921
4.48782
1.06962
82.3331
33.6948
12.8219
4.47373
1.06789
85.8402
34.2811
12.9337
4.50022
1.07329
81.8618
33.6884
12.8383
4.48217
1.07018
88.0414
34.3982
12.8834
4.46862
1.06441
81.3282
33.5641
12.7727
4.45378
1.06273
86.1046
33.9606
12.7388
4.41818
1.05224
79.7177
33.134
12.6304
4.40468
1.05091
86.2088
34.6196
13.0771
4.54767
1.08407
81.8882
34.0873
13.007
4.53878
1.08319
85.7224
34.4423
13.0245
4.53366
1.08127
81.6291
33.9683
12.967
4.52739
1.08084
84.5482
34.1445
12.9537
4.51612
1.07779
81.2621
33.8011
12.9159
4.51312
1.07786
82.9446
33.855
12.8894
4.4993
1.07426
81.4048
33.7618
12.8868
4.50195
1.07517
80.973
33.7167
12.8562
4.4892
1.07194
20566.4
28035.4
20494.8
27908.5
20506.5
27724.4
20932.9
28407.7
21265.8
29961.7
18267.6
22129.3
19284.5
24342.1
17858.5
21447.5
17557
21161
16076.4
2922.62
678.717
167.062
32.6495
18403
5339.47
1382.99
344.536
67.1731
16027
2830.07
648.237
158.77
30.9968
18315.2
5268.29
1352.29
334.114
65.3734
15966
2742.27
617.559
150.369
29.3605
18248.6
5179.85
1314.9
323.38
63.3086
15934.3
2630.27
582.805
141.814
27.8268
18260.6
5083.81
1281.1
315.568
62.1182
15762.3
2521.98
560.634
138.484
27.5661
18167.9
4987.89
1265.82
316.344
63.1337
14504.7
2794.32
698.884
186.138
38.8138
15901
4971.25
1379.56
370.096
77.5783
15080.2
2690.94
637.109
163.4
33.2762
16849.9
4992.18
1324.22
342.134
69.8844
14170.7
2862.27
740.33
202.288
42.9174
15478.4
4957.7
1412.98
388.777
83.0988
13993
2806.23
731.046
201.972
43.2491
15257.1
4892.83
1408.37
391.658
84.5018
40934.2
61986.1
55284.5
36977.8
25931.3
33146.6
25208
32808.8
30937.2
53049.8
34179.8
58495.1
1.12186
1.83684
3.67936
7.62615
15.5046
30.5328
1.68981
2.6498
5.02914
9.87229
19.1058
36.0564
0.744409
0.579137
1.29143
1.03968
2.78759
2.34433
6.28522
5.60059
13.6954
12.9644
28.3457
27.6096
58.3167
111.522
219.389
443.211
713.241
952.509
66.3092
118.801
205.87
334.64
474.066
575.141
2.8729
3.90323
4.50689
4.7855
4.8781
4.6865
6.32582
7.2516
7.65198
7.77165
9.34374
12.5098
14.2137
14.8846
15.0507
19.2644
25.5555
28.7494
29.8563
30.046
38.9134
51.0475
56.7543
58.3745
58.4314
75.9996
98.2994
107.717
109.544
108.99
4.31411
5.82935
6.69018
7.06683
7.18183
6.73746
9.03945
10.2946
10.8028
10.9369
12.722
16.9182
19.0846
19.8669
20.0215
24.8321
32.7016
36.5101
37.6854
37.7986
47.737
62.1519
68.5771
70.124
69.9777
89.3566
114.745
124.866
126.343
125.391
1.91264
2.61295
3.03493
3.23916
3.31186
1.49108
2.04432
2.38381
2.55296
2.61549
3.3061
4.48795
5.17604
5.49033
5.59313
2.66729
3.63408
4.208
4.47888
4.57188
7.10348
9.56539
10.9344
11.5092
11.6718
5.98683
8.09135
9.28573
9.80647
9.96405
15.9283
21.2433
24.0305
25.0685
25.2914
14.2207
19.0278
21.5976
22.5936
22.8302
34.4691
45.4245
50.7316
52.3636
52.5128
32.6779
43.1701
48.3311
49.9776
50.1675
70.7217
91.8118
100.953
102.914
102.513
68.9994
89.8136
98.989
101.062
100.729
143.564
182.263
196.092
196.75
194.445
270.444
334.814
351.78
347.443
341.005
520.712
621.977
632.95
613.915
598.92
1019.79
1156.77
1127.73
1074.22
1046.47
1582.99
1703.24
1602.74
1513.75
1487.72
2063.08
2138.86
1963.8
1848.17
1829.27
162.679
205.399
219.874
219.866
216.973
287.862
356.052
373.889
369.163
362.328
491.335
592.824
608.934
593.515
579.957
784.574
919.942
922.72
888.957
866.769
1091.9
1246.35
1225.39
1171.69
1143.68
1309.12
1467.94
1425.22
1357.71
1327.36
1.13052
1.87094
3.76565
7.82688
15.9349
31.3586
1.70099
2.69044
5.12026
10.054
19.434
36.5834
0.751279
0.584903
1.31995
1.06464
2.87022
2.42194
6.51333
5.83884
14.2773
13.6703
29.7143
29.8147
59.6335
113.18
220.732
442.322
710.522
950.831
67.0227
119.544
206.283
334.256
473.137
574.615
2.89617
3.93703
4.54853
4.83234
4.92754
4.77661
6.4553
7.4109
7.83084
7.96006
9.57171
12.837
14.6154
15.3349
15.5247
19.7941
26.3144
29.6795
30.8974
31.1411
40.0488
52.6741
58.748
60.6067
60.78
78.1849
101.444
111.589
113.896
113.579
4.34411
5.87309
6.74447
7.12825
7.24684
6.84552
9.19628
10.4894
11.0233
11.1702
12.9648
17.2716
19.5245
20.3655
20.5495
25.318
33.4118
37.3974
38.6938
38.8684
48.6201
63.4542
70.2173
71.9998
71.9747
90.7924
116.9
127.622
129.531
128.808
1.93081
2.63899
3.06682
3.27483
3.34935
1.5063
2.06608
2.41041
2.58265
2.64669
3.38122
4.59523
5.30707
5.63657
5.74668
2.73293
3.72755
4.32181
4.60557
4.70471
7.32059
9.87406
11.3096
11.9264
12.1089
6.19031
8.37955
9.63467
10.1931
10.3684
16.5256
22.088
25.052
26.1995
26.4738
14.8427
19.9028
22.6498
23.7533
24.0395
35.9877
47.5615
53.3035
55.2012
55.4742
34.5109
45.7267
51.3801
53.3176
53.6399
74.2856
96.8054
106.936
109.496
109.372
74.6667
97.5826
108.094
110.902
110.887
147.093
187.436
202.57
204.128
202.286
275.048
341.915
361.07
358.37
352.819
525.011
629.727
644.222
628.104
614.795
1019.41
1160.17
1136.06
1087.17
1062.28
1578.4
1701.61
1605.58
1521.11
1498.22
2059.97
2136.88
1963.72
1850.09
1832.67
164.675
208.507
223.973
224.714
222.227
290.086
359.813
379.162
375.656
369.51
492.966
596.32
614.534
600.942
588.46
784.468
921.685
926.939
895.496
874.739
1090.43
1246.23
1227.36
1175.72
1149.05
1308.19
1467.51
1425.62
1358.97
1329.19
3005.63
1773.12
106.129
56.5576
73.7818
54.7095
90.4105
2489.8
2077.74
1178.25
1415.3
378.21
683.492
249.863
327.561
211.888
2278.75
889.481
327.471
290.562
471.664
362.674
219.315
198.011
142.153
116.436
204.731
188.842
2539.22
1250.19
1370.86
712.192
486.445
909.1
222.638
118.951
271.111
5760.05
4917.35
3973.45
3797.32
5414.63
3582.26
3310.13
2812.37
2644.78
2711.84
258.754
323.169
342.603
340.933
336.007
139.851
178.892
194.019
196.016
194.493
182.588
233.87
253.907
256.621
254.658
135.791
174.793
190.699
193.438
192.296
222.1
280.955
301.409
302.186
298.777
5159.11
4852.38
3993.99
3730.27
5289.58
4287.75
4027.08
3422.82
3222.22
3647.91
2529.64
2551.12
2276.69
2143.6
2172.97
3090.09
3070.34
2644.11
2469.94
2621.74
877.876
1011.94
1002.92
966.753
951.31
1525.61
1644.31
1543.93
1464.2
1458.04
594.159
712.848
730.161
713.582
701.242
768.557
901.794
906.429
878.182
862.849
508.455
619.139
642.146
631.357
620.852
4709.24
4422.83
3640.37
3422.91
4895.9
1956.73
2052.46
1882.01
1775.28
1767.58
767.332
898.066
900.412
871.088
854.7
684.514
807.997
815.599
791.105
775.542
1080.08
1215.66
1180.21
1128.59
1109.31
847.886
984.829
977.901
940.481
918.547
522.934
628.254
642.506
626.309
612.663
475.111
577.556
597.197
585.477
574.095
346.412
432.593
458.731
456.624
450.42
285.006
358.475
382.591
382.327
377.604
491.236
598.006
620.021
609.438
599.037
454.274
555.121
577.196
567.949
558.006
5022.6
4463.72
3626.71
3456.07
4948.43
2621.06
2567.2
2263.02
2129.49
2152.91
3147.58
3236.81
2740.86
2594.42
2701.66
1603.82
1735.68
1621.44
1533.63
1500.56
1123.81
1272.45
1232.77
1174.8
1144.15
2040.45
2153.33
1947.3
1836.11
1792.73
531.239
639.374
655.084
639.139
625.653
290.01
362.289
384.21
382.45
377.101
641.548
761.946
772.181
749.718
733.899
1057.74
1074.44
1118.28
1136.75
994.502
430.544
23208.2
24522.1
24587.3
25846.8
24143.9
23022.9
22875
22227.5
22130
30526.7
24754.9
29839.1
33660.2
21394
40386.9
20692.2
22053.9
22091.7
22763.4
22066.3
22453.1
20975.7
21280.1
22784.7
40464.9
25512.2
38593.7
35036.2
27081.2
46963.5
18035.3
19171.1
18576.6
18707.9
19726.2
21111.3
18199.6
19428.6
25195
36854.8
28172.5
35955
35245.3
30434.5
42784.5
15559.3
16478.4
15100.8
14994.1
17422.2
19430.5
15125.8
16922.3
21734.5
31858.4
23990.5
29847.5
28956.7
25060.7
35631.7
13363.2
14200.1
12503.2
12360.3
15327.8
17392
12525.4
14076
18074
23795.8
20094.8
21496.5
22911.9
18397.8
25234.6
11634.2
12361.3
10647
10523.7
12869.9
13888.3
10628.1
11592.3
14252.2
17082.2
15874.6
15619.6
17935
13044.1
18918.2
22025.4
21562.3
24378.9
26157
21437.7
21317.7
22530
22392.8
17178
9552.51
17916.8
9405.68
17356.6
14019.2
13651.3
19999.6
19901.4
21526.6
22595
19845.2
19842.5
20301.8
20417.4
13932
8402.92
14334.5
8219.06
13520
11935.5
11219.2
15918.5
15925.5
17552.8
17967.5
16048.6
16044.9
17034
17628.2
11143.6
7550.25
11535.1
7246.04
11377.2
9291.53
10246.1
11726.5
11871.7
13645.4
13719.7
12047.7
11979.8
13676.6
14222.3
7841.55
6181.1
8196.83
5958.34
8147.71
6719.17
8575.75
8934.55
9135.49
10865.2
10858.2
9291.32
9454.63
10928.5
11233.7
5900.39
5611.26
6376.89
5824.15
6785.08
6416.07
8077.41
6960.96
7190.46
8960.25
8933.21
7708.28
8250.92
9019.78
9530.67
5152.22
5734.18
5796.21
6169.62
6419.86
6287.1
8128.06
16115.1
8679.55
28048.3
18585.9
27116.8
23460.7
38346.1
49073.6
59033.3
76809.3
32008.4
28617.7
19646.5
13747.3
12820.6
7146.34
25421.2
20471.6
23592.7
21693.5
28650.5
25559.3
34444.4
27624.1
9133.88
6067.94
4785.86
3382.31
13097.9
8095.59
7342.65
4868.37
28972.5
29393.6
24014.4
17181
18894.6
15743
16226.6
15689
20615.5
20754.3
45690.4
50906.5
30431.1
32926
25875.9
20468
24302.6
16557.4
10498.5
9351.01
8763.59
15529.5
4402.74
6720.86
11673.3
20684.4
7572.98
11451
11413.4
24362.1
8971.65
16694.2
2564.07
11026.1
247.582
7843.64
19048.1
23102.6
21477
23647
23098.6
22493.5
25067.4
22881.1
21086
25648.8
19976.6
24762.3
22172.6
23966.5
22031.2
24096.2
26122.9
23141.9
26623.6
23279.4
20184.3
26001.2
18474.6
26090.6
25726.8
30531.5
32256.3
51034.6
27080.5
36359.2
32157.6
57230.2
24303.4
26587
32035.4
47828.7
23410.6
24253
32062
46433.8
8439.08
11277.7
23432.5
40807.7
9862.36
11505.9
28479.4
44624.9
11111
11662.7
33743.7
47921
27823
26061.1
27589.7
28571
45668.1
26099.4
25768.1
27027.4
25473.9
53656.9
23678.5
24439.1
23621.4
29536.8
67002.2
2566.7
3362.18
7627.88
17388.3
3596.74
5090.55
9680.69
19220
5090.88
4750.73
12334.1
21267.9
23786.3
20887.6
22173.9
18503.3
22096.4
16936.5
17690.6
13938.4
16368.3
25817.5
21127.3
16894.1
21626.5
17935.4
20814.4
17004.4
21000.7
16664.8
18807.6
26679.1
23068.6
23322
24157.3
25393.8
21110
18447.7
21858
20001.3
23585.5
22912.5
23266.1
21973.7
24660.1
26089.3
24688.8
26093.1
22404.5
21055.7
22381.2
21126.2
23186.8
22579
23640.4
22886.9
22991.8
21905.6
16956.3
20670.3
23425.9
21651.7
17781.6
22031.1
22092.5
21352.9
16605.4
20349.7
22169.2
21022.3
16302.7
19717.8
2394.93
1565.81
947.882
1142.13
746.759
682.899
3839.55
2016.33
1233.76
2808.12
2044.64
1374.17
3539.93
2426.1
2036.42
5058.09
3415.8
2484.08
16075.6
10409.3
7309.5
14768.3
10259.3
7571.3
11143.4
7964.98
6208.24
9490.77
6744.78
5175.18
8302.17
4458.35
2686.21
12711.5
8528.32
6139.59
13957.7
9423.86
6958.68
11582.4
7334.6
5301.95
9688.38
6172.45
4493.27
7973.86
4161.25
2480.15
30542.1
30191.9
33652.6
29453.6
31640.9
29793.4
39352.7
31754.7
17895.1
18221.3
18131.8
16718.6
24349.2
19765
24465.4
17902.6
26612.2
26889.7
22424.7
24346.5
27351.3
24965.9
31441.9
33271.9
35048.7
38426
25881
27059.1
22357.5
22420.4
24480.2
23877.4
14341.6
7500.45
13689.2
8361.75
14137.8
7363.2
13375.6
8077.23
13086.3
6732.73
12672
7651.88
12568.9
7936.47
12099.9
7850.79
21461
15242.7
21865.5
15983.4
24957.3
20702.8
26232.2
21198.9
19283.9
11619.8
19330.8
10809
22903.6
16426
23890
16572.9
27721.6
21606.4
28715.9
21792.6
19160.5
12003.5
19213.3
12089.7
10382.8
6353.03
8146.29
4860.24
9228.57
5583.4
7361.79
4378.66
10787.6
6758.8
8504.55
5112.73
10905.3
6970.81
8584.13
5209.78
2096.02
1009.71
3712.32
2052.35
2148.67
1147.83
3742.58
2239.51
2269.33
1492.26
3650.36
2521.95
10143.9
18868.3
6339.24
5670.72
3974.7
18950
10918.9
5504.28
4842.31
3006.82
18528.7
12309.5
8445.05
5847.68
3637.27
568.542
396.567
1321.8
1018.32
719.018
438.34
1573.08
1202.3
1019.91
666.909
1882.75
1463.69
18287.6
15065.5
10296.9
7861.56
5733.77
4418.39
4183.28
3119.34
2590.99
2031.83
15951.9
11861.2
10490.8
7513.73
7155.29
5196.41
4740.24
3484.43
3132.89
2701.68
10281.5
6643.06
10746.9
6454.59
14552.5
9437.08
15342.6
9735.07
7904.74
4988.51
7642.03
5172.51
11428.9
6293.21
11678.6
6468.87
16526.8
10299
16698.7
10526.8
8093.81
4789.32
8294.38
5037.89
5237.52
3613.81
3461.25
3399.47
5214.85
3695.37
3509.71
3280.46
5251.75
3553.75
3378.83
3532.87
5532.71
3648.5
3515.98
3499.25
458.875
271.41
162.551
1605.4
615.027
366.75
436.39
302.164
194.775
1774.29
740.337
459.036
603.289
455.78
338.47
1992.91
942.694
622.3
10335.9
6657.93
4723.06
5412.73
3490.32
2513.16
3231.59
2083.97
1518.88
2302.53
1447.38
1037.69
2464.7
1281.81
852.642
7742.43
4862.83
3341.43
4790.28
2953.17
2026.37
3452.55
2072.65
1376.86
2640.48
1563.41
1042.84
3328.61
1608.95
1062.25
3195.06
1260.16
507.206
203.044
3608.88
1382.11
538.828
214.985
3070.71
1230.37
502.815
203.648
3540.92
1373.8
548.785
223.56
2859.3
1185.72
517.401
212.67
3378.69
1364.26
580.205
239.643
3497.65
1401.65
553.861
224.787
3521.16
1423.87
548.51
218.403
2972.05
1240.97
542.949
222.92
2412.6
1064.61
487.848
193.534
2593.52
1114.83
516.524
213.81
2198.62
989.759
466.476
185.507
3173.03
1316.42
549.113
222.315
2536.34
1114.25
497.283
195.202
3256.05
1355.83
554.193
222.607
2588.33
1142.1
506.542
198.889
2350.97
1054.21
463.577
187.957
1614.91
833.481
408.334
163.372
2268.25
1030.83
462.345
187.967
1609.78
830.142
407.792
163.19
2152.22
997.764
467.042
189.744
1646.56
841.372
412.015
163.309
2040.54
949.825
457.068
186.215
1668.05
844.81
423.261
166.988
1923.94
907.697
436.098
173.859
1028.4
656.133
313.482
81.5104
560.012
571.017
275.828
70.7706
1092.81
677.826
322
85.5625
633.306
595.08
283.203
72.7017
1198.42
712.267
329.262
85.6405
752.872
635.305
291.833
74.1381
1372.11
760.14
346.891
92.5786
928.366
692.041
307.735
78.4962
1645.13
829.889
375.356
104.904
1179.9
755.665
323.77
82.294
1897.4
918.333
392.933
102.862
1348.8
842.348
354.541
87.7528
1837.38
882.196
382.543
102.289
1319.3
810.997
339.618
84.9583
1912.14
937.684
392.124
97.8746
1354.47
861.846
359.956
87.3319
1890.07
952.668
398.955
98.7786
1396.32
877.825
366.516
88.3789
78.0495
30.7843
11.6223
4.06194
0.972454
81.4377
31.4319
11.7409
4.08449
0.976158
79.048
30.9631
11.6898
4.08684
0.978456
83.0451
31.7283
11.8432
4.11994
0.984463
78.7188
31.0037
11.7507
4.11295
0.984885
83.0469
32.1204
12.01
4.17638
0.997331
86.0942
33.1081
12.3231
4.26963
1.01748
86.6307
33.7904
12.5812
4.35123
1.03554
81.7223
31.9344
12.0382
4.19856
1.00342
76.2742
31.2747
11.9548
4.1886
1.00252
77.1583
31.0996
11.8322
4.14379
0.992144
74.0034
30.8281
11.8386
4.15657
0.995815
83.8443
32.6689
12.2524
4.25929
1.01625
77.5493
31.8881
12.1492
4.24558
1.0147
84.7452
33.3904
12.5265
4.34691
1.03575
78.4826
32.5598
12.4108
4.33033
1.03366
72.5989
29.8276
11.4587
4.03238
0.967766
66.7822
29.0669
11.3425
4.01254
0.964712
72.7424
29.9254
11.5051
4.05018
0.972105
67.2123
29.207
11.3917
4.02927
0.968633
72.5142
30.0154
11.5671
4.0742
0.977866
67.9937
29.427
11.4673
4.05401
0.974272
72.2055
30.226
11.6632
4.10614
0.985065
69.5651
29.8904
11.5926
4.08892
0.981648
71.6568
30.4992
11.752
4.13239
0.990717
18074
28098.3
18607.6
28238.9
19405.6
28370.1
20349.1
29247
21079.6
31049.9
18041.6
21961.7
19024.1
24356.7
17711.5
21311.1
17512.1
21115.9
15238.8
2806.46
655.29
161.802
31.7105
17959.1
5183.22
1342.01
334.912
65.4691
15341.9
2738.58
629.267
154.397
30.2076
18003.9
5139.5
1316.34
325.408
63.799
15512.1
2679.48
603.687
147.034
28.7478
18126.5
5092.92
1287.66
316.447
62.0294
15680.4
2592.58
573.464
139.421
27.3753
18295
5034.88
1262.21
310.411