/*--------------------------------*- C++ -*----------------------------------*\
| =========                 |                                                 |
| \\      /  F ield         | OpenFOAM: The Open Source CFD Toolbox           |
|  \\    /   O peration     | Version:  2412                                  |
|   \\  /    A nd           | Website:  www.openfoam.com                      |
|    \\/     M anipulation  |                                                 |
\*---------------------------------------------------------------------------*/
FoamFile
{
    version     2.0;
    format      ascii;
    arch        "LSB;label=32;scalar=64";
    class       volScalarField;
    location    "0.5";
    object      gradTz;
}
// * * * * * * * * * * * * * * * * * * * * * * * * * * * * * * * * * * * * * //

dimensions      [0 -1 0 1 0 0 0];

internalField   nonuniform List<scalar> 
5712
(
10463.9
31489.9
8045.29
34092.8
4322.94
35413.7
7031.07
54191.3
11329.9
67569
11874.6
49165.7
12855.4
44249.1
12788.8
38514
5789.49
3430.24
17863.7
8856.85
5361.67
2522.83
18606.3
7526.32
8282.62
6551.29
24266
18857.6
5539.87
4758.26
24309.4
19559.3
12598.4
4713.11
10019
3978.62
4877.43
12350.7
54955.4
16514.2
16758
7173.56
64398.5
19742.4
14827.5
6283.05
38062.5
12557.7
19411.6
8550.7
32402
10180
10485.9
5594.48
15023.7
6345.12
9868.65
5895.51
15630.9
6220.17
12492.5
7869.52
10073.7
4530.62
16528.8
6234.03
6361.17
2445.25
20246.4
15738.2
11575.6
10635.8
19407.5
16900.9
10164.3
10592.2
11943.2
10812.7
17343
15162.6
8087.6
7041.27
4147.22
3515.86
7101.81
6891.99
3469.89
3404.73
8500.99
7037.56
4496.39
3221.68
11010.3
6466.75
11645.7
12795.1
15961.8
12235.9
17460.9
22493.8
7457.53
3407.29
7098.31
7414.96
3875.59
1458.1
2944.8
2709.63
13628.4
25653
9402.2
28868.6
14727.4
25487.2
11078.8
30234.5
18200.3
24317.3
14834.4
29900.9
15930.2
15379
15285.6
16070.8
18251.6
9933.3
13872.4
21104.7
26366.6
38414.7
13727.3
13707.5
14868.7
19279.9
29815.5
31433.9
29659.5
36776
36351.5
30013
29134
36385.3
35462.4
26609.4
26773.4
34048.7
33604.3
11982.2
12204.2
14733.3
15119.9
19052.8
19337.9
24027.3
23488.6
32019.7
31949.9
10524.3
11460.4
13895.1
15624.5
17402.4
19737.7
21803.4
24578.7
30166.1
33092.1
13029.4
8507.04
10112.1
9035.11
12712.7
12418.8
10022.4
11432.2
10503.5
9520.62
13935.6
9694.68
4575.21
6269.62
1398.52
2017.67
5968.68
8144.32
1838.11
2702.32
4517.05
6253.79
1331.28
2009.13
11002.9
8682.99
12317.4
7521.28
16125.4
11272.9
19688.9
13030.6
5458.14
5327.63
6858.81
3816.71
3565.34
3485.78
4000.23
2838.82
25444.1
16480.4
5462.92
27716.4
17178.7
5876.64
24543.3
15834.6
5468.9
27127
16892.7
5703.49
22568.9
14313.9
4731.31
25887.6
16222
5487.88
8912.9
5314.61
1597.27
12785.9
8435.31
2718.15
16547.2
11024.2
3651.88
19788
12644.4
4132.41
24269.2
15085.9
5172.4
9131.56
5135.67
1758.55
11962.4
7735.36
2760.26
15063.5
9780.72
3420.27
18616.4
11649.5
3992.39
22952.6
13330.9
4595.64
-595.316
817.9
137.454
2384.26
2241.34
2026.01
5644.72
4657.84
575.118
758.636
607.666
793.704
259.245
692.531
495.47
1030.97
1176.75
859.468
3123.17
2350.34
1271
1814.79
2771.86
-222.025
7041.39
1468.24
-5441.96
-2248.68
-137.748
-540.329
-1230.04
-1456.94
7958.08
2803.83
2037.99
975.861
7815.84
2762.16
2136.87
1067.17
7396.41
2831.27
2485.31
1263.47
1661.9
666.966
147.449
150.996
13132.2
11020.8
5367.26
6753.05
17153.6
15531.1
8083.45
9348.52
4024.45
4826.21
9532.1
7382.82
3031.54
4084.54
1171.86
1887.67
5072.29
5759.94
2327.45
2770.64
1826.58
2895.48
475.698
1360.68
2980.2
1511.11
3293.18
1519.86
5752.9
2407.61
4646.35
2104.47
1345.89
808.045
2067.24
894.151
256.296
232.787
1018.07
379.03
8775.17
4621.23
3386.9
2796.11
8747.7
4720.17
3254
2711.22
8920.97
4768.06
3184.85
2517.33
13050.9
14859
10329.6
6653.79
2690.81
8724.99
8730.73
7734.16
5982.54
2874.49
12638.6
9497.64
6561.63
4289.3
1902.97
2867.74
2036.64
2279.34
1960.7
3045.24
2182.77
2276.28
1996.77
3255.27
2447.62
2242.88
2029.48
9459.1
8582.15
7231.85
5782.3
4424.5
3890.95
3301.62
2852.82
2020.81
2039.84
7169.38
7653.16
5114.17
5314.14
3645.44
3697.51
2650.79
2670.8
1491.56
1933.75
4797.05
3591.58
3197.06
1959
8180.14
5691.1
6370.89
3979.17
1911.73
1219.04
2957.56
2433.29
3436.2
1620.36
1159.28
602.799
5280.64
2985.19
1667.86
1082.24
2261.51
997.629
811.026
364.317
1047.33
1091.53
802.463
1175.43
1750.21
1776.5
979.712
1518.16
1231.97
743.108
528.43
828.078
308.394
52.1013
-189.236
31.161
1362.94
618.593
174.228
1175.11
335.565
90.8476
1511.64
732.969
222.072
1235
374.17
105.744
1707.66
863.212
242.895
1283.44
407.173
110.289
5729.51
3224.92
944.975
3754.42
2098.83
628.665
2750.62
1473.97
448.337
1954.89
991.828
280.021
1338.19
426.405
113.231
6021.43
3174.84
1039.44
4164.43
2186.42
713.496
2913.71
1503.84
480.841
2043.82
954.005
290.197
1513.15
467.74
149.166
806.231
222.719
78.8001
23.3354
318.86
90.5706
33.6536
10.1787
795.556
224.649
85.8387
26.7808
336.601
101.132
45.3285
15.4325
854.578
249.08
102.686
33.7771
455.336
150.703
50.8034
16.7408
187.818
77.7301
7.89445
1.45636
97.864
53.0255
9.28373
2.65687
582.855
185.968
64.9728
18.3417
516.989
161.432
70.8186
19.0938
831.369
249.365
105.762
32.1968
686.58
204.138
95.5918
21.5167
335.962
116.621
36.4915
12.4686
324.631
107.726
46.0817
14.0859
138.086
57.3625
18.5915
6.80683
137.523
52.7525
23.2083
8.4767
990.196
275.005
102.488
29.322
929.856
261.779
115.659
28.4847
959.737
269.504
105.206
29.8113
887.187
249.951
113.079
26.823
929.604
264.44
114.709
33.0034
792.056
222.632
107.751
25.619
804.411
230.638
109.96
35.6706
844.641
235.403
128.533
32.5661
588.069
168.853
82.0973
21.7123
675.191
182.844
85.7809
20.0567
245.225
63.0771
26.7649
7.35509
669.539
181.388
84.6565
19.3982
252.134
65.0597
27.7855
7.78548
634.885
170.691
82.2871
18.331
247.739
63.6931
28.3082
8.19157
541.791
143.025
75.8751
17.9297
223.723
55.8468
28.66
8.64763
471.485
125.955
67.9348
17.8648
206.047
52.6576
28.2491
8.6605
310.61
92.3437
39.7201
10.4466
152.581
48.2142
17.6645
5.76608
372.971
103.557
52.8318
13.8452
177.044
49.9293
23.4592
7.68103
215.919
70.8338
27.9127
8.22054
111.891
39.1286
12.077
4.27447
101.571
39.7536
16.3992
5.92731
60.6564
25.1529
8.82427
3.57025
4.36778
0.775067
0.147021
0.0312142
0.00881372
1.78545
0.331069
0.0652252
0.0143171
0.00415528
4.5109
0.868773
0.187738
0.0456061
0.0144228
2.29266
0.532605
0.134184
0.036375
0.0123686
5.56961
1.25653
0.313072
0.0844812
0.0286216
5.76686
1.63374
0.468181
0.136939
0.0486542
4.79794
1.49178
0.445457
0.133208
0.0480365
3.04179
1.10927
0.364403
0.115953
0.0436804
5.53918
1.37148
0.368238
0.104101
0.0363342
4.03564
1.03186
0.282723
0.080758
0.0283223
5.9048
1.40887
0.373715
0.10518
0.0365398
3.20046
0.850442
0.242048
0.0707124
0.0250704
5.11519
1.38304
0.386128
0.111623
0.0395799
3.75518
1.12126
0.332271
0.0991499
0.0357332
2.93582
1.02493
0.333535
0.105881
0.0398753
2.73145
0.975332
0.320772
0.102269
0.0385915
4.63532
0.762267
0.137975
0.0282536
0.00774167
2.0402
0.315396
0.0554057
0.0111341
0.00300479
4.54753
0.780457
0.154668
0.0352385
0.0106419
1.93909
0.307742
0.0575899
0.0125391
0.00365393
4.23786
0.796907
0.17581
0.0438537
0.0141141
1.87676
0.362598
0.0835842
0.0216599
0.00716493
5.08606
1.18719
0.309653
0.0862283
0.0296683
2.59531
0.587988
0.152744
0.0425478
0.014639
3.5407
1.02092
0.298728
0.0883906
0.0314921
5209.27
9165.09
4980.97
8912.35
4720.63
8294.96
4604.71
7912.02
4681.27
8469.21
2574.71
3603.99
3598.5
5568.91
1622.44
2081.9
512.599
733.932
16987
4436.39
1195.04
375.966
176.568
4616.19
1334.94
412.286
129.802
57.3651
16665.7
4299.93
1152.37
361.223
168.995
4778.43
1494.02
426.58
136.738
62.2013
15735.8
4006.62
1067.62
334.376
156.41
4630.32
1435.95
406.304
128.966
58.0569
14349
3604.67
959.999
303.052
143.066
4390.47
1329.04
368.9
115.362
51.23
12205
3048.35
820.987
264.535
127.426
3960.18
1152.75
314.653
97.7747
43.2241
6630.2
1793.34
509.088
171.57
85.3443
1947.8
530.146
131.484
35.813
13.9198
9363.67
2447.4
677.62
223.802
109.902
2761.03
778.297
207.35
63.0548
27.3533
4121.51
1148.63
332.52
113.695
57.0272
1214.97
336.296
80.6381
19.5861
6.63945
1488.61
422.345
123.974
42.9713
21.7735
531.975
137.54
31.9469
9.92429
2.39131
-2887.35
-141.692
5223.7
-4561.44
1081.59
1155.64
2902.19
3585.66
2470.53
4035.22
3523.64
5328.39
3638.67
4707.08
1719.66
2468.21
1756.17
2048.87
1186.09
1229.31
2213.92
1392.09
160.43
-48.562
-34.0434
-76.1562
91.7999
11787.7
4450.24
4230.83
3515.46
869.92
574.057
2684.77
271.102
351.983
217.445
105.375
5666.47
2930.5
1606.93
854.885
2210.22
1187.55
370.038
539.842
17.588
88.8348
796.92
719.137
7875.73
3133.54
3801.59
1839.67
1966.91
2895.94
458.355
88.0039
655.606
1320.96
981.918
708.519
520.36
300.397
982.996
688.337
477.488
302.256
105.015
134.071
103.902
72.7513
42.9344
14.185
-40.8065
-31.624
-21.9714
-12.8024
-4.18671
-29.7889
-24.1442
-17.3422
-10.266
-3.38271
-65.5387
-52.2108
-37.0966
-21.8976
-7.21277
78.1238
61.6974
43.9315
26.2106
8.68409
7694.14
5838
4046.32
2818.79
1784.67
3332.79
2252.2
1585.2
1022.44
375.64
3119.67
2176.84
1497.32
940.338
343.715
2482.33
1674.94
1136.62
696.672
238.636
626.554
413.816
284.127
172.039
63.1628
481.59
373.621
262.442
156.055
51.8649
2056.38
1472.02
994.054
593.223
202.427
257.994
215.149
155.814
94.6015
31.7383
291.132
223.976
156.909
93.3718
31.1869
197.617
163.561
119.702
72.8371
24.45
81.356
58.595
39.2954
22.9825
7.68526
3426.97
2765.67
1958.74
1437.98
991
2188.42
1529.05
1061.3
664.462
226.317
1311.87
992.978
688.4
408.535
136.048
695.1
524.102
362.134
214.143
71.0583
1735.15
1267.41
862.199
510.394
170.793
983.86
747.921
518.697
305.208
98.3881
302.339
229.298
159.435
94.5514
31.2057
451.025
348.455
243.456
143.502
47.2112
15.9019
13.5578
10.7185
7.12288
2.52033
73.6706
56.6835
39.7898
23.7586
7.91744
656.325
500.604
346.509
203.647
67.3442
594.597
455.069
315.695
185.593
61.2641
4701.46
3268.28
2367.25
1737.84
1025.1
2223.27
1557.05
1074.44
675.549
240.928
2684.44
1923.67
1341.72
886.673
312.976
1340.7
980.632
681.685
423.596
158.861
1566.46
1159.85
796.522
472.562
156.798
2221.44
1473.11
1008.76
621.071
158.927
380.433
292.236
204.048
120.623
39.6833
72.2422
54.9177
38.1246
22.5791
7.4842
542.177
413.593
287.609
169.841
55.5753
-45541.4
-68720.4
-35018.4
-58184
-35542.4
-77715.7
-46177
-94629.3
-26624
-18836.5
-28232.9
-16210.4
-24040.4
-16418.4
-27641.1
-14142.4
-39505.8
-29138.9
-52611.9
-39480.9
-31589.6
-24311.3
-45048.8
-35038.6
-23425.2
-25180.9
-17089.4
-18010.7
-21781.2
-21496.1
-63087.8
-19385.8
-21309.8
-10293
-71668.7
-22986.2
-19008
-9543.01
-45898.2
-15111.7
-23701.1
-11204.9
-39893
-12024.8
-20223.1
-8786.02
-26648.2
-10207.2
-17847.5
-8200.18
-24539.5
-8990.57
-18682.6
-9469.68
-15246.5
-6071.4
-20614.6
-7547.4
-8028.81
-3058.18
-17532.7
-13647.2
-14164.2
-11176.1
-14482.7
-12651.8
-12094.3
-10557.9
-14704.8
-11636.3
-17651.5
-14829.3
-10509.7
-8168.84
-6250.68
-4834.45
-9222.27
-7775.31
-5487.9
-4605.06
-10857
-8157.34
-6416.15
-4434.52
-13486.4
-7363.02
-12416.8
-13146.3
-18056
-13036.8
-17804.9
-22607.3
-9354.65
-4083.61
-7963.67
-7794.12
-5327.02
-1983.54
-3835.78
-3069.11
-18587.1
-24271
-11050.1
-28818.5
-18570.1
-23620.5
-12250
-29858.6
-20615.4
-22670.3
-15406.6
-29189.2
-11420.2
-7368.06
-15076.4
-17936.1
-18773.2
-9413.21
-13892.2
-21174.4
-25713.5
-37711.4
-9179.84
-11208.5
-13936.9
-18926.6
-29538.1
-25775.8
-20822.3
-33502.5
-27555.6
-24807.2
-21043.8
-33473.9
-27689.3
-22571.7
-19847.3
-31535.4
-27319.9
-12359.9
-11044.5
-14208.2
-12605.9
-16824.7
-15252.8
-20480
-18339.1
-29837.9
-27075.5
-9548.39
-10038.8
-12100.8
-12439.4
-15099.2
-15525.2
-19420.2
-19852.4
-28605.5
-28265.5
-11686.3
-7697.82
-9792.06
-8725.22
-10848.4
-11350.3
-9319.88
-10814.3
-10480
-9383.95
-13134.9
-9011.08
-4855.69
-6333.17
-1950.17
-2281.61
-6014.19
-7996.8
-2245.19
-2812.49
-4894
-6419.6
-1908.23
-2328.25
-11121.3
-8626.13
-12442.8
-7464.33
-15681.2
-10655.1
-19480.1
-12397
-5807.51
-5517.99
-7126.23
-3968.42
-4048.43
-3796.4
-4326.91
-3074.41
-15011.9
-5738.71
-17155
-5966.88
-15258.1
-5786.48
-17887.7
-6578.1
-14818.4
-5471.74
-18874.4
-7360.74
-6699.37
-1982.04
-8848.91
-3213.27
-11108.3
-4277.84
-13844.2
-5147.58
-18683.7
-7200.91
-7047.85
-1847.11
-8305.47
-3055.89
-10371.1
-3905.12
-13412.9
-4949.2
-17328
-5891.72
-9543.45
-8878.37
-7210.1
-6410.64
-15557.4
-12343.8
-12623.1
-9820.06
-6985
-5372.27
-2828.21
-2007.48
-6650.26
-5444.84
-2708.68
-2234.34
-4508.53
-7349.15
-5495.74
-8514.82
-5612.18
-3643.26
-5626.97
-2604.03
-10474
-4674.68
2331.7
-583.893
-1950.12
-1666.48
-626.913
-533.961
-2713.32
-1084.44
-1163.24
-389.895
-2847.74
-1222.26
-1436.15
-492.143
-3299.31
-1455.86
-2234.85
-716.232
-2233.55
-547.193
-1195.53
-230.313
-7226.68
-6754.55
-5694.47
-5786.32
-11014.4
-10340.6
-9128.62
-8672.2
-3679.38
-3847.06
-5061.36
-4489.65
-4243.29
-4223.25
-2591.86
-2465.74
-6753.8
-6246.93
-4119.04
-3686.91
-2472.8
-2778.87
-1418.19
-1620.54
-2230.79
-974.471
-2489.17
-1036.09
-2982.95
-1358.59
-2860.23
-1284.76
-1495.21
-637.598
-1833.24
-660.45
-736.083
-229.791
-1056.93
-273.652
-2737.01
-2272.27
-1467.03
-1700.14
-2888.01
-2484.75
-1518.6
-1732.44
-3448
-2668.76
-1692.27
-1711.23
-4091.32
-5232.36
-3756.18
-2785.93
-1388.58
-6914.09
-5228.8
-4051.33
-3340.37
-1882.69
-7177.12
-4968.87
-3465.71
-2370.51
-1037.94
-2415.72
-2551.11
-2261.83
-3258.41
-2504.54
-2452.55
-2120.89
-3019.77
-2658.95
-2760.61
-1967.46
-2697.81
-9863.15
-8244.47
-6970.67
-5734.83
-4093.62
-3970.82
-2943.2
-3003.89
-1725.62
-2437.73
-6560.06
-6996.94
-4347.06
-4871.88
-2863.2
-3325.31
-2027.68
-2410.48
-944.457
-1870.54
-3265.37
-2888.09
-2418.66
-1465.59
-6289.25
-4856.67
-5508.04
-3421.35
-1279.09
-809.627
-1874.22
-1889.79
-3199.41
-1419.08
-1244.69
-578.936
-5119.94
-2788.69
-1897.78
-1099.95
-2006.57
-815.927
-791.415
-314.656
-603.162
-805.265
-526.276
-1020.94
-1047.97
-1417.23
-603.571
-1374.15
-1010.71
-599.528
-350.958
-724.857
-223.906
11.5049
290.661
29.5393
-2075.43
-772.003
-2228.13
-315.441
-2030.96
-886.768
-2105.67
-321.922
-2000.57
-720.878
-1702.36
-153.046
-4805.92
-1375.34
-3494.64
-1067.57
-2869.19
-964.46
-1917.75
-525.227
-1573.44
-165.186
-4907.35
-1146.45
-3552.82
-847.662
-2616.32
-658.148
-1828.49
-346.163
-1644.88
-226.496
-391.557
-120.341
-51.9178
-15.9372
-148.045
-45.7129
-21.559
-7.08287
-404.741
-121.935
-57.5473
-18.4003
-143.667
-43.1542
-27.6172
-10.0371
-470.233
-139.237
-69.3271
-21.6749
-198.421
-54.8485
-11.6817
0.232641
-36.5707
-0.271587
28.7024
14.346
18.7571
24.7133
29.0109
12.7423
-358.067
-103.568
-32.2253
-4.63781
-311.353
-84.7983
-42.6387
-7.29415
-510.174
-149.816
-72.7103
-17.5685
-408.032
-113.669
-67.799
-9.09032
-199.611
-51.4197
-7.00854
0.0569571
-188.534
-46.7004
-20.0063
-2.59187
-46.9197
-0.86475
10.1013
6.03544
-40.2192
-1.0105
1.1616
2.81672
-526.479
-159.406
-75.3584
-21.0567
-593.928
-166.352
-101.43
-21.5315
-523.834
-156.442
-78.5934
-21.3587
-582.524
-161.667
-100.155
-20.2084
-538.678
-156.814
-89.6226
-24.5528
-540.839
-148.207
-97.0505
-19.3783
-427.525
-118.609
-79.7136
-22.2592
-544.465
-145.046
-112.552
-23.7556
-322.883
-87.0183
-57.0632
-6.8409
-507.725
-120.355
-79.5053
-15.3363
-207.615
-42.6257
-23.7503
-5.78609
-464.627
-110.859
-76.1683
-14.384
-194.552
-40.2225
-23.6324
-5.88169
-400.618
-93.6018
-71.9043
-13.4354
-170.3
-34.4706
-22.7679
-5.7989
-338.993
-77.7415
-65.9873
-13.3154
-152.218
-30.4751
-23.212
-5.93615
-267.131
-62.4377
-54.136
-11.5605
-110.806
-22.3858
-20.2216
-4.82116
-184.92
-44.6975
-22.7302
-2.08599
-47.6939
-8.13612
-3.84519
0.502905
-235.444
-58.0984
-39.3807
-6.67805
-69.0895
-13.5393
-12.0093
-2.36481
-110.765
-23.8767
-9.50231
0.438538
-29.177
-1.67598
2.08023
2.19208
-17.402
3.83332
1.74051
2.63361
3.50232
8.8411
4.78759
2.75714
-2.81414
-0.406374
-0.0495735
-0.00333804
0.00115945
-1.09503
-0.159599
-0.0185526
-0.000744383
0.000744221
-2.37979
-0.285264
-0.0177549
0.00579971
0.00453515
-0.663561
-0.0385142
0.0180513
0.0109645
0.00533582
-1.74024
-0.106057
0.0403033
0.025389
0.0124992
0.080167
0.297844
0.151783
0.059918
0.0258243
0.737719
0.438222
0.19221
0.0726357
0.0306471
2.32354
0.80197
0.279005
0.0942767
0.037301
-1.15576
0.0528443
0.0881004
0.0410929
0.0187444
-0.509915
0.0843139
0.0731254
0.03245
0.0146607
-1.09161
0.0603995
0.0831758
0.0378503
0.0171866
0.206837
0.167398
0.0727911
0.0276744
0.0118536
-0.654415
0.181254
0.133367
0.0568169
0.0250414
0.350048
0.302529
0.139424
0.0537477
0.0229299
1.83564
0.704559
0.252355
0.0861909
0.0342802
1.74076
0.674551
0.241552
0.0826135
0.0329248
-3.12789
-0.430061
-0.0534285
-0.00454237
0.000651213
-1.40579
-0.183475
-0.0226041
-0.00203285
0.000198806
-2.79751
-0.341566
-0.0325488
0.000839811
0.00250206
-1.27267
-0.154325
-0.0165019
-0.000617945
0.00065076
-2.11784
-0.218001
-0.00625983
0.00766017
0.00494418
-0.801105
-0.0649954
0.00383485
0.00486292
0.00262075
-0.791763
0.0582991
0.0675819
0.0301909
0.0136996
-0.450998
0.0335891
0.0346234
0.0150211
0.00673403
0.921542
0.299079
0.104255
0.0363349
0.0149999
-5190.4
-8246.46
-5011.38
-8119.59
-4740.44
-7653.55
-4587.81
-7368.93
-4545.59
-7840.97
-2646.66
-3600.31
-3568.94
-5356.09
-1781.34
-2192.22
-719.378
-895.181
-17500.8
-4562.22
-1224.27
-382.344
-178.085
-4711.18
-1371.44
-422.554
-132.081
-57.8477
-17114.3
-4411.42
-1178.63
-366.997
-170.377
-4886.33
-1535.07
-437.154
-139.167
-62.7839
-16058
-4092.37
-1088.59
-339.084
-157.552
-4732.18
-1472.89
-415.809
-131.152
-58.5826
-14541.3
-3662.65
-975.05
-306.539
-143.93
-4463.45
-1357.57
-376.496
-117.135
-51.6608
-12302.4
-3083.52
-830.683
-266.843
-128.008
-3991.06
-1170.98
-319.94
-99.0531
-43.5414
-6688.02
-1809.57
-513.339
-172.582
-85.6039
-1971.35
-540.084
-134.362
-36.5151
-14.1011
-9430.99
-2470.05
-683.869
-225.303
-110.286
-2772.15
-788.779
-210.638
-63.8746
-27.5632
-4171.94
-1161.14
-335.628
-114.425
-57.2147
-1258.57
-348.678
-83.8035
-20.3271
-6.82767
-1533.25
-432.647
-126.441
-43.5426
-21.9192
-588.388
-151.974
-35.4115
-10.7149
-2.5832
-1335.4
-4069.78
-9745.11
-589.532
-10066.2
-4491.64
-9786.03
-4719.53
-17198.2
-9365.96
-19961.6
-10764.5
-5.75282
-18.0902
-30.3865
-38.3288
-28.474
28.3863
-11.73
-37.2633
-64.3916
-85.8961
-79.8489
-1.11805
-3.33779
-2.62381
-9.92327
-8.35243
-13.3223
-13.4767
-3.74433
-10.7968
11.4694
-7.53496
20.3834
-1.74309
216.389
645.789
1442.67
1192.06
1097.58
413.873
225.67
668.679
1264.18
1509.79
1339.38
537.283
-5.04802
-4.12174
-3.00814
-1.81616
-0.605644
-15.8677
-12.9502
-9.44776
-5.70283
-1.9016
-26.6073
-21.6697
-15.7761
-9.50736
-3.16748
-33.5016
-27.2245
-19.7764
-11.8978
-3.96022
-24.9591
-20.3407
-14.8107
-8.9228
-2.97157
23.8022
18.454
12.8417
7.50392
2.464
-10.2632
-8.35045
-6.07262
-3.65611
-1.21739
-32.5773
-26.4818
-19.2429
-11.5797
-3.8549
-56.1469
-45.5009
-32.9647
-19.7931
-6.58163
-74.63
-60.2281
-43.4627
-26.0221
-8.6404
-69.1276
-55.5607
-39.9463
-23.8558
-7.91119
-1.40766
-1.51925
-1.33601
-0.892013
-0.309604
-2.93728
-2.4066
-1.76267
-1.06727
-0.356476
-2.31293
-1.89908
-1.39404
-0.845592
-0.282715
-8.72869
-7.1479
-5.23278
-3.16726
-1.05771
-7.3557
-6.03243
-4.42286
-2.68026
-0.895662
-11.7062
-9.57319
-6.99845
-4.23124
-1.41216
-11.8401
-9.68143
-7.07646
-4.27775
-1.42754
-3.36553
-2.82304
-2.11414
-1.30106
-0.43823
-9.47708
-7.73963
-5.64932
-3.41095
-1.13749
9.77459
7.71378
5.44794
3.21098
1.05776
-6.60727
-5.38552
-3.91974
-2.35951
-0.785287
17.2147
13.4645
9.45482
5.56375
1.83317
-1.68205
-1.49831
-1.15921
-0.718142
-0.241394
183.38
144.023
101.566
59.9576
19.7899
540.457
419.299
293.383
172.785
57.0286
1180.52
897.939
622.53
367.191
121.632
957.274
730.37
509.412
303.962
104.006
889.146
675.111
466.912
275.342
91.0989
348.636
269.137
186.392
108.631
35.5044
191.008
149.798
105.499
62.2229
20.5293
561.103
436.407
305.705
180.01
59.4018
1048.41
806.999
562.081
330.831
109.36
1240.2
949.082
659.57
388.896
129.201
1095.02
833.762
577.699
340.365
112.818
440.898
336.542
233.693
137.902
45.7374
6.27799
18.8979
31.8572
41.1124
33.8106
-17.8419
12.6176
38.4935
66.2527
88.5344
83.281
5.5691
3.66528
2.85497
10.459
8.77815
14.2714
14.3086
5.17524
11.9663
-7.75295
6.47746
-5.79805
7.35071
-198.305
-618.418
-1394.6
-1149.48
-1076.63
-410.557
-219.516
-658.895
-1247.25
-1491.65
-1326.53
-530.402
5.52062
4.52
3.30886
2.00297
0.66896
16.5928
13.5599
9.90713
5.98765
1.99802
27.9245
22.7736
16.6048
10.0198
3.34073
35.9849
29.296
21.3241
12.8511
4.28183
29.6945
24.2659
17.7243
10.7081
3.5721
-14.5079
-10.813
-7.2178
-4.08116
-1.31714
11.064
9.0275
6.58559
3.97566
1.32587
33.6872
27.4205
19.9543
12.0229
4.00538
57.827
46.9223
34.0423
20.4647
6.80969
77.0105
62.2407
44.9874
26.9719
8.96287
72.2106
58.1538
41.9004
25.068
8.3218
5.34634
4.77485
3.74559
2.36491
0.804241
3.23132
2.65377
1.94882
1.18266
0.395533
2.52033
2.07327
1.5251
0.926771
0.310186
9.20847
7.54995
5.53458
3.35385
1.12078
7.73677
6.35156
4.66225
2.82818
0.945644
12.553
10.2794
7.52603
4.55613
1.52175
12.5827
10.3012
7.53969
4.56319
1.52385
4.63346
3.87165
2.89058
1.77583
0.597744
10.5166
8.60265
6.29106
3.80479
1.27009
-6.49781
-5.01994
-3.4651
-2.00402
-0.653176
5.73267
4.72556
3.47971
2.11455
0.707529
-4.40447
-2.98155
-1.77329
-0.90365
-0.27404
6.63581
5.58277
4.17717
2.56221
0.860928
-167.556
-131.141
-92.1802
-54.291
-17.8989
-516.696
-400.126
-279.54
-164.493
-54.2745
-1138.68
-863.997
-597.838
-352.308
-116.665
-917.167
-695.042
-481.607
-286.082
-97.9229
-865.239
-650.839
-445.616
-260.428
-85.6393
-338.92
-255.246
-171.795
-97.2766
-31.11
-185.697
-145.541
-102.45
-60.4109
-19.9309
-552.796
-429.876
-301.125
-177.341
-58.5312
-1033.78
-795.227
-553.598
-325.764
-107.682
-1223.39
-934.471
-648.197
-381.655
-126.728
-1081.34
-820.317
-566.137
-332.439
-109.977
-431.326
-325.419
-223.051
-130.114
-42.8461
-2235.59
-1391.64
-99.7058
93.2537
92.5227
153.256
7.90876
-10384.2
-2936.65
-3389.31
-1579.2
-127.261
-2548.93
55.1095
697.153
75.2329
-5184.9
-2409.04
-1108.32
-643.568
-2043.41
-958.879
-294.149
-385.514
245.938
117.581
-555.254
-535.094
-7720.22
-3077.48
-3568.28
-1727.73
-1844.43
-2546.38
-308.901
89.0114
-455.549
-1307.06
-947.932
-667.347
-483.861
-283.237
-968.595
-665.342
-452.432
-282.066
-96.9011
-80.8182
-60.3966
-40.9051
-23.6151
-7.71688
80.147
63.9029
45.7033
27.25
9.03271
80.9478
65.8181
47.7659
28.6906
9.54661
132.842
106.91
76.9415
45.9841
15.2614
9.0735
9.31757
7.92056
5.21112
1.8362
-6684.34
-5170.53
-3635.54
-2630.73
-1835.87
-2071.98
-1310.31
-928.727
-617.339
-213.775
-2438.62
-1667.99
-1145
-730.254
-271.66
-1076.39
-702.841
-504.377
-329.623
-107.27
-102
-75.2297
-50.5594
-29.1108
-9.24623
-1956.99
-1412.65
-966.125
-584.912
-200.869
51.1681
43.2418
31.4875
18.568
6.03914
563.898
423.766
292.089
172.876
58.1398
69.1382
58.036
42.2116
24.8597
8.04303
-3022.71
-2440.04
-1725.18
-1305.28
-976.583
-1735.9
-1165.04
-794.775
-499.722
-169.686
-884.765
-655.203
-447.243
-263.47
-87.1166
-513.634
-379.648
-258.732
-152.202
-50.3637
-1601.2
-1168.34
-797.327
-475.296
-160.084
-781.694
-581.52
-395.53
-229.266
-72.4578
-235.41
-174.2
-118.745
-69.6633
-22.8193
-316.504
-239.39
-164.119
-95.4947
-31.1214
209.459
165.474
117.358
69.6282
23.1042
104.114
85.6321
62.5537
37.6541
12.5613
-451.888
-340.525
-233.868
-137.143
-45.3426
-436.851
-329.699
-226.299
-132.357
-43.5875
-4564.33
-3152.48
-2279.21
-1686.7
-1018.48
-2169.19
-1508.06
-1034.89
-649.756
-232.172
-2460.58
-1733.51
-1192.25
-789.866
-275.971
-1237.92
-892.258
-613.493
-380.433
-144.633
-1459.44
-1072.9
-732.893
-433.811
-143.641
-1918.15
-1223.07
-823.93
-506.997
-118.125
-249.318
-185.057
-125.458
-72.7965
-23.6118
80.7016
67.9244
50.4122
30.57
10.2256
-366.935
-270.758
-182.978
-106.005
-34.0154
-42.8967
-116.64
-188.145
-279.103
-409.358
-563.583
-33269.9
-27819.1
-24928.2
-29618.9
-23965.4
-19046.7
-20943.3
-16221.3
-31349.1
-25732.3
-26946.1
-23380.7
-23590.5
-18807.7
-22375.2
-28558.8
-25258.2
-21539.2
-24371
-21538
-16986.2
-18283.7
-13817.7
-28897.1
-24972.6
-26268.5
-23429.2
-22763.8
-18957.1
-22449.3
-22547.5
-20744.7
-17509.4
-19089.6
-18118.9
-15107.4
-15416.1
-12908.6
-23562.4
-22400.2
-22350.7
-21772.1
-20274
-17474.3
-20976.5
-15634.7
-14972.9
-12570.3
-13190.6
-13787
-12779.7
-11708.1
-11061.2
-17162.7
-19080.2
-16668.9
-18620.4
-15939.9
-14594.3
-18031.5
-9980.76
-9769.56
-8092.29
-8326.34
-9461.96
-9420.32
-7768.56
-7638.72
-11644.5
-14396.8
-11470.9
-13793.3
-11443.3
-11169.9
-13449.5
-3599.69
-3553.59
-2911.75
-2975.82
-3520.91
-3656.07
-2805.46
-2726.38
-4544.35
-5977.68
-4479.89
-5480.16
-4565.98
-4591.62
-5328.21
-11331.1
-11060
-16653
-18439.6
-10802.1
-9834.04
-15284.8
-12566.1
-8778.92
-4977.57
-8716.49
-4933.45
-8522.42
-8563.37
-5020.65
-10926.8
-10426.9
-15484.9
-16854.8
-9765.5
-8199.24
-13851
-11000.5
-6855.1
-2416.28
-6592.29
-2555.28
-5506.55
-5187.4
-2784.71
-9365.25
-8929.96
-13137.4
-14031.6
-8455.44
-7232.24
-11952.2
-10123.5
-4450.35
-2252.03
-4192.9
-2638.33
-3704.02
-3756.79
-3023.67
-7032.62
-6780.65
-9717.23
-10138.7
-6495.7
-5846.63
-9161.63
-8408.62
-4206.16
-2258.71
-4142.05
-2725.84
-3966.38
-4183.55
-3132.52
-4560.44
-4408.81
-6274.38
-6468.51
-4151.34
-3817.66
-5995.76
-5598.42
-2827.38
-1928.27
-2809.49
-2237.8
-2877.82
-3092.37
-2469.47
-1625.21
-1575.12
-2251.17
-2310.85
-1512.01
-1451.85
-2154.15
-2009.01
-944.737
-880.741
-984.005
-997.078
-1096.51
-1211.43
-1040.88
10345.6
30863.9
8030.54
34107.6
4316.15
35419.7
7028.04
54190.5
11324.9
67564.3
11863.1
49160.6
12835.5
44239.9
12629.4
37657.2
5786.59
3429.73
17865.5
8857.4
5360
2522.37
18605.6
7526.12
8184.64
6473.81
23825.4
18518.1
5527.41
4752.99
24331
19586.1
12606.4
4710.91
10021
3978.43
4877.7
12362.4
54960.4
16514.9
16759.3
7173.64
64399.3
19742.3
14827.8
6282.92
38073.4
12559.8
19414.4
8551.42
32417.5
10182.7
10409.5
5529.39
14741.9
6216.14
9876.24
5896.14
15656.4
6226.41
12496.9
7870.38
10082.1
4533.3
16538.1
6237.19
6363.5
2446.12
20246.2
15738.1
11575.8
10635.9
19407.4
16900.9
10164.2
10592.1
11944.1
10813
17343
15162.6
8088.02
7041.38
4147.11
3515.79
7101.88
6892.01
3469.79
3404.71
8502.02
7037.82
4496.53
3221.67
11012.2
6467.53
11646.1
12795.2
15963
12236.2
17461.1
22493.6
7459.27
3408
7098.65
7415.14
3876.05
1458.32
2944.85
2709.68
13636
25729.8
9368.32
28943.1
14737.7
25470.6
11083.3
30218
18201.6
24311.2
14833.9
29894.9
15930.1
15379.1
15285.6
16072
18251.1
9933.22
13872
21103.6
26364.4
38411.5
13727.3
13707.3
14868.6
19279.7
29814.9
31512.2
29705.4
36869.3
36342.4
29999.1
29129
36372.8
35470.6
26604
26770.7
34044.4
33606.1
11981.9
12203.9
14732.7
15119.3
19051.5
19336.9
24024.2
23487
32017.8
31950.2
10524.1
11460.1
13894.7
15624
17401.6
19737.1
21802.5
24578.1
30165.6
33092.1
13029.1
8506.94
10112
9035.07
12712.6
12418.6
10022.3
11432
10503.4
9520.66
13935.3
9694.62
4575.21
6269.61
1398.5
2017.66
5968.66
8144.24
1838.12
2702.31
4517.07
6253.82
1331.27
2009.12
11002.9
8683.04
12317.3
7521.25
16125.2
11272.9
19688.8
13030.6
5458.19
5327.66
6858.82
3816.68
3565.37
3485.8
4000.26
2838.82
25459.8
16480.1
5473.74
27710.9
17165.9
5870.33
24537.3
15831.6
5467.2
27130
16893.2
5703.15
22567
14312.9
4730.82
25889.1
16222.4
5487.8
8912.63
5314.45
1597.22
12785.5
8435.05
2718.07
16546.6
11023.9
3651.75
19787.2
12643.9
4132.25
24269.8
15086.1
5172.38
9131.3
5135.52
1758.5
11962
7735.16
2760.18
15063.1
9780.51
3420.19
18616.1
11649.4
3992.33
22952.8
13330.9
4595.61
-597.008
817.381
133.238
2383.65
2239.94
2025.46
5642.18
4657.23
565.49
757.068
596.326
789.091
261.61
693.984
498.222
1032.38
1180.68
861.218
3123.96
2350.7
1272.74
1818.68
2771.85
-221.234
7041.32
1468.47
-5439.71
-2246.43
-136.943
-538.946
-1226.92
-1454.44
7945.39
2805.82
2036.22
976.043
7813.41
2762.45
2136.27
1068.18
7395.33
2831.24
2486.39
1264.55
1663.69
668.124
149.456
152.066
13132.4
11020.9
5367.24
6753.1
17153.8
15531.2
8083.32
9348.49
4024.71
4826.3
9531.86
7382.69
3031.76
4084.72
1172.43
1888.02
5072.32
5760
2327.65
2770.81
1827.17
2895.76
476.537
1361.12
2980.54
1511.45
3293.27
1519.96
5752.48
2407.47
4646.15
2104.32
1346.64
808.598
2067.53
894.396
257.246
233.374
1018.51
379.342
8769.71
4623.23
3391.24
2799.5
8745.08
4718.31
3252.42
2707.9
8919.01
4766.79
3183.81
2515.8
13051.1
14859.2
10329.2
6652.96
2690.33
8725.01
8730.67
7733.68
5981.63
2873.59
12638.6
9497.64
6561.43
4288.98
1902.73
2865.91
2029.89
2280.43
1957.93
3044.51
2182.96
2273.57
1996.09
3254.6
2447.46
2241.64
2028.96
9459
8581.95
7231.72
5782.12
4424.21
3890.73
3301.19
2852.57
2020.14
2039.44
7169.3
7652.99
5114.08
5313.98
3645.25
3697.33
2650.52
2670.58
1491.23
1933.46
4797.02
3591.5
3197.07
1958.98
8180.11
5691
6370.86
3979.12
1911.73
1219.02
2957.44
2433.19
3436.26
1620.38
1159.42
602.859
5280.64
2985.18
1667.93
1082.27
2261.6
997.658
811.205
364.391
1047.33
1091.49
802.447
1175.36
1750.05
1776.37
979.548
1518
1232.07
743.134
528.526
828.093
308.569
52.1825
-189.075
31.236
1356.57
614.74
173.414
1173.25
335.146
90.6221
1511.83
733.593
222.299
1235.03
374.586
105.914
1707.66
863.367
242.963
1283.32
407.255
110.337
5729.34
3224.81
944.942
3754.28
2098.75
628.642
2750.49
1473.92
448.327
1954.78
991.826
280.026
1338.04
426.406
113.241
6021.26
3174.74
1039.41
4164.28
2186.33
713.468
2913.57
1503.77
480.821
2043.68
953.951
290.182
1512.99
467.714
149.163
805.587
222.302
78.3522
23.1431
317.234
89.9625
33.29
10.0515
795.866
224.763
85.8978
26.8015
336.908
101.209
45.374
15.4495
854.635
249.11
102.703
33.7826
455.501
150.707
50.8072
16.7418
188.037
77.7479
7.89797
1.45754
98.1819
53.1085
9.3103
2.66502
582.971
186
64.9856
18.3467
517.054
161.46
70.828
19.098
831.34
249.362
105.762
32.1966
686.544
204.135
95.5883
21.5164
336.146
116.673
36.5105
12.476
324.752
107.774
46.0994
14.0928
138.305
57.4345
18.6179
6.81583
137.671
52.8123
23.2319
8.48587
992.121
275.449
102.401
29.2307
932.157
262.428
115.798
28.4873
959.389
269.425
105.179
29.7942
886.054
249.64
112.95
26.7821
929.304
264.363
114.681
32.9917
791.521
222.488
107.695
25.6
804.243
230.582
109.937
35.6605
844.326
235.313
128.496
32.5536
587.988
168.83
82.0858
21.7068
678.056
183.71
86.1404
20.1153
246.771
63.526
26.9239
7.38914
668.308
181.026
84.5255
19.3708
252.001
65.0209
27.78
7.78598
634.286
170.497
82.221
18.3134
247.546
63.6282
28.2869
8.18537
541.529
142.941
75.844
17.9208
223.61
55.8092
28.6453