/*--------------------------------*- C++ -*----------------------------------*\
| =========                 |                                                 |
| \\      /  F ield         | OpenFOAM: The Open Source CFD Toolbox           |
|  \\    /   O peration     | Version:  2412                                  |
|   \\  /    A nd           | Website:  www.openfoam.com                      |
|    \\/     M anipulation  |                                                 |
\*---------------------------------------------------------------------------*/
FoamFile
{
    version     2.0;
    format      ascii;
    arch        "LSB;label=32;scalar=64";
    class       volScalarField;
    location    "0.5";
    object      T;
}
// * * * * * * * * * * * * * * * * * * * * * * * * * * * * * * * * * * * * * //

dimensions      [0 0 0 1 0 0 0];

internalField   nonuniform List<scalar> 
5712
(
526.965
550.333
509.783
537.506
487.592
518.956
455.268
488.385
460.581
493.846
490.858
524.281
505.18
536.095
518.875
545.918
474.375
450.392
498.397
462.647
443.627
419.505
465.391
429.322
536.55
544.469
555.543
559.609
522.57
532.874
544.984
551.333
521.194
502.15
484.719
473.126
519.769
536.516
525.612
533.14
473.896
483.521
496.301
503.661
439.756
447.484
539.855
546.969
498.3
511.605
553.961
562.4
549.64
562.83
562.89
568.923
538.604
558.464
555.26
566.026
523.701
550.994
539.596
559.631
550.127
563.497
556.315
565.814
428.494
407.651
440.225
413.677
392.978
375.89
403.473
381.561
473.356
445.649
461.665
438.685
447.799
417.347
451.749
418.834
410.451
384.971
413.928
386.286
481.281
449.923
485.406
451.691
507.925
548.804
482.348
530.59
496.637
541.317
474.017
523.563
515.136
552.366
487.029
534.425
518.682
553.78
488.905
536.545
538.685
516.853
556.257
540.202
525.785
504
550.58
532.703
507.638
486.011
540.734
521.07
403.715
365.15
443.572
479.906
526.816
363.164
399.802
434.549
467.124
509.141
362.597
396.976
429.233
462.116
509.523
474.734
436.596
480.864
444.076
467.91
430.502
478.801
441.811
457.223
422.342
475.046
438.724
353.866
337.014
387.998
366.98
418.332
391.479
444.471
412.862
472.035
436.63
352.872
335.162
384.192
363.466
413.022
387.978
441.428
411.49
471.651
436.368
386.358
371.843
387.875
374.647
354.159
332.759
354.933
332.558
419.108
407.064
416.799
402.316
388.71
375.527
389.659
376.693
356.031
332.943
357.086
334.317
419.991
408.225
421.199
409.635
451.173
438.442
482.411
469.537
447.973
432.176
479.115
461.968
451.755
439.424
483.437
471.699
452.576
440.433
483.52
471.409
393.397
358.253
339.332
397.245
360.401
341.043
389.407
354.292
335.628
395.416
357.77
338
381.598
346.811
328.541
392.576
353.494
333.31
316.225
300.552
292.612
340.029
316.133
303.79
358.944
328.945
313.177
374.045
339.936
322.12
389.078
348.822
328.015
314.119
298.653
290.672
338.096
315.222
303.109
356.201
327.14
311.728
371.498
336.546
318.351
384.652
344.544
324.031
374.27
359.006
378.667
363.274
406.419
386.239
417.224
393.589
344.941
325.613
346.103
327.132
346.146
326.237
347.707
328.107
345.466
342.769
344.159
338.43
325.34
328.428
365.746
368.012
398.648
402.728
346.185
347.295
345.946
346.657
329.681
329.842
306.66
290.856
310.806
292.877
307.821
290.531
311.758
292.704
308.409
289.98
313.2
292.709
314.859
293.523
315.38
293.858
336.176
323.639
342.946
328.017
361.054
345.739
370.207
351.198
323.638
311.027
317.685
307.598
346.38
330.337
347.93
331.137
375.383
354.203
377.862
355.242
326.182
312.818
327.063
313.435
308.135
290.601
298.768
287.321
303.613
288.525
296.426
286.094
310.314
291.789
300.07
288.016
311.104
292.372
300.592
288.279
293.029
285.926
286.609
282.822
293.812
286.947
286.392
282.916
294.759
289.093
286.085
283.345
316.17
334.792
303.668
295.621
285.547
332.621
312.98
299.012
291.285
283.585
332.87
314.391
301.625
293.007
284.585
281.566
278.613
279.835
277.495
282.782
279.536
280.251
277.907
284.956
281.415
280.979
278.637
325.057
312.113
306.59
297.245
294.933
289.168
288
283.894
281.933
279.617
324.829
311.529
308.14
298.612
296.93
290.437
289.418
284.822
283.128
280.716
310.831
299.376
312.037
299.597
326.947
310.914
328.666
310.525
300.071
291.832
299.134
291.415
312.912
299.679
313.669
300.467
330.368
310.063
331.467
311.083
300.653
292.104
301.133
292.622
290.993
285.989
284.399
281.34
290.782
285.487
284.038
281.16
291.047
286.394
284.524
281.419
291.673
286.659
284.635
281.764
275.908
274.457
273.881
274.595
273.719
273.419
276.653
274.898
274.167
274.878
273.889
273.522
277.95
275.668
274.711
275.353
274.146
273.694
298.322
288.662
283.987
288.636
282.542
279.669
283.204
279.071
277.192
279.526
276.628
275.367
275.864
274.448
273.872
297.375
287.63
282.929
289.01
282.349
279.197
283.685
279.079
276.957
279.793
276.768
275.45
276.264
274.673
273.969
280.369
275.813
274.096
273.398
281.04
276.003
274.161
273.414
280.23
275.782
274.096
273.401
281.01
276.009
274.183
273.425
279.976
275.72
274.098
273.407
280.94
276.01
274.207
273.437
281.196
276.11
274.216
273.437
281.336
276.178
274.216
273.435
280.289
275.834
274.146
273.424
279.302
275.547
274.016
273.394
279.572
275.61
274.071
273.408
278.88
275.411
273.971
273.386
280.719
275.98
274.178
273.429
279.582
275.645
274.041
273.399
280.941
276.066
274.196
273.433
279.738
275.707
274.06
273.406
279.237
275.505
273.999
273.375
278.02
275.161
273.875
273.347
279.118
275.474
273.992
273.376
278.004
275.157
273.872
273.348
278.932
275.424
273.982
273.376
278.066
275.177
273.877
273.351
278.662
275.345
273.956
273.376
278.083
275.182
273.881
273.359
278.414
275.273
273.918
273.376
277.046
274.888
273.734
273.315
276.556
274.763
273.67
273.291
277.162
274.923
273.747
273.32
276.685
274.801
273.682
273.296
277.358
274.981
273.765
273.327
276.91
274.869
273.701
273.304
277.619
275.054
273.796
273.34
277.223
274.959
273.731
273.314
277.988
275.155
273.834
273.352
277.57
275.057
273.759
273.324
278.479
275.324
273.868
273.362
278.048
275.227
273.805
273.34
278.278
275.246
273.854
273.358
277.874
275.154
273.785
273.333
278.601
275.382
273.873
273.365
278.161
275.283
273.813
273.343
278.691
275.427
273.885
273.37
278.254
275.326
273.824
273.348
273.142
273.053
273.019
273.007
273.003
273.145
273.054
273.019
273.007
273.003
273.143
273.053
273.019
273.007
273.003
273.146
273.054
273.019
273.007
273.003
273.143
273.054
273.019
273.007
273.003
273.148
273.055
273.019
273.007
273.003
273.152
273.056
273.02
273.007
273.003
273.155
273.057
273.02
273.007
273.003
273.147
273.055
273.02
273.007
273.003
273.145
273.055
273.02
273.007
273.003
273.144
273.054
273.019
273.007
273.003
273.143
273.054
273.019
273.007
273.003
273.151
273.056
273.02
273.007
273.003
273.147
273.055
273.02
273.007
273.003
273.154
273.057
273.02
273.007
273.003
273.15
273.057
273.02
273.007
273.003
273.138
273.052
273.019
273.007
273.003
273.135
273.052
273.019
273.007
273.003
273.139
273.053
273.019
273.007
273.003
273.136
273.052
273.019
273.007
273.003
273.139
273.053
273.019
273.007
273.003
273.137
273.053
273.019
273.007
273.003
273.14
273.053
273.019
273.007
273.003
273.139
273.053
273.019
273.007
273.003
273.141
273.054
273.019
273.007
273.003
496.671
486.806
496.405
486.711
495.817
486.466
495.258
485.922
495.575
485.999
500.443
495.556
498.263
491.813
501.507
497.016
502.101
497.655
556.239
568.996
571.935
572.663
572.841
542.208
564.916
570.855
572.339
572.697
556.709
569.166
571.986
572.68
572.849
542.534
565.092
570.913
572.36
572.709
557.104
569.329
572.035
572.695
572.856
542.872
565.275
570.972
572.378
572.716
557.64
569.511
572.082
572.707
572.859
543.212
565.416
571.002
572.38
572.714
558.165
569.612
572.09
572.701
572.853
543.583
565.441
570.97
572.353
572.694
556.283
568.684
571.735
572.55
572.765
543.338
564.607
570.549
572.152
572.572
557.037
569.109
571.908
572.627
572.811
543.416
565.024
570.771
572.261
572.639
555.747
568.386
571.606
572.49
572.728
543.239
564.335
570.393
572.071
572.521
555.995
568.414
571.596
572.479
572.719
543.427
564.309
570.349
572.04
572.499
381.043
426.584
423.525
379.443
360.076
362.113
368.004
371.597
381.982
386.022
411.939
421.377
417.76
426.913
391.764
395.206
381.294
384.325
371.681
374.034
313.363
299.159
275.483
274.386
274.64
274.278
275.072
308.725
299.684
290.378
289.151
283.809
279.213
282.953
279.314
277.224
277.73
276.542
306.827
287.896
279.042
278.714
281.722
280.296
277.795
277.218
275.647
275.362
276.883
276.85
308.795
293.081
296.841
286.271
282.622
288.921
277.774
275.591
278.532
302.004
293.255
287.106
281.927
276.283
292.935
287.496
282.987
279.053
275.061
275.124
274.685
274.198
273.71
273.235
274.197
273.959
273.687
273.41
273.136
274.415
274.132
273.811
273.482
273.16
274.105
273.887
273.637
273.38
273.126
274.779
274.417
274.01
273.6
273.198
299.108
290.796
285.079
280.449
275.818
292.011
285.853
281.562
278.11
274.78
286.417
282.694
279.538
276.847
274.297
284.555
280.81
278.131
275.983
274.032
280.807
278.263
276.431
274.969
273.662
278.089
276.865
275.658
274.548
273.51
280.862
278.784
276.907
275.267
273.751
278.068
276.777
275.562
274.479
273.485
276.529
275.73
274.9
274.111
273.365
276.905
275.987
275.061
274.2
273.394
275.979
275.32
274.622
273.95
273.312
298.06
290.319
284.889
280.371
275.755
284.833
281.747
278.973
276.52
274.174
278.007
276.844
275.665
274.56
273.514
277.764
276.679
275.562
274.504
273.496
280.135
278.413
276.734
275.191
273.724
279.061
277.66
276.239
274.901
273.626
277.042
276.156
275.216
274.306
273.43
276.564
275.789
274.96
274.155
273.381
275.258
274.784
274.263
273.746
273.246
275.022
274.605
274.14
273.675
273.223
276.272
275.552
274.788
274.051
273.346
276.254
275.548
274.791
274.054
273.347
299.132
291.217
285.651
280.945
275.934
288.676
284.547
280.957
277.772
274.615
291.79
286.301
282.091
278.443
274.728
283.77
281.099
278.589
276.297
274.085
280.93
279.045
277.186
275.459
273.808
285.745
282.4
279.427
276.786
274.228
277.023
276.138
275.202
274.297
273.427
275.213
274.752
274.243
273.736
273.243
277.631
276.589
275.506
274.472
273.485
467.417
529.121
456.376
514.884
427.649
489.541
437.418
504.798
443.87
428.357
486.534
451.867
415.089
398.974
454.136
418.915
490.221
510.779
540.105
548.396
481.615
502.124
530.533
540.661
509.206
473.06
474.616
452.43
495.442
526.57
521.393
532.143
468.594
482.071
491.665
502.347
434.349
445.837
535.975
546.144
493.719
510.431
551.171
561.94
530.873
556.536
556.26
566.708
520.503
552.658
548.447
563.811
508.799
546.289
532.526
557.304
547.413
562.517
555.743
565.59
418.338
402.942
433.422
409.958
384.446
372.485
397.337
378.366
466.916
442.129
451.682
433.825
444.142
415.077
450.675
418.049
406.969
382.897
412.871
385.551
477.936
447.838
484.432
450.979
502.873
547.026
479.7
529.525
488.328
538.368
470.128
522.04
512.605
551.461
485.499
533.811
517.962
553.515
488.386
536.344
510.219
486.484
546.916
530.061
499.365
476.621
542.478
524.14
486.769
465.61
534.574
515.102
401.848
370.267
435.584
469.777
523.111
369.704
398.256
425.542
455.553
505.203
365.967
395.108
424.267
457.123
507.696
449.583
420.716
471.542
443.209
444.896
416.047
471.333
441.905
439.631
411.883
470.416
440.316
359.029
343.395
385.968
367.177
410.628
387.81
435.687
409.513
469.539
439.146
355.988
339.286
383.399
365.736
410.034
389.487
438.59
413.586
470.774
439.563
384.682
371.713
386.219
373.844
354.134
334.101
354.027
332.638
417.237
405.935
414.419
401.581
387.575
374.822
389.251
376.427
355.201
332.651
356.763
334.175
418.804
407.375
420.784
409.327
449.637
437.374
481.44
468.782
445.907
431.542
478.022
461.764
450.782
438.618
482.789
471.103
452.216
440.132
483.311
471.205
399.402
388.337
418.539
407.024
394.635
382.34
416.338
402.39
389.752
376.211
412.907
395.159
328.61
319.854
350.312
338.532
368.733
354.492
386.711
370.648
408.423
386.744
322.083
314.281
348.422
336.899
368.315
353.389
386.083
367.147
402.007
379.633
353.692
345.583
366.346
355.249
382.35
369.305
405.619
384.199
334.398
317.679
340.426
321.8
333.076
318.059
339.924
322.652
338.199
330.748
338.276
329.516
318.342
323.64
361.052
366.492
393.354
400.999
341.819
345.787
342.301
345.39
326.59
328.727
306.29
292.466
308.607
293.268
307.109
292.014
309.469
292.971
307.684
291.301
311.104
292.847
313.194
293.417
314.74
293.784
332.654
323.826
339.235
326.921
355.056
344.33
365.175
349.032
321.544
310.834
316.76
308.795
343.96
329.336
347.146
330.741
372.314
352.615
376.895
354.654
324.599
312.372
326.514
313.23
307.478
290.968
299.095
287.859
304.535
289.774
297.927
287.319
309.538
291.819
300.007
288.206
310.801
292.351
300.528
288.32
302.644
299.789
290.856
288.972
303.106
300.249
290.279
288.465
302.978
300.28
289.436
287.793
324.929
343.994
311.007
301.041
288.253
344.184
324.759
309.736
299.324
287.224
339.765
320.949
306.879
296.889
286.791
297.027
293.612
286.792
283.7
297.536
294.087
286.473
283.544
297.53
293.895
285.984
283.25
335.491
323.297
318.443
309.692
306.008
300.605
296.619
292.65
285.832
283.342
331.173
317.707
314.917
305.237
302.704
296.143
293.766
289.11
285.632
283.354
313.039
301.875
312.439
300.374
328.56
313.239
328.592
311.144
300.733
292.624
301.377
293.675
312.763
299.778
313.56
300.451
329.915
310.044
331.255
311.026
300.721
292.272
301.106
292.637
291.688
286.668
285.008
281.865
292.7
287.266
285.377
282.376
291.242
286.586
284.753
281.598
291.703
286.694
284.685
281.801
290.616
289.128
279.007
278.293
291.5
289.615
279.084
278.294
290.627
288.117
279.06
278.08
312.383
305.838
302.184
297.575
295.203
291.773
288.582
285.927
279.055
277.798
305.231
299.937
296.383
292.449
289.742
286.887
284.217
282.424
278.517
277.385
281.342
276.224
274.26
273.458
281.662
276.322
274.302
273.47
281.134
276.166
274.25
273.457
281.526
276.283
274.307
273.475
280.777
276.061
274.237
273.458
281.325
276.224
274.307
273.477
281.387
276.234
274.276
273.46
281.392
276.219
274.237
273.443
280.639
276.011
274.227
273.457
279.652
275.711
274.088
273.425
280.239
275.894
274.189
273.453
279.505
275.672
274.073
273.426
280.878
276.077
274.226
273.45
279.751
275.734
274.082
273.418
280.986
276.096
274.212
273.44
279.787
275.735
274.074
273.412
280.787
276.053
274.195
273.442
280.09
275.845
274.097
273.421
280.568
275.995
274.18
273.44
279.919
275.803
274.082
273.42
280.226
275.898
274.154
273.436
279.674
275.74
274.064
273.416
279.743
275.751
274.106
273.43
279.44
275.671
274.045
273.418
279.34
275.628
274.046
273.423
279.4
275.664
273.963
273.398
278.967
275.575
273.905
273.379
279.309
275.644
273.963
273.399
278.883
275.554
273.903
273.379
279.156
275.605
273.957
273.398
278.754
275.519
273.896
273.378
279.055
275.567
273.96
273.401
278.686
275.487
273.894
273.378
278.998
275.535
273.965
273.403
278.641
275.456
273.89
273.377
278.844
275.491
273.934
273.391
278.409
275.394
273.867
273.367
278.93
275.513
273.951
273.399
278.535
275.426
273.88
273.373
278.774
275.47
273.91
273.382
278.327
275.369
273.847
273.359
278.74
275.454
273.897
273.375
278.3
275.352
273.835
273.353
273.162
273.06
273.021
273.007
273.003
273.164
273.06
273.021
273.007
273.003
273.161
273.06
273.021
273.007
273.003
273.163
273.06
273.021
273.007
273.003
273.16
273.059
273.021
273.007
273.003
273.161
273.059
273.021
273.007
273.003
273.16
273.059
273.021
273.007
273.003
273.158
273.058
273.021
273.007
273.003
273.159
273.059
273.021
273.007
273.003
273.156
273.059
273.021
273.007
273.003
273.158
273.059
273.021
273.007
273.003
273.156
273.059
273.021
273.007
273.003
273.158
273.059
273.021
273.007
273.003
273.155
273.058
273.021
273.007
273.003
273.156
273.058
273.021
273.007
273.003
273.153
273.058
273.021
273.007
273.003
273.16
273.06
273.021
273.007
273.003
273.158
273.059
273.021
273.007
273.003
273.159
273.059
273.021
273.007
273.003
273.157
273.059
273.021
273.007
273.003
273.158
273.059
273.021
273.007
273.003
273.156
273.059
273.021
273.007
273.003
273.156
273.059
273.021
273.007
273.003
273.156
273.059
273.021
273.007
273.003
273.156
273.059
273.021
273.007
273.003
492.665
484.68
493.101
485.129
493.612
485.727
494.012
485.898
494.96
486.364
499.858
495.018
497.647
491.495
501.093
496.598
501.958
497.509
555.632
568.877
571.909
572.657
572.839
541.331
564.69
570.802
572.328
572.695
556.202
569.065
571.963
572.675
572.848
541.804
564.896
570.866
572.35
572.706
556.745
569.252
572.017
572.691
572.855
542.367
565.123
570.934
572.369
572.714
557.42
569.458
572.069
572.703
572.858
542.919
565.309
570.973
572.373
572.712
558.036
569.576
572.081
572.699
572.852
543.412
565.364
570.948
572.348
572.692
556.166
568.656
571.728
572.548
572.765
543.139
564.553
570.535
572.149
572.571
556.914
569.077
571.9
572.625
572.81
543.224
564.96
570.754
572.257
572.638
555.661
568.366
571.601
572.489
572.728
543.093
564.298
570.384
572.069
572.521
555.966
568.407
571.594
572.478
572.719
543.376
564.296
570.346
572.039
572.499
379.015
424.498
417.098
372.929
358.591
368.272
356.528
368.123
388.878
413.271
393.61
416.843
273.034
273.054
273.106
273.215
273.426
273.812
273.05
273.077
273.143
273.274
273.516
273.943
273.023
273.018
273.039
273.031
273.082
273.069
273.18
273.162
273.381
273.362
273.76
273.745
274.486
275.691
277.921
282.024
286.262
289.67
274.67
275.862
277.712
280.244
282.767
284.481
273.03
273.024
273.018
273.011
273.004
273.048
273.039
273.029
273.017
273.006
273.093
273.076
273.056
273.034
273.011
273.189
273.154
273.112
273.068
273.023
273.372
273.302
273.219
273.132
273.044
273.705
273.569
273.41
273.245
273.081
273.044
273.036
273.027
273.016
273.005
273.068
273.055
273.041
273.025
273.008
273.125
273.102
273.075
273.045
273.015
273.239
273.195
273.141
273.085
273.028
273.449
273.363
273.263
273.158
273.052
273.817
273.657
273.473
273.282
273.094
273.02
273.017
273.012
273.007
273.002
273.016
273.013
273.01
273.006
273.002
273.034
273.028
273.021
273.013
273.004
273.028
273.023
273.017
273.01
273.003
273.072
273.059
273.043
273.026
273.009
273.061
273.05
273.037
273.022
273.007
273.158
273.129
273.094
273.057
273.019
273.142
273.116
273.085
273.051
273.017
273.333
273.27
273.196
273.118
273.039
273.317
273.258
273.188
273.113
273.038
273.661
273.534
273.385
273.231
273.077
273.648
273.524
273.379
273.227
273.075
274.282
274.026
273.735
273.438
273.145
275.301
274.824
274.297
273.769
273.254
277.154
276.25
275.288
274.351
273.446
280.473
278.743
277.002
275.36
273.78
283.766
281.157
278.656
276.348
274.115
286.336
283.004
279.919
277.113
274.375
274.438
274.149
273.822
273.489
273.162
275.446
274.939
274.378
273.817
273.27
276.991
276.135
275.213
274.308
273.432
279.072
277.723
276.313
274.955
273.646
281.107
279.254
277.368
275.578
273.853
282.468
280.266
278.064
275.991
273.991
273.034
273.055
273.109
273.222
273.441
273.841
273.05
273.078
273.146
273.281
273.528
273.964
273.023
273.018
273.04
273.032
273.085
273.072
273.188
273.169
273.4
273.385
273.805
273.813
274.535
275.76
278.004
282.082
286.278
289.667
274.7
275.9
277.752
280.274
282.779
284.483
273.03
273.025
273.018
273.011
273.004
273.049
273.04
273.029
273.018
273.006
273.096
273.079
273.058
273.035
273.012
273.195
273.159
273.116
273.07
273.023
273.385
273.313
273.227
273.137
273.046
273.731
273.591
273.427
273.256
273.085
273.044
273.037
273.027
273.016
273.005
273.069
273.057
273.041
273.025
273.008
273.128
273.105
273.077
273.046
273.015
273.245
273.2
273.145
273.087
273.029
273.46
273.373
273.27
273.162
273.054
273.836
273.673
273.485
273.29
273.096
273.02
273.017
273.012
273.008
273.003
273.016
273.013
273.01
273.006
273.002
273.035
273.029
273.021
273.013
273.004
273.029
273.024
273.017
273.011
273.004
273.075
273.061
273.045
273.027
273.009
273.064
273.052
273.038
273.023
273.008
273.165
273.135
273.098
273.06
273.02
273.149
273.122
273.089
273.054
273.018
273.35
273.285
273.207
273.125
273.042
273.337
273.275
273.2
273.121
273.04
273.701
273.567
273.41
273.246
273.082
273.708
273.574
273.416
273.25
273.083
274.326
274.063
273.764
273.456
273.151
275.364
274.878
274.338
273.795
273.263
277.232
276.319
275.343
274.386
273.458
280.534
278.803
277.054
275.395
273.792
283.792
281.188
278.687
276.371
274.123
286.339
283.011
279.928
277.12
274.378
274.466
274.173
273.84
273.501
273.166
275.482
274.97
274.403
273.833
273.276
277.03
276.17
275.241
274.327
273.439
279.104
277.753
276.339
274.972
273.652
281.123
279.272
277.385
275.59
273.858
282.472
280.272
278.07
275.995
273.993
313.301
299.138
275.614
274.468
274.92
274.44
275.289
310.84
305.015
292.868
296.734
280.973
285.821
278.678
280.132
277.957
307.521
288.93
280.092
279.393
282.514
280.73
277.988
277.61
276.501
275.912
277.786
277.447
308.752
293.101
297.179
286.417
282.895
289.473
278.081
275.932
279.031
301.982
293.26
287.126
281.951
276.295
292.932
287.505
283.002
279.068
275.068
275.243
274.785
274.273
273.757
273.251
274.27
274.02
273.733
273.438
273.145
274.662
274.335
273.96
273.574
273.19
274.248
274.005
273.724
273.433
273.144
274.973
274.577
274.13
273.673
273.223
301.424
292.951
286.874
281.703
276.309
297.154
290.133
284.918
280.374
275.647
288.744
284.689
281.09
277.859
274.659
291.421
286.136
282.088
278.544
274.992
279.649
278.15
276.613
275.141
273.713
283.429
280.903
278.496
276.271
274.103
277.803
276.77
275.665
274.58
273.524
278.985
277.662
276.28
274.943
273.645
277.215
276.325
275.358
274.399
273.464
298.908
291.185
285.654
280.925
275.979
285.817
282.615
279.659
276.969
274.334
278.946
277.627
276.252
274.925
273.639
278.376
277.194
275.952
274.748
273.579
280.863
279.038
277.216
275.497
273.831
279.46
278.005
276.506
275.071
273.685
277.22
276.309
275.335
274.382
273.456
276.917
276.086
275.184
274.294
273.428
276.004
275.391
274.706
274.015
273.336
275.504
274.999
274.429
273.851
273.282
277.07
276.21
275.275
274.35
273.447
276.786
275.989
275.12
274.258
273.416
299.191
291.328
285.78
281.056
275.986
288.725
284.613
281.024
277.824
274.635
292.183
286.694
282.436
278.686
274.812
283.924
281.25
278.717
276.385
274.116
281.192
279.28
277.375
275.582
273.851
286.291
282.897
279.831
277.055
274.323
277.302
276.376
275.384
274.411
273.466
275.516
275.002
274.429
273.85
273.281
278.082
276.971
275.796
274.654
273.547
273.793
275.38
277.017
278.735
280.427
281.934
436.7
429.384
402.294
409.196
418.791
409.533
392.693
381.718
461.65
486.009
455.748
478.825
447.848
434.798
471.562
419.908
414.786
389.732
394.762
406.376
399.834
382.119
374.081
442.561
460.455
438.87
455.848
432.635
422.446
450.727
396.207
393.414
371.69
374.706
388.099
384.987
366.659
361.708
415.473
432.02
413.538
429.529
410.276
404.232
426.574
372.002
370.508
352.361
354.199
367.221
365.755
349.017
345.649
389.339
405.274
388.277
403.217
386.094
381.58
400.803
354.579
353.536
338.216
339.59
350.769
349.299
335.465
332.12
369.758
383.831
369.133
382.851
367.391
363.245
380.68
342.756
341.864
328.652
329.816
339.338
337.853
326.251
323.272
355.889
369.667
355.317
369.025
353.782
349.864
366.642
348.914
346.108
372.715
377.126
342.506
335.697
366.407
356.633
327.266
310.745
325.422
310.557
321.349
320.264
310.22
342.69
340.12
363.869
367.441
336.844
330.79
358.466
350.305
321.249
307.915
319.452
308.016
316.072
315.496
307.718
333.297
331.236
350.598
353.088
328.61
323.996
346.641
340.861
317.076
305.619
315.698
305.352
312.991
312.524
304.732
322.579
320.911
335.704
337.443
318.426
314.311
332.725
327.884
310.903
302.315
309.65
301.568
307.238
306.303
300.431
314.564
313.173
324.719
326.091
311.117
307.557
322.236
317.999
305.861
299.787
304.653
298.529
302.387
301.054
296.874
309.227
308.001
317.326
318.502
306.209
303.012
315.162
311.478
302.82
297.554
301.619
296.014
299.138
297.547
294.177
527.832
550.911
509.783
537.468
487.594
518.941
455.273
488.383
460.592
493.846
490.874
524.273
505.21
536.082
519.993
546.676
474.372
450.387
498.388
462.641
443.628
419.504
465.389
429.32
537.195
544.972
555.945
559.917
522.558
532.848
544.938
551.289
521.176
502.137
484.71
473.118
519.75
536.495
525.609
533.138
473.892
483.518
496.3
503.66
439.754
447.482
539.85
546.967
498.295
511.602
553.956
562.398
550.057
563.026
563.144
569.03
538.57
558.455
555.223
566.015
523.682
550.988
539.58
559.625
550.121
563.494
556.313
565.813
428.49
407.647
440.22
413.673
392.976
375.888
403.471
381.559
473.35
445.645
461.658
438.68
447.796
417.345
451.745
418.831
410.449
384.969
413.926
386.284
481.277
449.919
485.402
451.688
507.917
548.801
482.344
530.589
496.627
541.313
474.012
523.562
515.132
552.364
487.026
534.424
518.678
553.779
488.902
536.544
539.109
517.238
556.503
540.47
525.735
503.942
550.567
532.683
507.613
485.988
540.726
521.064
403.711
365.147
443.565
479.895
526.812
363.162
399.797
434.542
467.113
509.138
362.595
396.973
429.228
462.11
509.521
475.006
436.764
481.059
444.183
467.89
430.475
478.824
441.823
457.21
422.332
475.051
438.729
353.864
337.012
387.994
366.977
418.326
391.476
444.464
412.857
472.036
436.632
352.87
335.16
384.188
363.464
413.018
387.976
441.425
411.488
471.65
436.368
386.356
371.841
387.872
374.645
354.157
332.757
354.931
332.557
419.106
407.062
416.796
402.314
388.707
375.525
389.657
376.692
356.029
332.941
357.085
334.315
419.988
408.223
421.197
409.633
451.171
438.44
482.41
469.536
447.971
432.174
479.114
461.967
451.753
439.422
483.436
471.698
452.574
440.431
483.519
471.408
393.538
358.395
339.485
397.326
360.505
341.165
389.395
354.284
335.625
395.422
357.773
338.004
381.593
346.807
328.54
392.578
353.495
333.312
316.223
300.551
292.612
340.027
316.132
303.789
358.942
328.944
313.177
374.042
339.935
322.119
389.079
348.822
328.016
314.117
298.653
290.672
338.094
315.221
303.109
356.199
327.139
311.727
371.496
336.545
318.35
384.652
344.544
324.031
374.275
359.007
378.672
363.274
406.423
386.239
417.227
393.588
344.791
325.551
345.924
327.054
346.127
326.221
347.686
328.092
345.46
342.763
344.156
338.427
325.332
328.421
365.746
368.012
398.647
402.727
346.183
347.295
345.945
346.657
329.678
329.842
306.618
290.855
310.758
292.876
307.816
290.524
311.752
292.699
308.404
289.976
313.195
292.705
314.856
293.52
315.379
293.857
336.175
323.638
342.945
328.016
361.053
345.738
370.206
351.197
323.636
311.026
317.683
307.597
346.379
330.336
347.93
331.136
375.382
354.202
377.861
355.24
326.18
312.817
327.063
313.434
308.132
290.598
298.767
287.32
303.61
288.522
296.425
286.092
310.313
291.788
300.069
288.015
311.104
292.371
300.591
288.279
293.001
285.888
286.605
282.808
293.811
286.949
286.386
282.913
294.757
289.093
286.081
283.343
316.168
334.791
303.666
295.62
285.545
332.619
312.979
299.011
291.284
283.583
332.868
314.39
301.623
293.006
284.584
281.526
278.579
279.823
277.483
282.786
279.539
280.252
277.909
284.956
281.416
280.979
278.637
325.056
312.112
306.589
297.245
294.933
289.168
287.999
283.894
281.932
279.617
324.828
311.528
308.139
298.612
296.929
290.436
289.417
284.821
283.127
280.715
310.83
299.375
312.036
299.596
326.946
310.913
328.665
310.524
300.07
291.831
299.133
291.414
312.911
299.678
313.668
300.466
330.366
310.062
331.465
311.083
300.652
292.104
301.132
292.622
290.993
285.988
284.398
281.34
290.781
285.486
284.038
281.16
291.046
286.393
284.523
281.418
291.672
286.659
284.634
281.763
275.885
274.444
273.872
274.591
273.717
273.417
276.657
274.901
274.168
274.88
273.89
273.523
277.952
275.669
274.711
275.353
274.147
273.694
298.321
288.662
283.987
288.636
282.541
279.669
283.204
279.071
277.192
279.526
276.628
275.368
275.865
274.448
273.872
297.374
287.629
282.928
289.009
282.349
279.196
283.685
279.079
276.957
279.793
276.768
275.45
276.264
274.673
273.969
280.373
275.815
274.096
273.398
281.042
276.003
274.16
273.414
280.228
275.782
274.096
273.401
281.01
276.009
274.183
273.425
279.975
275.72
274.097
273.407
280.938
276.01
274.207
273.437
281.195
276.109
274.216
273.437
281.336
276.177
274.216
273.435
280.288
275.834
274.146
273.424
279.301
275.546
274.016
273.394
279.571
275.61
274.071
273.408
278.88
275.411
273.97
273.386
280.718
275.98
274.177
273.428
279.581
275.645
274.041
273.399
280.941
276.066
274.196
273.433
279.737
275.707
274.06
273.406
279.24
275.506
273.999
273.375
278.019
275.16
273.874
273.347
279.116
275.474
273.992
273.375
278.003
275.157
273.872
273.348
278.931
275.423
273.982
273.376
278.065
275.177
273.877
273.351
278.661
275.344
273.956
273.376
278.082
275.182
273.881
273.359
278.413
275.273
273.918
273.376
277.045
274.888
273.734
273.315
276.553
274.762
273.67
273.291
277.163
274.923
273.747
273.32
276.686
274.802
273.682
273.296
277.358
274.981
273.765
273.327
276.91
274.869
273.701
273.304
277.619
275.054
273.796
273.34
277.222
274.959
273.731
273.314
277.987
275.155
273.834
273.352
277.569
275.056
273.759
273.324
278.479
275.324
273.868
273.362
278.048
275.227
273.805
273.34
278.278
275.245
273.853
273.358
277.873
275.154
273.785
273.333
278.6
275.381
273.873
273.365
278.161
275.283
273.813
273.343
278.691
275.427
273.885
273.37
278.254
275.326
273.824
273.348
273.142
273.053
273.019
273.007
273.003
273.145
273.054
273.019
273.007
273.003
273.143
273.053
273.019
273.007
273.003
273.146
273.054
273.019
273.007
273.003
273.143
273.054
273.019
273.007
273.003
273.148
273.055
273.019
273.007
273.003
273.152
273.056
273.02
273.007
273.003
273.155
273.057
273.02
273.007
273.003
273.147
273.055
273.02
273.007
273.003
273.145
273.055
273.02
273.007
273.003
273.144
273.054
273.019
273.007
273.003
273.143
273.054
273.019
273.007
273.003
273.151
273.056
273.02
273.007
273.003
273.147
273.055
273.02
273.007
273.003
273.154
273.057
273.02
273.007
273.003
273.15
273.057
273.02
273.007
273.003
273.138
273.052
273.019
273.007
273.003
273.135
273.052
273.019
273.007
273.003
273.139
273.053
273.019
273.007
273.003
273.136
273.052
273.019
273.007
273.003
273.139
273.053
273.019
273.007
273.003
273.137
273.053
273.019
273.007
273.003
273.14
273.053
273.019
273.007
273.003
273.139
273.053
273.019
273.007
273.003
273.141
273.054
273.019
273.007
273.003
496.738
486.879
496.438
486.744
495.833
486.482
495.265
485.93
495.578
486.001
500.443
495.556
498.264
491.814
501.506
497.015
502.101
497.654
556.311
569.015
571.94
572.665
572.841
542.251
564.929
570.858
572.341
572.698
556.738
569.177
571.99
572.681
572.849
542.567
565.106
570.917
572.362
572.709
557.115
569.334
572.037
572.696
572.856
542.888