/*--------------------------------*- C++ -*----------------------------------*\
| =========                 |                                                 |
| \\      /  F ield         | OpenFOAM: The Open Source CFD Toolbox           |
|  \\    /   O peration     | Version:  2412                                  |
|   \\  /    A nd           | Website:  www.openfoam.com                      |
|    \\/     M anipulation  |                                                 |
\*---------------------------------------------------------------------------*/
FoamFile
{
    version     2.0;
    format      ascii;
    arch        "LSB;label=32;scalar=64";
    class       volVectorField;
    location    "1.7";
    object      flux;
}
// * * * * * * * * * * * * * * * * * * * * * * * * * * * * * * * * * * * * * //

dimensions      [0 1 -1 1 0 0 0];

internalField   nonuniform List<vector> 
5712
(
(-0.328048 0.530016 0.303446)
(-0.401155 0.291252 0.921157)
(-0.748607 0.921922 0.230459)
(-1.17101 0.604337 1.00693)
(-1.13228 0.888307 0.126151)
(-2.20918 0.756277 1.06506)
(-0.781309 1.30624 0.214354)
(-2.35131 1.62181 1.68289)
(-0.805538 1.99003 0.349807)
(-1.88488 2.52421 2.1123)
(-0.990862 1.05558 0.359077)
(-1.63055 0.928485 1.50116)
(-0.757555 0.649646 0.383635)
(-1.00332 0.448172 1.33534)
(-0.407643 0.429288 0.378355)
(-0.414281 0.244474 1.14826)
(-0.537442 0.877244 0.177558)
(-0.610947 0.784821 0.0978265)
(-0.733923 0.794693 0.536018)
(-0.666394 0.783033 0.255265)
(-0.508726 1.00643 0.16552)
(-0.765669 0.960367 0.076595)
(-0.757818 1.16591 0.576183)
(-0.758284 0.998467 0.23268)
(-0.216031 0.310817 0.232835)
(-0.15776 0.216297 0.172886)
(-0.292715 0.162131 0.686803)
(-0.210381 0.112068 0.505052)
(-0.490906 0.451462 0.156125)
(-0.32144 0.289845 0.123976)
(-0.905939 0.250658 0.690655)
(-0.634386 0.162487 0.525909)
(-0.753652 0.898536 0.351466)
(-0.76619 0.948184 0.1283)
(-0.768707 0.80195 0.268584)
(-0.783121 0.646859 0.0988161)
(-0.180497 0.645357 0.123243)
(-0.159047 0.507241 0.327815)
(-1.74892 0.549026 1.64978)
(-2.16218 0.52487 0.50348)
(-0.931782 0.731639 0.4967)
(-1.24242 0.720222 0.228218)
(-2.24902 1.4971 1.99767)
(-2.76814 1.65016 0.625091)
(-1.04177 1.06769 0.461189)
(-1.28199 1.13091 0.214998)
(-1.31292 0.778004 1.09624)
(-1.71577 0.612518 0.365112)
(-1.04815 0.790416 0.559608)
(-1.44985 0.554239 0.25442)
(-0.604045 0.33592 0.895721)
(-0.763361 0.290605 0.284397)
(-0.12482 0.253224 0.21849)
(-0.0396762 0.384058 0.118165)
(-0.161744 0.126176 0.372054)
(-0.0562193 0.173744 0.15136)
(-0.279579 0.335383 0.196464)
(-0.115207 0.511035 0.12295)
(-0.48202 0.211416 0.390167)
(-0.177348 0.292172 0.148292)
(-0.319114 0.340899 0.261023)
(-0.105968 0.61085 0.165514)
(-0.319144 0.260824 0.246406)
(-0.0905664 0.432764 0.104447)
(-0.625604 0.0810127 0.432206)
(-0.182553 0.289776 0.15686)
(-0.819112 0.0137977 0.16975)
(-0.257329 0.206994 0.0629991)
(-1.04978 0.743753 0.533992)
(-0.602115 0.896394 0.406297)
(-0.886413 0.785336 0.321388)
(-0.612434 0.890164 0.290848)
(-1.06981 0.937326 0.585776)
(-0.689756 0.951768 0.515)
(-0.848166 0.960582 0.316686)
(-0.684179 0.932454 0.33839)
(-0.69096 0.703902 0.301781)
(-0.498788 0.851711 0.262756)
(-0.760278 0.700173 0.400455)
(-0.482411 0.83826 0.346552)
(-0.860741 0.789043 0.237262)
(-0.633397 0.885088 0.20567)
(-0.889634 0.775324 0.136115)
(-0.649435 0.880171 0.117634)
(-0.831202 0.970702 0.233248)
(-0.698235 0.921317 0.233035)
(-0.863823 0.972613 0.131532)
(-0.71178 0.915061 0.132008)
(-0.712134 0.66214 0.22946)
(-0.527042 0.853808 0.182606)
(-0.767286 0.604265 0.132607)
(-0.546192 0.850398 0.094821)
(-0.762372 0.734884 0.261286)
(-0.314478 0.793236 0.147576)
(-0.437129 0.925304 0.265309)
(-0.500746 1.30705 0.289744)
(-0.821454 0.770417 0.352869)
(-0.363913 0.919848 0.267951)
(-0.435476 0.921257 0.38374)
(-0.526378 1.43483 0.499379)
(-0.763699 0.69487 0.18852)
(-0.292694 0.700812 0.0812758)
(-0.456579 0.919492 0.16898)
(-0.492121 1.23759 0.172863)
(-0.78934 0.667708 0.10567)
(-0.294297 0.642723 0.0372905)
(-0.479445 0.917769 0.0770201)
(-0.495746 1.20367 0.0662466)
(-0.120812 0.192634 0.256888)
(-0.136317 0.245428 0.513504)
(-0.0426418 0.526536 0.185374)
(-0.0856733 0.86719 0.579664)
(-0.348013 0.229969 0.278004)
(-0.409335 0.259347 0.518683)
(-0.144173 0.648536 0.220592)
(-0.276964 0.96848 0.615226)
(-0.566078 0.272144 0.362301)
(-0.672516 0.284108 0.511785)
(-0.258888 0.789708 0.304037)
(-0.466188 1.08442 0.622899)
(-0.714514 1.01979 0.38776)
(-0.37471 1.11957 0.451547)
(-0.733526 0.868564 0.310921)
(-0.889594 0.802055 0.31465)
(-0.452153 1.10944 0.376965)
(-0.271253 1.13931 0.298096)
(-0.434715 0.992664 0.339896)
(-0.511358 0.86732 0.475267)
(-0.904062 0.738476 0.559657)
(-0.587674 1.26265 0.814712)
(-0.416156 1.04382 0.404644)
(-0.549287 0.968196 0.337837)
(-0.613468 0.819163 0.329395)
(-0.599471 0.853497 0.416999)
(-0.751274 1.63017 0.654224)
(-0.133026 0.0682304 0.640954)
(-0.135966 0.0900357 0.622283)
(-0.082982 0.186436 0.74888)
(-0.088356 0.3892 0.757686)
(-0.394127 0.0963666 0.623641)
(-0.373159 0.134755 0.625703)
(-0.256806 0.245298 0.749302)
(-0.259819 0.450288 0.749039)
(-0.590364 0.144223 0.571762)
(-0.535767 0.139282 0.594843)
(-0.380564 0.326641 0.715535)
(-0.380655 0.530632 0.725755)
(-0.392054 1.10693 0.375066)
(-0.437134 1.09675 0.399304)
(-0.619139 0.923575 0.378446)
(-0.657111 0.877695 0.401686)
(-0.702415 0.786375 0.462561)
(-0.660146 0.693407 0.468641)
(-0.840764 0.577195 0.546045)
(-0.76887 0.507704 0.536861)
(-0.590427 0.45498 0.693791)
(-0.58777 0.681925 0.706643)
(-0.531897 0.979585 0.341228)
(-0.571888 0.879367 0.377541)
(-0.687332 0.909471 0.39341)
(-0.620659 0.84824 0.427864)
(-0.651272 0.772954 0.445692)
(-0.538022 0.709773 0.490506)
(-0.587622 0.672646 0.518618)
(-0.464203 0.590735 0.577896)
(-0.66117 0.539213 0.685006)
(-0.522076 0.74157 0.754171)
(-0.576719 0.937966 0.400349)
(-0.301142 0.996799 0.273749)
(-0.453881 0.972215 0.323191)
(-0.436992 1.06575 0.323046)
(-0.6353 0.940761 0.44194)
(-0.732918 0.866922 0.497588)
(-0.648879 0.956115 0.358906)
(-0.840877 0.91471 0.469706)
(-0.384072 0.854202 0.300774)
(-0.374219 0.86228 0.303016)
(-0.524139 0.841658 0.383849)
(-0.22771 0.834571 0.276602)
(-0.439923 0.989254 0.138636)
(-0.689034 1.09183 0.232726)
(-0.456066 0.982241 0.0560178)
(-0.737554 1.08153 0.0863264)
(-0.659138 0.96932 0.222019)
(-1.03269 0.953421 0.347109)
(-0.682216 0.958635 0.0859348)
(-1.05894 0.946666 0.129173)
(-0.374369 0.845944 0.119)
(-0.608172 0.855345 0.206869)
(-0.388613 0.856692 0.044397)
(-0.661043 0.861782 0.0753953)
(-0.462374 0.738136 0.289052)
(-0.339455 0.728198 0.245964)
(-0.597298 0.509257 0.29747)
(-0.264655 0.608514 0.187864)
(-0.49886 0.745146 0.408276)
(-0.175692 0.717399 0.293056)
(-0.564632 0.525764 0.467046)
(-0.125929 0.632671 0.315031)
(-0.481836 0.716994 0.137104)
(-0.490964 0.71705 0.156615)
(-0.626325 0.502257 0.169683)
(-0.320339 0.607574 0.0977565)
(-0.43578 0.723025 0.103615)
(-0.56783 0.708745 0.111667)
(-0.576124 0.496951 0.114982)
(-0.408836 0.592278 0.0871654)
(-0.126282 0.0764466 0.543498)
(-0.116648 0.0614613 0.359372)
(-0.0991639 0.044851 0.118389)
(-0.0817819 0.041788 0.588538)
(-0.0795193 0.0353973 0.372068)
(-0.0688503 0.0348768 0.128959)
(-0.339923 0.115179 0.533827)
(-0.289469 0.0798832 0.350934)
(-0.249289 0.0615221 0.120319)
(-0.223979 0.0977732 0.58589)
(-0.184813 0.0864292 0.370517)
(-0.153888 0.0739091 0.126112)
(-0.442367 0.120754 0.507707)
(-0.369231 0.11419 0.328958)
(-0.333696 0.119949 0.110577)
(-0.323018 0.176718 0.573312)
(-0.255526 0.151473 0.363894)
(-0.227857 0.137092 0.125464)
(-0.388752 1.03366 0.289501)
(-0.308795 0.906146 0.168048)
(-0.289474 0.820059 0.0452672)
(-0.609553 0.866349 0.352166)
(-0.444064 0.801226 0.241102)
(-0.355149 0.750032 0.0787031)
(-0.555894 0.59478 0.410576)
(-0.398757 0.561852 0.288917)
(-0.303529 0.54386 0.097727)
(-0.62239 0.426941 0.458249)
(-0.478401 0.398749 0.300323)
(-0.396314 0.385173 0.098991)
(-0.492491 0.287861 0.55249)
(-0.328789 0.2082 0.350268)
(-0.240033 0.167265 0.123945)
(-0.7273 0.817554 0.31585)
(-0.581011 0.742215 0.175697)
(-0.508362 0.689963 0.0583765)
(-0.538555 0.821362 0.319638)
(-0.417757 0.753585 0.208854)
(-0.339451 0.714193 0.0734236)
(-0.481266 0.615121 0.365003)
(-0.353656 0.538147 0.242324)
(-0.271806 0.496685 0.0838665)
(-0.435567 0.446821 0.43426)
(-0.317998 0.387593 0.280293)
(-0.246002 0.360355 0.0964963)
(-0.478887 0.301017 0.524995)
(-0.281488 0.217668 0.309391)
(-0.170282 0.175174 0.107835)
(-0.466114 1.15807 -0.0203052)
(-0.758183 1.19584 0.039545)
(-0.396647 1.23547 0.0172432)
(-0.566628 1.13086 0.106031)
(-0.382041 1.13455 0.0736854)
(-0.784607 1.12945 0.0738524)
(-0.320828 1.35714 0.189443)
(-0.644285 1.16415 0.165155)
(-0.00663093 0.736525 0.0242662)
(-0.0687578 0.806323 0.0385208)
(0.0106305 0.735214 0.0257059)
(-0.0406441 0.722241 0.0403987)
(-0.142401 0.97776 0.0135988)
(-0.268957 0.855873 0.037286)
(-0.0898326 0.958449 0.0249821)
(-0.163778 0.754597 0.0546554)
(-0.0745243 1.05738 0.0743854)
(-0.157186 1.10014 0.0450522)
(-0.443843 0.902689 0.151936)
(-0.659257 1.0095 0.108169)
(-0.350311 1.17799 0.0688937)
(-0.263398 1.03899 0.112696)
(-0.475174 1.17843 0.117559)
(-0.415694 1.22507 0.0298673)
(-0.641623 1.25157 0.24167)
(-0.687456 1.3434 0.0742951)
(0.022891 1.01374 -0.173233)
(0.225329 1.0407 -0.0305797)
(-0.339375 0.879087 0.0230987)
(-0.23745 0.866977 0.0235922)
(-0.266603 1.00407 -0.00388912)
(-0.153346 0.970485 0.00103712)
(-0.0631691 0.672913 0.407804)
(-0.0403554 0.386948 0.173579)
(-0.0514049 0.63115 0.107824)
(-0.031755 0.427577 0.0621455)
(-0.155425 0.653441 0.401433)
(-0.0489761 0.379193 0.175623)
(-0.0781048 0.608338 0.117464)
(-0.00994575 0.414501 0.0733628)
(-0.399667 0.597052 0.386545)
(-0.117865 0.350875 0.190917)
(-0.302843 0.565042 0.156526)
(-0.0933853 0.393827 0.10768)
(-0.345057 0.555655 0.1202)
(-0.103771 0.408899 0.0760032)
(-0.390735 0.533958 0.0642336)
(-0.128223 0.408316 0.0571988)
(-0.497946 0.915627 0.529079)
(-0.490206 0.718267 0.461574)
(-0.387366 0.899778 0.230539)
(-0.485344 0.725014 0.294885)
(-0.761336 1.02552 0.603593)
(-0.68366 0.913792 0.563214)
(-0.622877 1.03153 0.293246)
(-0.649231 0.901058 0.351321)
(-0.284321 0.829041 0.205535)
(-0.370135 0.569449 0.248104)
(-0.331751 0.858872 0.441885)
(-0.342044 0.549133 0.362449)
(-0.362805 0.918648 0.14535)
(-0.481973 0.728656 0.19132)
(-0.381622 0.944234 0.0817292)
(-0.486337 0.727849 0.109637)
(-0.594715 1.05806 0.194888)
(-0.63603 0.896903 0.227819)
(-0.616517 1.07726 0.110546)
(-0.640475 0.893831 0.128752)
(-0.251376 0.808042 0.114991)
(-0.375075 0.577449 0.162675)
(-0.243355 0.802861 0.0624223)
(-0.379614 0.577905 0.0977017)
(-0.027662 0.493334 0.180157)
(-0.052768 0.34324 0.123878)
(-0.292861 0.432899 0.203502)
(-0.157731 0.281464 0.131666)
(-0.0266675 0.454535 0.312324)
(-0.0432588 0.307365 0.17893)
(-0.256297 0.404243 0.274322)
(-0.132854 0.258177 0.172814)
(-0.0278888 0.505228 0.105405)
(-0.0476044 0.363642 0.0841372)
(-0.309172 0.445695 0.140596)
(-0.173992 0.294684 0.0900006)
(-0.0402018 0.50858 0.0571405)
(-0.0524043 0.376923 0.0519992)
(-0.3122 0.44916 0.0882503)
(-0.183629 0.302495 0.0553782)
(0.00786371 0.109566 0.47113)
(0.013793 0.0596616 0.303334)
(-0.0186637 0.207201 0.223617)
(-0.0120811 0.120795 0.225603)
(0.0361331 0.113052 0.46677)
(0.0573526 0.0683348 0.302795)
(-0.0293707 0.210003 0.2203)
(-0.0177523 0.132387 0.220832)
(-0.0429177 0.122494 0.471223)
(-0.000588145 0.0903392 0.291861)
(-0.0977405 0.20788 0.223166)
(-0.0831151 0.150868 0.205033)
(0.304651 0.540371 0.53288)
(0.154364 0.907489 0.52435)
(0.18031 0.35166 0.48864)
(0.122762 0.319191 0.368857)
(0.00287543 0.23275 0.204162)
(0.283246 0.927519 0.318558)
(0.412466 0.593901 0.375179)
(0.195476 0.333255 0.387593)
(0.199875 0.296569 0.355632)
(0.00395529 0.182814 0.238433)
(-0.382243 0.895224 0.454075)
(-0.276491 0.645229 0.398517)
(-0.222397 0.471943 0.323466)
(-0.224906 0.346329 0.255174)
(-0.12642 0.221201 0.159162)
(0.0215993 0.0419957 0.249548)
(0.0175751 0.0395591 0.239342)
(-0.00646867 0.0851425 0.244672)
(-0.00982268 0.0782462 0.287735)
(0.0609102 0.0518593 0.249809)
(0.0658937 0.0403582 0.233453)
(-0.0175823 0.101555 0.239578)
(-0.023703 0.0914677 0.282453)
(0.053423 0.0725633 0.240732)
(0.0749017 0.0622821 0.223916)
(-0.0514826 0.121566 0.228541)
(-0.0603061 0.108675 0.271675)
(0.120858 0.937887 0.357529)
(0.0585198 0.886443 0.338542)
(0.317058 0.59357 0.324038)
(0.21988 0.534116 0.277358)
(0.169795 0.371178 0.234963)
(0.119318 0.349195 0.232664)
(0.156266 0.284428 0.219479)
(0.127894 0.265897 0.224829)
(-0.0057978 0.168799 0.199868)
(-0.0324087 0.15191 0.257428)
(-0.202703 0.817751 0.263872)
(-0.141652 0.694685 0.298987)
(0.0167014 0.592354 0.215097)
(0.082562 0.501994 0.243584)
(0.0274597 0.440696 0.18503)
(0.0751808 0.393078 0.209873)
(-0.011153 0.312974 0.17441)
(0.030227 0.292735 0.206376)
(-0.0253268 0.204494 0.15053)
(-0.0379686 0.220535 0.236579)
(-0.163104 0.561397 0.191388)
(-0.179394 0.43658 0.153643)
(-0.385727 0.567913 0.131194)
(-0.244137 0.412081 0.0724605)
(-0.349012 0.722 0.299366)
(-0.336761 0.528971 0.227277)
(-0.522172 0.73465 0.241629)
(-0.405985 0.521556 0.154432)
(-0.290073 0.459883 0.0962704)
(-0.17661 0.362252 0.0558848)
(-0.0971819 0.454705 0.142561)
(-0.124432 0.386096 0.127993)
(-0.456201 0.587712 0.168473)
(-0.193215 0.39341 0.0746323)
(-0.4894 0.593271 0.0772463)
(-0.178809 0.398343 0.0426955)
(-0.599417 0.771948 0.223488)
(-0.391985 0.536464 0.12909)
(-0.638538 0.770731 0.0905769)
(-0.37787 0.541171 0.0625156)
(-0.34978 0.463344 0.133477)
(-0.128208 0.340625 0.0569694)
(-0.380134 0.471327 0.0671154)
(-0.110751 0.355011 0.0335142)
(-0.211693 0.3295 0.076732)
(-0.169101 0.29336 0.0905439)
(-0.152748 0.224532 0.0914105)
(-0.270811 0.286814 0.153112)
(-0.101496 0.333743 0.116334)
(-0.1356 0.307011 0.140131)
(-0.0977818 0.228292 0.10905)
(-0.226322 0.282476 0.197825)
(-0.233531 0.328247 0.0943194)
(-0.156621 0.285269 0.0667371)
(-0.186717 0.218806 0.0676924)
(-0.311287 0.299003 0.110616)
(-0.284022 0.345205 0.0412695)
(-0.146922 0.288264 0.0155483)
(-0.223471 0.227352 0.0124432)
(-0.306934 0.295878 0.0262347)
(0.0216727 0.0841658 0.18684)
(0.0269818 0.0665045 0.0859354)
(0.0310021 0.0517086 0.0248462)
(-0.00621895 0.307698 0.197313)
(0.0052274 0.151536 0.0529618)
(0.00698192 0.115811 0.014094)
(0.0771595 0.0782517 0.183896)
(0.0895996 0.0719209 0.090621)
(0.0951484 0.06061 0.0284087)
(-0.00825575 0.324441 0.196892)
(0.0214676 0.177385 0.0548848)
(0.0255638 0.142281 0.0153448)
(0.0939459 0.0972914 0.170972)
(0.128058 0.101325 0.0853467)
(0.142324 0.10051 0.0223474)
(-0.0314439 0.344482 0.188711)
(0.0375552 0.21983 0.0514324)
(0.051547 0.191116 0.011843)
(0.0279033 0.780541 0.230624)
(0.0501114 0.692135 0.127855)
(0.0446982 0.63305 0.0344496)
(0.163224 0.489459 0.186246)
(0.173405 0.448486 0.10157)
(0.159739 0.423356 0.0287668)
(0.127409 0.348175 0.17425)
(0.14673 0.325545 0.0891142)
(0.141027 0.313803 0.0258459)
(0.136933 0.29895 0.163952)
(0.166628 0.275659 0.0790229)
(0.170542 0.265102 0.0189466)
(-0.0159805 0.399673 0.180518)
(0.0544857 0.288304 0.0461419)
(0.051245 0.255592 0.00820054)
(-0.166651 0.579115 0.254207)
(-0.0837131 0.507809 0.135229)
(-0.0491749 0.462225 0.042551)
(0.0440216 0.431325 0.211862)
(0.0890652 0.383185 0.116161)
(0.103632 0.355896 0.038447)
(0.0558688 0.371785 0.184065)
(0.102615 0.326013 0.0975625)
(0.114322 0.295769 0.0321855)
(0.0350067 0.347871 0.169176)
(0.0907544 0.302739 0.0714014)
(0.102177 0.278905 0.019865)
(-0.0614693 0.517519 0.190032)
(0.0365708 0.359415 0.048595)
(0.0428855 0.323938 0.0156845)
(-0.00289985 0.211119 0.0652194)
(0.000143387 0.125099 0.0245833)
(0.00114761 0.0858166 0.0121473)
(0.00232147 0.0706105 0.00156534)
(0.0038038 0.235131 0.0264668)
(0.00359416 0.134115 0.0104846)
(0.00420193 0.08902 0.00555531)
(0.00390225 0.0725451 0.00138466)
(-0.00776568 0.205291 0.0671791)
(-5.06323e-06 0.123406 0.0262113)
(0.00319717 0.0856705 0.0143012)
(0.00620391 0.0714169 0.00355879)
(0.00868312 0.233548 0.0318461)
(0.00822609 0.134525 0.0139067)
(0.00901665 0.0901557 0.0090154)
(0.00872439 0.0734481 0.00415474)
(-0.0151709 0.194875 0.076604)
(-0.00220014 0.121116 0.0311302)
(0.00311051 0.0870368 0.0184902)
(0.00959276 0.0711347 0.00629124)
(0.00114282 0.22721 0.0541597)
(0.00657636 0.135829 0.0269717)
(0.00729507 0.0931381 0.0147099)
(0.00951151 0.0732918 0.00656669)
(0.00148671 0.237753 0.0394383)
(0.00428209 0.140966 0.0236136)
(0.00256486 0.0931004 0.0102038)
(0.00289385 0.0761935 0.00304989)
(-0.00606848 0.24406 0.0405396)
(-0.000612304 0.146491 0.0264446)
(0.001312 0.0962656 0.0141909)
(0.00331018 0.0784641 0.00739337)
(-0.0384002 0.206861 0.0631909)
(-0.011749 0.128032 0.0293114)
(-0.00564766 0.0904862 0.0150572)
(0.00462079 0.072503 0.00217539)
(-0.0565641 0.171515 0.0596935)
(-0.0182255 0.114511 0.0269157)
(-0.0127384 0.0853078 0.0160667)
(0.0064343 0.0678621 -0.000108128)
(-0.0317379 0.181334 0.0797557)
(-0.00887309 0.116967 0.0330625)
(-0.00289337 0.0868985 0.0199995)
(0.00899932 0.067351 0.0051903)
(-0.0459279 0.155652 0.0709905)
(-0.0145674 0.107109 0.0290525)
(-0.0110981 0.0819764 0.018684)
(0.00663496 0.0647886 -0.000665614)
(-0.0354833 0.22207 0.0475805)
(-0.0113004 0.136181 0.0251402)
(-0.00524938 0.093222 0.0124935)
(0.00382663 0.0754616 0.00198516)
(-0.0624393 0.181525 0.0461543)
(-0.0201983 0.120375 0.0233779)
(-0.0135752 0.0877476 0.014063)
(0.0081463 0.069719 0.00260358)
(-0.0376786 0.230799 0.0349858)
(-0.0131106 0.142085 0.0214292)
(-0.00496853 0.0959874 0.0126893)
(0.0055266 0.0770208 0.00694161)
(-0.0656065 0.18739 0.0319362)
(-0.0213825 0.12481 0.0191489)
(-0.0142082 0.0901531 0.0125718)
(0.00897113 0.0707029 0.00678562)
(-0.00275024 0.162763 0.0828326)
(-0.000225598 0.11003 0.0300036)
(0.000298478 0.0810668 0.0152991)
(0.00199614 0.0668443 -0.000589578)
(-0.0022564 0.113044 0.0853566)
(-0.000100131 0.0924132 0.0291546)
(-0.000239883 0.0749265 0.0175543)
(0.00212577 0.0615768 -0.00537951)
(-0.00743215 0.158254 0.0823945)
(-0.000793383 0.108576 0.030357)
(0.000921727 0.0811245 0.0165083)
(0.00537381 0.066901 0.000353207)
(-0.00371625 0.11253 0.0818998)
(0.000588038 0.0922807 0.0281209)
(-8.46264e-05 0.0749296 0.01748)
(0.00582808 0.0618761 -0.0049776)
(-0.0259821 0.151392 0.0826736)
(-0.00689296 0.106447 0.0310897)
(-0.00246933 0.0816391 0.0190278)
(0.00798548 0.0667549 0.00202362)
(-0.0197459 0.115372 0.073365)
(-0.00433295 0.0935955 0.0254218)
(-0.0025395 0.0753124 0.0172797)
(0.00932623 0.0628875 -0.0032011)
(-0.0119535 0.144563 0.0767236)
(-0.00133405 0.103205 0.0298255)
(0.000673246 0.0805728 0.0205681)
(0.0096086 0.066487 0.00608186)
(-0.00794428 0.11664 0.0808763)
(-0.000295568 0.094113 0.0286766)
(-0.000932776 0.0768613 0.0219768)
(0.00926155 0.0632095 -0.00265304)
(-0.0385022 0.13513 0.059276)
(-0.0112997 0.099869 0.023071)
(-0.00862448 0.0777469 0.0161771)
(0.0101127 0.0623106 0.00248997)
(0.00139376 0.0606076 0.0695619)
(0.0010844 0.0760273 0.0213263)
(0.00063017 0.0609248 0.0133215)
(0.0017918 0.0190088 -0.00534501)
(0.00474442 0.001371 0.0271103)
(0.00207451 0.0672224 0.00756464)
(0.0011448 0.0542607 0.00410618)
(0.00115038 0.0180244 -0.00107662)
(0.00111093 0.0667775 0.0688761)
(0.00209381 0.0783857 0.021648)
(0.000975372 0.0620259 0.0136015)
(0.00463675 0.0200207 -0.00468601)
(0.0116741 0.0104212 0.0277241)
(0.00537181 0.0699458 0.00797721)
(0.00277261 0.0551387 0.00448431)
(0.0030054 0.0183443 -0.000663838)
(-0.00261875 0.0767901 0.0650243)
(0.00150914 0.0819822 0.0211131)
(0.000744242 0.0629974 0.0139936)
(0.00723704 0.019914 -0.00344317)
(0.0160582 0.0245771 0.0268909)
(0.00775748 0.0743829 0.00807572)
(0.00413866 0.0561656 0.00492417)
(0.00457107 0.0184485 -8.51215e-05)
(-0.00314567 0.0911612 0.0549552)
(0.00201068 0.0865677 0.0180972)
(0.000929707 0.0647301 0.0133678)
(0.00955205 0.0212223 -0.00202217)
(0.0172156 0.0416138 0.0237852)
(0.00915338 0.0799765 0.00715685)
(0.00459814 0.0579766 0.00523758)
(0.0053071 0.0191474 0.000656221)
(-0.0107979 0.111836 0.0482619)
(0.000381642 0.0928486 0.0168598)
(-0.0020863 0.0677542 0.0127389)
(0.00889242 0.0237277 -9.69305e-05)
(0.0102022 0.0601772 0.021611)
(0.00818137 0.0854914 0.00723912)
(0.00318081 0.059769 0.00570832)
(0.00474829 0.0197206 0.00165293)
(-0.0387278 0.126468 0.0373882)
(-0.00512435 0.100483 0.0159346)
(-0.00676807 0.0696303 0.00966032)
(0.00779923 0.0224127 0.00100121)
(-0.0110447 0.0595305 0.0197748)
(0.00245397 0.092157 0.00976303)
(0.000182169 0.0635873 0.00577478)
(0.00311792 0.0205558 0.00287009)
(-0.0246533 0.124023 0.0399658)
(-0.00150487 0.0970848 0.0147053)
(-0.00494243 0.0681091 0.010405)
(0.00812396 0.0224796 0.000438853)
(-0.00258923 0.0612192 0.0197097)
(0.00539473 0.0895628 0.00800607)
(0.00152967 0.0615309 0.00563915)
(0.0039384 0.0200306 0.00237514)
(-0.0507433 0.126231 0.0329853)
(-0.00996133 0.102983 0.0167567)
(-0.00893822 0.0707997 0.00981153)
(0.00832611 0.0211715 0.00242918)
(-0.0166502 0.0561211 0.0197451)
(-0.000560161 0.0944711 0.0112897)
(-0.00109084 0.0650391 0.00638839)
(0.00267457 0.0205632 0.00373076)
(-0.0592425 0.125757 0.0255261)
(-0.0150167 0.106027 0.0158399)
(-0.0112854 0.0733099 0.0100763)
(0.00809936 0.0217221 0.00569339)
(-0.0217323 0.0617295 0.0180764)
(-0.00417678 0.0975771 0.0119437)
(-0.00261218 0.067071 0.00747279)
(0.00215142 0.0210728 0.00523891)
(0.000898069 0.0601531 0.000665719)
(0.000416662 0.0431452 0.0003525)
(0.000208211 0.0284891 0.000196518)
(0.000113744 0.0160824 0.00011494)
(7.68413e-05 0.00518547 8.01905e-05)
(0.00126641 0.0604609 0.000341095)
(0.000638163 0.0432317 0.000178376)
(0.000331941 0.0285321 9.94899e-05)
(0.000185528 0.0161033 5.86764e-05)
(0.000126455 0.00519172 4.13629e-05)
(0.00190289 0.061233 0.00124633)
(0.000885444 0.0435114 0.000689966)
(0.000441088 0.0286525 0.000383663)
(0.00024172 0.0161543 0.000223424)
(0.0001648 0.00520582 0.000155216)
(0.00332883 0.0614076 0.00117249)
(0.00173871 0.0436622 0.00065758)
(0.000919283 0.0287414 0.000361464)
(0.000520466 0.0161987 0.000209075)
(0.000357576 0.00521916 0.00014487)
(0.00273914 0.0618455 0.00265841)
(0.00128465 0.0438988 0.00153144)
(0.000648743 0.0288335 0.000853311)
(0.000359807 0.0162345 0.000498702)
(0.000247189 0.00522853 0.0003475)
(0.00481231 0.0616934 0.00496696)
(0.00248045 0.0442681 0.00278699)
(0.0013221 0.0290587 0.00154477)
(0.00075526 0.0163472 0.000899017)
(0.000521718 0.00526257 0.000624417)
(0.00161097 0.0638575 0.00503353)
(0.000810746 0.0451208 0.00291633)
(0.000434157 0.0295143 0.00164217)
(0.000249589 0.0165683 0.000963238)
(0.000172929 0.00532843 0.000672389)
(0.000869281 0.0649893 0.00533921)
(0.000433396 0.0459106 0.00303512)
(0.00022902 0.0299683 0.00169718)
(0.000131201 0.0167933 0.000993463)
(9.06138e-05 0.00539585 0.000694112)
(0.00243807 0.0635935 0.00340571)
(0.00107318 0.0447455 0.00202196)
(0.000544808 0.029255 0.00114763)
(0.000305467 0.0164324 0.000675357)
(0.000209267 0.00528678 0.000469677)
(0.000520012 0.064944 0.00266177)
(0.000154817 0.0449461 0.00158819)
(6.35343e-05 0.0292912 0.000904613)
(3.16849e-05 0.0164399 0.000534715)
(2.05859e-05 0.00528799 0.000372777)
(0.00369885 0.062301 0.0035664)
(0.0017855 0.044321 0.00203373)
(0.000934085 0.0290262 0.00113332)
(0.000530556 0.0163203 0.000664731)
(0.00036602 0.00525298 0.000463102)
(0.000993513 0.0644025 0.00269506)
(0.000394673 0.0446842 0.00143416)
(0.000192235 0.0291521 0.000789189)
(0.000105398 0.0163719 0.000462464)
(7.10798e-05 0.00526743 0.000320979)
(0.000779608 0.0644948 0.00373744)
(0.000220222 0.0452325 0.00234412)
(8.53788e-05 0.0295302 0.0013501)
(4.17274e-05 0.016569 0.000798928)
(2.70673e-05 0.00532791 0.000558644)
(0.000534021 0.0657221 0.00355209)
(0.000173079 0.0454173 0.00216001)
(7.61807e-05 0.0295573 0.00123511)
(4.03085e-05 0.0165721 0.000730092)
(2.70802e-05 0.0053279 0.000510163)
(0.000709045 0.065292 0.00476358)
(0.000193867 0.0460577 0.0027704)
(7.3247e-05 0.0300216 0.00155691)
(3.56543e-05 0.0168144 0.000912808)
(2.24493e-05 0.00540174 0.000637625)
(0.000346625 0.0666358 0.00456105)
(5.28409e-05 0.0462147 0.00266852)
(8.36754e-06 0.0300347 0.00150288)
(6.88092e-07 0.0168119 0.000881633)
(-9.66757e-07 0.00540036 0.000615007)
(0.00072208 0.0597782 0.000442655)
(0.00031337 0.0430566 0.000288316)
(0.000149871 0.0284432 0.000164441)
(7.93308e-05 0.0160597 9.65972e-05)
(5.27328e-05 0.00517867 6.75406e-05)
(0.000697383 0.0603105 0.000111474)
(0.000299359 0.043042 0.000109937)
(0.000142508 0.0284172 6.50144e-05)
(7.52222e-05 0.0160459 3.89312e-05)
(4.99373e-05 0.00517452 2.77312e-05)
(0.00167193 0.060473 0.000780319)
(0.000713328 0.0433487 0.000472005)
(0.000341267 0.0285675 0.000266696)
(0.000181347 0.0161124 0.000156515)
(0.000121404 0.00519325 0.00010972)
(0.00162577 0.0609599 0.000178111)
(0.000680448 0.0433074 0.00015114)
(0.000324554 0.0285273 8.85613e-05)
(0.000171975 0.0160919 5.27788e-05)
(0.000114417 0.00518721 3.77229e-05)
(0.00217493 0.0614974 0.00110778)
(0.000872697 0.0437378 0.000703375)
(0.000413637 0.0287293 0.000399272)
(0.000218966 0.0161812 0.000235921)
(0.000146666 0.00521228 0.00016656)
(0.00198314 0.0622882 0.000606292)
(0.00083931 0.0436891 0.000364322)
(0.000407924 0.0286787 0.000198915)
(0.000218028 0.0161553 0.000114407)
(0.000146779 0.00520465 8.05781e-05)
(0.00270166 0.0630105 0.00300818)
(0.00126806 0.0441733 0.0016913)
(0.000654822 0.0289109 0.000930798)
(0.000367977 0.0162601 0.000546471)
(0.000253621 0.00523436 0.000383523)
(0.00135435 0.0636837 0.00150736)
(0.000618316 0.0440645 0.000841753)
(0.000310833 0.028843 0.000457883)
(0.000169254 0.0162271 0.000267321)
(0.00011593 0.00522441 0.000188033)
(0.00157003 0.0639065 0.00367259)
(0.000767259 0.0444583 0.00184528)
(0.000404208 0.0290411 0.000989283)
(0.000230744 0.0163192 0.000573067)
(0.000159542 0.00525148 0.000397718)
(-0.0203036 0.378581 0.109636)
(-0.0249947 0.588213 0.190448)
(-0.056086 0.39713 0.103799)
(-0.071267 0.601907 0.185018)
(-0.0859859 0.427886 0.097297)
(-0.114378 0.624223 0.172502)
(-0.103941 0.464604 0.0953822)
(-0.151342 0.665982 0.166205)
(-0.101813 0.503545 0.103242)
(-0.148346 0.738583 0.188247)
(-0.0924054 0.456285 0.0613586)
(-0.1249 0.562589 0.0872315)
(-0.0832932 0.47205 0.0838681)
(-0.101972 0.608456 0.130477)
(-0.108453 0.451939 0.0411153)
(-0.148622 0.553006 0.0525862)
(-0.114253 0.445737 0.0165123)
(-0.1565 0.550167 0.021321)
(-0.021803 0.305152 0.323853)
(-0.00479893 0.0547783 0.0782049)
(-0.00104852 0.0120896 0.0179896)
(-0.000223284 0.00272601 0.00399801)
(-5.44338e-05 0.000481732 0.00100513)
(-0.00879214 0.363441 0.0865227)
(-0.00326475 0.10063 0.0229945)
(-0.000346558 0.0245751 0.00616982)
(-0.000101054 0.0055913 0.00138606)
(-4.1561e-05 0.000979426 0.000310366)
(-0.0704397 0.311264 0.320623)
(-0.0156144 0.0539142 0.0763578)
(-0.0034316 0.0116825 0.0174376)
(-0.000736468 0.00261065 0.00384753)
(-0.00018087 0.000458791 0.000962917)
(-0.0226891 0.369606 0.0894601)
(-0.00482789 0.100892 0.0260702)
(-0.000978245 0.0243278 0.00642338)
(-0.000190517 0.00546445 0.0014933)
(-4.05672e-05 0.000954009 0.000375339)
(-0.123756 0.322327 0.307929)
(-0.0275916 0.0537724 0.0720885)
(-0.00609995 0.0113654 0.0162875)
(-0.00132124 0.00250701 0.00356669)
(-0.000327404 0.000437704 0.000887745)
(-0.0399889 0.38171 0.0868593)
(-0.0095471 0.101982 0.0251995)
(-0.00211749 0.0241538 0.00615912)
(-0.000464046 0.00536269 0.00141704)
(-0.000112684 0.000929764 0.000352778)
(-0.176597 0.33538 0.287061)
(-0.0395959 0.0533226 0.065887)
(-0.00884138 0.0109901 0.0147525)
(-0.00193749 0.00240118 0.00321873)
(-0.00048621 0.000418059 0.000800611)
(-0.0562485 0.39723 0.083411)
(-0.0147219 0.103309 0.0236351)
(-0.00350212 0.0240957 0.00566056)
(-0.000808523 0.00531199 0.0012814)
(-0.000206318 0.000918401 0.000314566)
(-0.244632 0.345085 0.249828)
(-0.0564379 0.0527248 0.0564741)
(-0.0128759 0.0107984 0.0126328)
(-0.00287429 0.0023718 0.002767)
(-0.000734075 0.000415577 0.00069292)
(-0.0751964 0.410408 0.0772517)
(-0.0223528 0.104195 0.020897)
(-0.00564379 0.024273 0.00489246)
(-0.00134561 0.00538063 0.00109381)
(-0.0003526 0.000935658 0.000266101)
(-0.325638 0.329824 0.138702)
(-0.0820716 0.0599341 0.0334888)
(-0.0197828 0.0136313 0.00776086)
(-0.00460046 0.00318326 0.00174006)
(-0.0012126 0.000577902 0.000443539)
(-0.0878532 0.370746 0.0395439)
(-0.0275876 0.106382 0.0100727)
(-0.00718547 0.0267966 0.00220228)
(-0.00174319 0.00628651 0.000457319)
(-0.000464387 0.0011354 0.00010505)
(-0.29844 0.338014 0.194464)
(-0.0728821 0.0572193 0.0456295)
(-0.0171378 0.0123963 0.0103834)
(-0.00390632 0.00280582 0.00229879)
(-0.00101325 0.000499892 0.000581066)
(-0.0846487 0.387602 0.0548937)
(-0.0269492 0.105948 0.0143583)
(-0.00701693 0.0256607 0.00329265)
(-0.00169916 0.00583822 0.000727113)
(-0.00044883 0.00103293 0.000175967)
(-0.338157 0.325175 0.08674)
(-0.0863645 0.0616813 0.0214822)
(-0.0210802 0.0144346 0.00505213)
(-0.00495767 0.00344051 0.00114418)
(-0.00131861 0.000632982 0.0002934)
(-0.0902521 0.3646 0.0254216)
(-0.0274543 0.106606 0.00663486)
(-0.00703118 0.027431 0.00143209)
(-0.00168539 0.00656243 0.000284661)
(-0.000447515 0.00120275 6.27065e-05)
(-0.34768 0.322209 0.0319642)
(-0.0885175 0.0606185 0.0080155)
(-0.0217 0.0142466 0.00190161)
(-0.00513227 0.00342363 0.000433982)
(-0.0013723 0.000634099 0.000111967)
(-0.0905897 0.361251 0.0123663)
(-0.0275881 0.105446 0.00297048)
(-0.00705402 0.0273176 0.000611041)
(-0.00156979 0.00658679 0.000163688)
(-0.000441581 0.00121399 2.50704e-05)
(-0.0102571 1.45906 -0.0560667)
(-0.270547 2.03859 0.0228347)
(-0.265544 1.8231 0.171996)
(-0.148972 1.37041 -0.148544)
(0.151804 0.763642 0.0398364)
(0.208677 0.802377 0.0424971)
(0.419794 1.21688 0.106726)
(0.55236 1.22205 0.130291)
(0.238744 0.823113 0.0886048)
(0.481922 0.880396 0.142901)
(0.0900156 1.3141 0.118455)
(0.288541 1.75437 0.178928)
(0.234393 1.94452 0.113582)
(0.390665 2.64429 0.148266)
(0.430533 0.990285 0.0542542)
(0.594585 1.08912 0.0789951)
(0.5182 0.798999 0.0587914)
(0.590239 0.780013 0.0684817)
(0.29587 0.553513 0.0409509)
(0.335051 0.569452 0.0424345)
(-0.760712 0.163465 0.115901)
(-0.565374 0.114015 0.0900044)
(-0.165383 0.0270595 -0.00960311)