/*--------------------------------*- C++ -*----------------------------------*\
| =========                 |                                                 |
| \\      /  F ield         | OpenFOAM: The Open Source CFD Toolbox           |
|  \\    /   O peration     | Version:  2412                                  |
|   \\  /    A nd           | Website:  www.openfoam.com                      |
|    \\/     M anipulation  |                                                 |
\*---------------------------------------------------------------------------*/
FoamFile
{
    version     2.0;
    format      ascii;
    arch        "LSB;label=32;scalar=64";
    class       volScalarField;
    location    "1.7";
    object      gradTy;
}
// * * * * * * * * * * * * * * * * * * * * * * * * * * * * * * * * * * * * * //

dimensions      [0 -1 0 1 0 0 0];

internalField   nonuniform List<scalar> 
5712
(
13250.4
7281.3
23048
15108.4
22207.7
18906.9
32655.9
40545.1
49750.7
63105.2
26389.6
23212.1
16241.1
11204.3
10732.2
6111.85
21931.1
19620.5
19867.3
19575.8
25160.9
24009.2
29147.8
24961.7
7770.42
5407.43
4053.27
2801.7
11286.5
7246.14
6266.46
4062.16
22463.4
23704.6
20048.7
16171.5
16133.9
12681
13725.6
13121.8
18291
18005.6
37427.5
41254
26692.3
28272.9
19450.1
15312.9
19760.4
13856
8398
7265.13
6330.61
9601.44
3154.4
4343.6
8384.57
12775.9
5285.41
7304.31
8522.47
15271.3
6520.59
10819.1
2025.32
7244.39
344.942
5174.85
18593.8
22409.9
19633.4
22254.1
23433.1
23794.2
24014.5
23311.4
17597.5
21292.8
17504.3
20956.5
19726.1
22127.2
19383.1
22004.3
24267.5
23032.9
24315.3
22876.5
16553.5
21345.2
15106.6
21260
18372.1
19830.9
23132.6
32676.2
19260.4
22996.2
23031.4
35870.8
17371.7
17520.3
22987.3
30939.8
16692.7
16068.1
22944.2
30091.7
4815.85
6135.71
13163.4
21679.8
5749.23
6483.68
16213.4
24212
6803.61
7102.7
19742.7
27110.4
25494.8
27989.4
21714.1
20051.4
27736
28482.8
24816.6
21683
18461.9
31566.3
26095.4
24204.9
20479.1
21337.4
40754.3
1705.76
2250.89
4660.89
9730
2409.17
3368.86
6132.44
11257.2
3605.57
3482.06
8166.02
13265.8
27673.3
27418.7
23089.4
21942.4
19659.4
17335.2
14429.9
12692.6
11374.5
17048.1
24489.6
21984.2
22736.8
21206
19323.9
17744.3
16816.2
14768.4
13480.3
18539.3
23449.1
24920
24305.4
26643.9
23519
21673.1
23902.9
22867.8
21355
21557
21041.5
20864.3
24731.4
27295.7
24556
27038.3
24233
23835.5
23965.9
23666.7
21148.6
21383.6
21417.3
21544.5
18453.4
18205
12731.4
15212.9
18628.6
17935
13144.1
15816.8
17924.8
17926.2
12556.4
15189.3
18075.6
17718.6
12423.8
14806.9
1911.16
1536.53
1121.27
1044.7
884.932
871.921
2879.48
1997.08
1538.05
2444.33
2160.73
1847.73
3018.84
2854.74
2998.71
4417.95
3786.83
3427.31
25841.6
22653.6
20501.5
21658.7
20030.6
18750.8
14869.5
14046.3
13596.5
10673.5
9968.72
9629.32
7196.52
5204.99
4181.62
20438.9
18555.4
17249.1
20534
18839.6
17854.8
15378
13453.7
12417.1
11170.5
9689.82
9008.89
7525.42
5441.71
4379.34
28951.8
29895.9
30886.7
28271.4
28363.8
28236.3
33928.5
29103.8
18413.1
20158.1
18380.3
18056
24444
21396.8
23961.2
18864.9
26434.4
27503.6
22567.2
25237.5
29449.8
25974.7
29460.8
30626.8
31289.2
33585
25343.5
26017.5
21977.2
21674.4
25101.8
24262.1
16822.8
9673.7
15778.8
10689.4
16336
9479.82
15208.5
10362.5
14926.3
8771.88
14126
9845.68
13891.4
10222.5
13348.9
10207.9
22890.7
17956.7
22494.4
18125.3
25637.9
22844.8
25788.2
22526.5
20726
14236.2
21471.8
13728.3
22966.2
18216.4
23605.8
18196.2
26451.4
22422.6
26931.4
22345.8
20201.1
14436.2
20071.5
14447.6
12333.3
8581.01
10822.5
7036.59
11363.4
7684.14
10106.1
6454.42
12630.7
9091.04
11142.4
7367.11
12714.5
9423.06
11229
7562.37
2739.15
1491.54
5180.03
3019.87
2826.29
1708.37
5250.07
3309.67
3062.34
2258.48
5197
3771.71
13509.3
22687.2
8791.49
7979.77
5818.76
23188
14847.5
8331.39
7414.23
4570.36
22380.6
16130.7
11798.6
8658.22
5530.04
1049.89
988.977
2128.56
1956.16
1296.48
1008.96
2538.89
2286.69
1814.08
1557.05
3039.15
2716.86
23447.2
22161.1
14839.3
13352.9
9279.46
8729.87
7110.69
6647.41
4219.96
3797.75
20443.8
17367.1
14808.9
12549.9
11017.4
9826.96
7824.36
7318.37
5112.34
5513.37
14034.9
10914.5
14197.8
10302
18050
13224.3
18366.3
13038.9
11497.1
9056.3
11367.6
9652.39
14692.8
9835.25
14831.8
9958.59
19298.7
13411.6
19268.3
13529.3
11583.6
8515.61
11783.2
8875.27
8237.5
7334.01
5613.31
7170.36
8343.58
7675.27
5707.31
7061.91
8206.17
7131.72
5470.15
7475.07
8630.14
7206.6
5683.79
7396.94
2104.14
1662.61
1292.72
7692.45
3788.4
2895.27
1956.29
1798.02
1515.25
8111.03
4434.63
3557.04
2432.29
2533.12
2512.76
8612.05
5495.76
4777.91
19513.5
17303.4
15826.3
12236.5
11212.2
10583.9
8704.39
8138.63
7845.07
7473.76
6891.47
6627.54
9991.81
7207.59
6389.79
14477.9
12695.2
11555.6
10783.1
9579.64
8897.39
9294.63
8150.33
7394.22
8696.78
7568.48
6972.63
12938
8985.36
8098.46
5277.96
3127.47
2145.42
1765.26
5878.28
3352.88
2225.5
1813.63
5132.26
3085.16
2141.76
1785.42
5838.69
3363.11
2253.89
1836.2
4871.88
3027.91
2175.92
1778.37
5680.24
3395.72
2328.45
1832.3
5943.82
3524.15
2327.51
1904.84
6101.51
3662.27
2406.64
1961.6
5171.53
3200.79
2262.15
1812.58
4287.88
2862.78
2132.7
1696.55
4533.35
2924.19
2172.46
1683.77
3891.3
2677.73
2049.41
1619.71
5551.76
3404.52
2330.55
1886.54
4538.13
3009.36
2193.69
1742.97
5769.98
3552.13
2399.69
1925.52
4684.75
3120.25
2253.83
1767.57
4069.07
2750.74
2026.67
1671.11
2826.11
2310.33
1873.16
1539.42
3956.34
2714.4
2028.11
1672.53
2813.25
2307.02
1873.24
1546.9
3784.81
2661.16
2040.98
1668.87
2884.29
2339.89
1882.81
1572.19
3614.08
2580.13
2014.32
1662.18
2915.99
2352.83
1921.53
1580.24
3378.26
2496.72
1943.67
1557.77
1515.19
1900.68
1523.12
475.221
34.2749
1680.56
1356.52
450.61
1669.44
1959.64
1550.65
500.518
260.53
1748.65
1378.47
458.607
1919.75
2049.56
1574.94
497.849
614.428
1859.57
1404.14
461.211
2279.03
2164.19
1618.25
530.556
1040.34
1999.41
1449.42
478.685
2795.89
2321.22
1693.86
593.194
1504.43
2137.28
1494.22
493.015
3161.7
2512.07
1740.76
560.316
1488.26
2303.92
1589.68
513.896
3100.56
2427.12
1702.73
561.989
1530.48
2239.07
1538.27
500.766
3155.78
2574.58
1769.99
529.288
1403.03
2361.78
1625.98
514.081
3143.93
2650.68
1832.75
543.052
1543.24
2439.43
1676.77
526.821
1503.83
1078.63
712.229
402.059
129.637
1511.52
1080.79
713.302
402.582
129.793
1530.83
1087.78
716.312
403.857
130.146
1535.19
1091.56
718.534
404.967
130.479
1546.14
1097.47
720.839
405.862
130.713
1542.34
1106.7
726.468
408.679
131.564
1596.44
1128.02
737.856
414.208
133.211
1624.73
1147.76
749.207
419.833
134.896
1589.84
1118.64
731.375
410.809
132.169
1623.6
1123.65
732.281
410.998
132.2
1557.53
1108.02
725.654
408.007
131.325
1610.06
1117.1
728.801
409.298
131.686
1612.37
1130.81
738.255
414.224
133.198
1643.05
1135.43
738.933
414.303
133.197
1632.3
1151.44
750.54
420.36
135.043
1665.9
1155.37
750.868
420.297
135.009
1494.45
1076.42
711.079
401.492
129.467
1507.76
1076.05
710.43
401.148
129.363
1511.82
1083.72
714.187
402.81
129.831
1524
1082.69
713.183
402.298
129.68
1537.43
1093.45
718.233
404.529
130.307
1557.21
1092.23
716.969
403.884
130.116
1575.26
1104.33
722.771
406.502
130.859
1592.09
1101.61
721.075
405.678
130.61
1597.66
1111.46
726.028
407.98
131.287
9464.53
14705.3
9928.26
15047.7
10697.2
15605.6
11615.1
16649.5
12588.6
18464.6
11407.1
14064.7
11801.2
15211.4
11298.5
13825.1
11143.4
13754.2
7628.8
1369.46
302.24
68.1501
12.0433
9086.02
2515.75
614.377
139.783
24.4857
7781.61
1347.85
292.063
65.2662
11.4698
9240.15
2522.31
608.195
136.611
23.8502
8058.17
1344.31
284.135
62.6753
10.9426
9542.75
2549.56
603.845
134.067
23.2441
8384.51
1333.07
274.751
60.0295
10.4515
9930.76
2582.72
602.392
132.8
22.96
8627.12
1318.12
269.96
59.2951
10.3894
10260.2
2604.88
606.826
134.516
23.3915
8245.6
1498.35
340.783
79.5815
14.4475
9268.64
2659.56
669.915
157.163
28.385
8450.35
1430.48
309.909
70.1454
12.4973
9690.05
2648.69
641.517
145.955
25.8233
8129.39
1542.03
360.865
86.0128
15.8245
9115
2665.15
685.774
164.061
30.0689
8055.23
1515.46
356.165
85.5907
15.8525
9031.28
2636.15
682.941
164.67
30.3497
36476.5
50964.8
45577.6
34260.3
19091.1
20059.4
30421.9
30551.2
20577.8
22009.9
32852.4
43859.3
48612.9
66107.4
24757.1
27228
19975
19500.3
13837.8
14236.3
4086.63
2850.39
676.488
515.998
626.054
529.378
659.334
4019.05
4036.2
2553.35
3389.36
3020.01
1378.92
1974.62
1690.28
1123.63
1282.55
1055.98
3506.9
1998.16
1227.1
1124.82
1407.76
1208.03
927.467
926.183
853.536
761.69
1003.47
939.276
3625.22
2277.13
2425.93
1655.31
1369.18
1956.98
956.061
744.936
1069.12
8553.64
8790.3
8892.37
10773
18375.2
6357.41
7169.21
7708.36
8945.28
10403.4
1776.27
2529.8
3098.86
3486.11
3685.28
1364.62
1964.29
2426.23
2740.74
2900.85
1650.91
2365.19
2907.32
3271.31
3454.92
1400.14
2015.3
2487.94
2807.96
2969.98
1734.56
2476.89
3038.11
3416.59
3609.03
8823.85
9391.61
9193.41
10261.8
16491.6
8571.14
8831
8668.25
9278.3
11026.3
5863.75
6797.85
7193.98
7816.28
8524.78
7321.81
7767.19
7685.93
7940.39
8686.15
6614.95
7175.99
7118.83
7284.67
7740.89
3428.14
4502.76
5177.46
5638.12
5910.22
4675.21
5702.72
6222.48
6662.26
7023.06
4082.41
5121.19
5672.36
6050.57
6296.28
2859.76
3886.37
4576.9
5026.5
5263.42
3212.47
4262.04
4925.49
5355.46
5590.23
2704.95
3709.7
4395.78
4836.58
5061.79
7876.31
8678.61
8743.83
10016.6
16239.6
4784.97
5913.12
6557.88
7243.31
7845.2
3102.47
4176.88
4896.79
5392.5
5674.52
2869.49
3915.23
4640.23
5142.05
5422.18
3511.42
4631.98
5367.82
5931.41
6296.7
3070.27
4162.44
4918.06
5465.45
5780.81
2400.16
3344.96
4033.38
4512.57
4769.49
2399.2
3348.28
4035.53
4502.3
4748.08
2223.19
3126.07
3780.89
4210.25
4426.42
1994.44
2827.16
3444.12
3854.14
4061.36
2583.26
3570.88
4264.09
4721.43
4959.32
2430.88
3387.38
4073.77
4532.76
4771.93
7877.61
8430.05
8571.51
10180.7
16873.8
5289.64
6316.22
6982.4
7956.7
8955
6040.31
7324.06
7768.91
8917.62
10198.7
4088.63
5283.81
6065.4
6800.39
7303.08
3449.41
4602.83
5384.31
5998.85
6368.77
4775.44
5957.46
6615.21
7391.45
7914.76
2470.88
3436.6
4134.71
4616.04
4873.46
1950.25
2764.69
3371.04
3778.49
3986.69
2740.92
3766.72
4489.86
4991.07
5266.13
19680
12838.4
20843.9
15765.4
25117.5
35708.1
26818.7
37253.7
21771.8
21257.8
19251.3
19918.1
22882.2
22666.4
28215.6
24105.7
15176.4
13389.7
6788.89
5391.92
17683.6
14148.9
9406.08
6311.81
22790.9
25075.2
20834.3
18519.3
21805.1
14559.3
13623.3
13143.1
18407.5
18043.6
37422.1
41311.3
26338.1
28193
19956.6
15452.8
20363.2
13981.9
8875.43
7358.02
14133
16959.6
5715.1
6925.9
15132.7
18949.4
7680.68
9713.46
13186.9
19238.9
8234.43
12670.5
2317.36
7902.79
366.511
5303.45
19220.7
21078.1
19506.5
21548.5
22076.6
21925.7
23148.7
22293.8
18202.1
21018.8
19524.2
20423.3
19617.6
21770.2
19341.1
21888.3
23837.2
22518.8
24195.1
22711.8
16742.9
21200.5
15136.7
21210.5
18975.5
20904.1
23267.2
32962.1
20282.4
24984.5
23306.6
36468.6
17650.5
18012.6
23038.9
31065.7
16766.4
16201
22955.1
30127.8
18905.4
21562.2
24933.2
35221.2
18022.4
19452.7
25726.8
34944.2
15707.2
16213.3
25898.6
33507.3
19411.4
21194.2
19988.1
20596.2
30531.9
20786.4
18278.7
21038.3
19058.7
34824.2
20991.4
20120.7
18814.9
21785.4
41877.1
13499
12900.1
11269
14165.9
13138.4
12692.3
11502.6
14671.8
12073.6
10980.2
11375.4
14762
20313.5
19652.9
17710.9
16864.4
19085.5
17492.7
15166.8
13469.6
12615.9
16819.4
20187.5
18819.6
19372.7
18830.3
17815.3
16565.8
16895
14560.9
13575.5
17367.5
21643.9
23277.3
23289.5
25625.7
21428.1
20112.2
22775.4
21981.7
20743.1
20869.8
20001.9
19787.2
24250.2
26835.4
24413.1
26902.6
23705.7
23449.1
23810.9
23553.1
20843.2
21038.6
21325.7
21445.3
18192.2
17811.8
12660.4
14988
18303.2
17382.4
13123.2
15440.6
17774.3
17708
12497.4
15057.4
18023.9
17648.6
12399.4
14760.7
12454.9
13469.6
4808.3
4933.26
12130.6
12218.2
5523.25
5743.9
9779.13
9503.1
6037.6
5863.5
19037.8
18005.5
17259.8
16980.8
15542.8
14992.6
11507.1
10533.3
7636.69
5906.15
18563.8
17697.3
19456.4
18425.3
14917.1
13553.8
11258.3
10031.9
6907.05
5328.6
24189.9
24080.2
28659.2
25569.1
25724.2
24778.3
33786.8
27649.8
19701.7
15439.7
21148.9
16580.1
20579.8
15478.4
22023.3
16542
22866.9
21080.5
20011.3
19351.6
21223.3
22592.4
28141.5
30232.7
30525
33355.6
23657.4
25494.1
20837.7
21351.8
23332
23735.6
12929.9
10379.4
13969.5
10769.2
12572.8
10103.1
13617.9
10451.7
11916
9309.91
12845.2
9847.11
13145.5
10146.9
13124.3
10171.8
18863.9
16745.6
20602.1
17288.6
22471.2
20736
24257.1
21338.4
18798.3
13881
17473.7
13493.6
22043
17743.6
23330.6
18038.5
25698.1
21808.2
26710.2
22147.4
19278.7
14187.8
19804.6
14357
11859.8
8868.93
10951.6
7458.9
11119.4
8567.93
10683.6
7357.89
12296.6
9169.3
11146.6
7563.81
12597
9430.09
11225.8
7632.9
11253.4
11639
9626.15
9276.35
10732.9
11259.6
9284.14
8942.9
10027.4
10419.5
8439.21
8040.11
16637.6
20818.1
14650.3
10336.6
8143.35
20257.8
17728.9
16128.6
10477.8
7698.55
20237.1
16549.4
13370.8
10734.1
7362.84
13177.2
15553.8
9839.74
11107.7
12411.9
14093.8
9247.7
10263
11044.6
11941.4
7904.74
8172.98
19551.4
18103.5
15887.6
14755.4
14601.4
14928.4
10728.5
11332.6
7557.74
7597.58
18169.9
15517.5
14851.7
12723.5
12582.1
11640.3
10159.9
9978.79
6997
7721.42
13732.6
11053
13993.3
10440.4
16747.9
12532.2
17633.6
12722.7
11723.1
9513.84
11864.7
10489.1
14544.3
9890.78
14777.2
9969.62
18923.5
13267.7
19153.2
13487.1
11630.6
8689.64
11768.4
8910.47
8675.78
7948.64
6114.44
7975.44
9308.32
8894.54
6741.53
8571.9
8369.03
7388.26
5699.08
7884.27
8685.58
7288.74
5775.98
7527.84
20031
20996.1
24196.6
20283.9
17424.6
18275.5
22670.6
19112.9
14198.1
14816.7
19578.9
16797.4
16729.8
15756
14397.6
14061.5
15426
15533.3
12986.4
12590.1
18506.3
16183.8
13175.8
12621.2
11466.9
11369
11683.2
11510.4
12270.6
11793.1
19482.7
16272.5
6645.01
4050.18
2694.72
2150.6
6831.76
4125.92
2724.31
2176.05
6380.18
3946.59
2643.96
2142.1
6654.57
4039.86
2687.11
2155.22
5939.59
3794.67
2612.77
2081.54
6288.43
3938.88
2691.89
2093.71
6291.86
3866.39
2582.3
2091.98
6214.39
3780
2491.65
2027.07
5730.87
3642.68
2552.9
2030.48
4792.2
3250.42
2374.28
1875.3
5476.4
3570.45
2553.4
1946.02
4719.33
3262.66
2380.97
1841.21
5846.07
3660.11
2507.08
2024.33
4810.83
3228.87
2345.62
1865.35
5857.67
3637.86
2462.4
1974.69
4774.01
3192.16
2306.98
1809.66
6249.16
3897.64
2651.9
2081.81
5629.54
3663.17
2576.43
1962.18
5943.08
3801.65
2617.04
2060.47
5334.86
3584.68
2544.29
1955.47
5496.53
3654.1
2580.04
2021.87
4927.7
3464.17
2485.58
1946.98
5042.42
3436.73
2470.1
1953.42
4636.33
3347.54
2442.92
1896.41
4602.39
3260.26
2358.86
1796.03
4556.27
3354.89
2188.95
636.759
2655.87
3151.63
2030.95
628.433
4367.96
3318.48
2185.3
660.613
2608.13
3120.83
2021.27
630.303
4091.54
3240.91
2139.2
638.799
2509.04
3061.85
1981.73
616.407
4059.6
3177.8
2126.81
666.564
2632.14
3012.17
1953.76
617.679
4096.87
3109.93
2121.47
719.248
2766.3
2940.69
1911.46
612.378
3610.78
2892
2026.98
662.966
1775.72
2671.85
1827.09
589.1
3906.18
3005.24
2071.73
679.766
2148.22
2807.01
1864.97
598.202
3372.86
2786.35
1950.01
596.932
1504.82
2563.8
1768.67
560.76
3198.99
2717.55
1893.12
566.098
1562.89
2502.27
1723.5
542.345
1786.44
1241.18
799.494
444.14
142.091
1776.06
1237.18
798.057
443.577
141.936
1800.19
1238.83
796.869
442.636
141.618
1774.18
1231.55
794.094
441.473
141.29
1794.72
1234.91
793.723
440.9
141.076
1736.16
1219.5
787.267
438.061
140.268
1721.63
1198.4
776.059
432.748
138.711
1671.79
1175.25
764.247
427.158
137.074
1760.45
1216.74
784.153
436.309
139.724
1794.58
1221.62
784.793
436.348
139.709
1777.96
1229.75
790.13
439.012
140.497
1824.63
1230.01
788.43
437.978
140.172
1727.88
1201.32
776.768
432.921
138.745
1754.75
1205.82
777.567
433.072
138.767
1671.13
1175.31
763.733
426.798
136.96
1703.77
1180.15
764.698
427.06
137.025
1802.26
1246.72
801.254
444.793
142.267
1845.61
1251.97
802.424
445.184
142.37
1811.11
1246.06
799.561
443.727
141.921
1854.26
1251.69
801.03
444.278
142.075
1824.17
1244.52
797.073
442.254
141.45
1874.06
1250.62
798.764
442.918
141.639
1844.66
1240.75
793.746
440.476
140.898
1888.38
1245.46
795.411
441.198
141.1
1844.38
1235.54
790.962
439.13
140.498
11628.5
15593.4
11589.5
15560.8
11626.8
15554.2
12017
16179.5
12532
17547.6
11335.1
13890.9
11721.5
14869.1
11248.3
13729.5
11127.6
13725.5
8393.28
1459.58
316.196
70.5354
12.3889
9709.01
2655.69
641.427
144.665
25.195
8388.44
1418.39
303.014
67.1557
11.7453
9691.18
2629.49
629.456
140.496
24.421
8413.35
1385.06
290.602
63.8275
11.1144
9728.23
2605.72
616.104
136.433
23.6013
8505.77
1345.06
276.779
60.4346
10.5162
9876.76
2589.37
605.607
133.594
23.0929
8575.43
1310.14
268.809
59.1326
10.3688
10038.8
2578.78
603.668
134.119
23.3453
8174.75
1484.75
337.922
78.9947
14.3523
9166.75
2632.81
663.966
155.948
28.1895
8365.38
1415.62
307.158
69.6376
12.4199
9529.22
2615.59
635.365
144.849
25.6593
8084.2
1532.92
358.81
85.5642
15.749
9056.43
2648.4
681.71
163.175
29.9199
8040.23
1512.38
355.449
85.4291
15.8247
9012.74
2630.69
681.56
164.356
30.2964
36054.7
50882.9
45408.6
33000.4
24617.5
29361.8
24406.9
29368.8
27551.1
43070.2
29755.7
46902.7
129.017
143.099
174.439
225.097
296.814
391.872
140.762
154.887
186.093
235.839
305.958
399.137
119.526
114.806
133.696
128.862
165.697
160.883
219.115
215.959
295.373
297.608
398.345
411.663
512.083
673.803
908.086
1272.54
1638.25
1934.87
519.598
675.219
874.632
1113.5
1337.72
1488.42
345.334
506.253
635.54
725.85
772.27
382.801
560.698
703.33
802.773
853.816
466.213
681.888
854.156
973.886
1035.22
600.769
876.808
1096.1
1247.88
1325.44
790.596
1150.34
1434.07
1629.47
1729.09
1040.74
1507.68
1872.45
2122.41
2249.72
376.604
551.768
692.33
790.403
840.765
414.138
606.183
759.926
866.981
921.88
497.061
726.378
909.201
1036.09
1101.04
628.965
916.967
1145.27
1303.09
1383.72
814.197
1183.13
1473.44
1673.26
1775.2
1058.86
1531.59
1900.1
2152.8
2281.79
319.973
469.225
589.28
673.214
716.373
307.342
450.757
566.192
646.932
688.452
357.731
524.204
657.852
751.124
799.023
344.818
505.372
634.366
724.437
770.697
442.982
648.255
812.458
926.698
985.247
430.16
629.651
789.37
900.557
957.546
585.003
854.275
1068.49
1216.85
1292.67
576.655
842.308
1053.8
1200.34
1275.23
786.995
1145.64
1428.73
1623.67
1722.99
792.978
1154.41
1439.71
1636.08
1736.06
1058.14
1533.27
1904.36
2158.26
2287.3
1093.33
1583.73
1966.14
2227.17
2359.54
1353.9
1948.46
2407.07
2720.3
2880.36
1768.33
2517.8
3085.79
3475.16
3677.19
2351.8
3285.65
3975.44
4461.24
4725.63
3218.32
4344.92
5147.76
5772.02
6156.16
4022.88
5225.13
6069.6
6838.31
7408.53
4643.62
5849.83
6696.09
7594.36
8344.12
1372.15
1971.64
2433.44
2749.68
2912.02
1771.13
2520.63
3089.46
3480.95
3685.18
2271.93
3189.38
3873.51
4353.24
4612.44
2855.06
3936.56
4728.66
5307.81
5640.93
3383.61
4582.06
5450.59
6123.54
6542.36
3729.76
4989.85
5900.52
6641.18
7127.94
131.245
149.926
186.528
243.441
322.53
425.956
143.072
161.941
198.385
254.031
330.65
430.508
121.661
116.889
140.329
135.361
177.631
172.661
237.736
234.621
322.329
325.06
436.341
453.069
554.1
721.498
956.045
1309.79
1660.16
1941.49
556.735
715.642
913.893
1145.59
1358.29
1495.41
351.3
515.044
646.669
738.647
785.93
401.179
587.892
737.798
842.45
896.219
498.782
730.153
915.438
1044.53
1110.78
650.272
950.37
1189.77
1356.12
1441.37
860.171
1254.17
1566.85
1783.46
1894.34
1133.3
1646.64
2051.24
2330.77
2473.93
382.807
560.933
703.951
803.783
855.059
433.142
634.342
795.668
908.169
965.922
530.202
775.554
971.724
1108.25
1178.26
678.09
990.047
1238.44
1410.86
1499.19
881.028
1282.93
1601.19
1821.52
1934.36
1144.06
1659.52
2064.78
2344.8
2488.45
325.702
477.671
599.962
685.488
729.472
312.929
458.992
576.6
658.884
701.202
375.572
550.57
691.235
789.517
840.031
362.291
531.178
667.02
761.974
810.778
475.111
695.822
872.797
996.202
1059.55
461.857
676.551
848.83
969.017
1030.71
635.236
928.888
1163.45
1326.55
1410.13
626.989
917.055
1148.93
1310.21
1392.85
859.948
1254.55
1568.09
1785.34
1896.52
867.334
1265.58
1582.14
1801.5
1913.73
1161.41
1688.49
2104.33
2391.54
2538.5
1206.06
1753.66
2185.68
2483.92
2636.4
1468.67
2122.31
2632.74
2985.2
3166.59
1899.95
2720.25
3352.42
3791.82
4021.64
2486.89
3499.34
4264.05
4811.05
5110.58
3328.49
4529.2
5407.8
6099.09
6524.09
4092.48
5349.08
6251.49
7075.94
7684.3
4666.41
5892.85
6761.33
7682.75
8449.5
1473.52
2125.11
2632.58
2983.38
3164.51
1882.36
2691.07
3313.24
3746.1
3973.2
2381.36
3360.17
4101.6
4627.28
4912.55
2946.35
4082.8
4928.43
5552.44
5911.95
3443.51
4680.61
5588.06
6295.11
6735
3750.45
5024.51
5949.57
6703.26
7198.34
4074.71
2852.83
735.444
564.778
701.627
589.611
729.439
3810.95
3681.54
2538.89
3033.62
1465.14
1985.76
1232.39
1399.5
1162.48
3431.92
2045.46
1320.22
1214.52
1487.28
1282.88
991.15
1008.39
969.229
862.904
1106.67
1033.91
3594.9
2294.25
2429.47
1697.22
1429.28
2000.01
1029.9
827.26
1152.7
8555.8
8835.5
8981.07
10942
18710.1
6377.83
7221.22
7795.66
9078.13
10576.3
1939.34
2781.54
3431.69
3882.56
4117.16
1497.9
2166.41
2689.04
3049.67
3234.91
1858.82
2683.82
3325.99
3767.88
3994.77
1564.73
2264.97
2812.75
3190.14
3383.55
1928.16
2775.11
3431.62
3884.63
4118.55
8720.78
9898.89
10347.1
12222.6
20025
8482.67
9737.73
10439.6
12139.7
15303.8
6058.34
7463.91
8379.73
9557.36
10717.6
7435.7
9031.13
9786.05
11076.7
12914.9
3743.98
5128.71
6135.73
6898.42
7367.39
4918.28
6410.98
7427.58
8352.5
9071.78
3197.96
4481.48
5439.6
6122.88
6503.58
3598.82
4976.31
5987.04
6729.15
7164.65
3030.94
4276.7
5213.88
5872.24
6229.29
7882.6
9030.76
9486.99
11250.2
18483.3
5004.52
6408.37
7367.35
8370.49
9203.99
3398.42
4708.16
5676.7
6392.74
6812.14
3139.71
4377.34
5300.74
5975.08
6360.24
3771.53
5111.3
6084.83
6867.13
7374.2
3296.16
4549.51
5473.04
6168.36
6574.07
2581.65
3636.45
4432.03
5000.15
5308.6
2634.47
3728.41
4557.67
5142.37
5456.79
2548.62
3640.34
4475.68
5053.37
5355.82
2275.23
3262.72
4023.26
4548.2
4820.84
2888.43
4082.35
4984.28
5618.83
5962.19
2703.99
3832.97
4689.97
5291.39
5613.92
7901.57
8595.9
8875.8
10694.1
17876.4
5365.51
6478.45
7239.61
8319.23
9402.46
6152.26
7648.48
8327
9754.71
11263.2
4226.96
5538.92
6448.04
7306.31
7886.4
3635.44
4928.55
5858.1
6607.2
7059.77
4959.96
6350.48
7241.86
8259.52
8942.27
2682.86
3780.32
4608.21
5198.02
5518.82
2179.51
3122.05
3847.71
4350.42
4612.52
2987.4
4178.94
5070.69
5716.57
6078.3
7877.68
7367.18
6560.56
5513.46
4055.75
1595.06
19688.5
20942.5
22341.7
23030.6
21194.4
21387.9
21472.5
21959.1
17260.4
20020.4
19526.8
19963.7
26034.4
18002
28423.7
18505.5
19824
20944.4
21215.7
20329.8
21517
20492.6
21608.9
17813.3
26517
20062.2
25765.6
26977.5
21961.4
32839.4
17186.3
18320.8
18988.3
18877.2
19135.2
20853.5
19045.1
20818.9
20087.8
25546
22536
25159.2
28115.8
24640
31481.9
15899.6
16943.5
17107.6
16783.4
18059.9
20348
17551.1
19901.3
18213.9
23444.2
20284.1
22263.5
24670.6
21681.5
28212.7
14637.5
15699.9
15633.7
15253.6
17089.5
19769.9
16107.7
18351.8
16092.2
18995.6
18174
17742
21424.8
18238.9
22572.5
13450.1
14481.2
14468.4
14082.4
15609.4
17752.3
14939.7
16842.1
13826.6
15231.4
15797.8
14732
18738.2
15265
19554.8
22461.4
22561.7
23416.9
24491.9
23107.3
23723.4
22405.1
23163.9
19253.9
12363.7
20395.5
12186.2
20497.7
16860.9
17490.2
21399.9
21813.9
21704
22256.9
22384.1
23099.1
21146.6
22082.7
17044.3
12310.6
17818.8
12015
17662.3
15830.8
16156.3
18679
19119.8
19315.4
19395.3
19843.7
20454.9
19273.4
20566.7
15615.7
12873.9
16503.4
12279.9
16996
14243.8
16572.6
16028.7
16613.9
17061.1
16852.5
17537
18160.8
17550.7
18948.2
13602.7
13595.8
14538.1
12793.8
15140.2
12759.8
17093.2
14254.7
14966.3
15409.1
15119
16015.3
17165.2
15921.6
17192.3
12503.9
14659.8
13808.4
14541.6
15051.6
13807.1
18968.5
12736.4
13537.3
14162
13836.9
15054
16655.7
14687.6
16180.9
12073.1
15633.5
13787.6
16240.5
15579.4
14416.5
20837.9
12959.3
6986.6
23030.7
15064.9
22203.3
18891.6
32650.3
40533.9
49745.8
63088.4
26396
23202.1
16247.6
11182.8
10370.4
5775.35
21926.1
19617.7
19861.6
19573.3
25157.1
24006.9
29143
24959.4
7590.65
5314.18
3926.44
2744.76
11277.7
7239.2
6267.03
4066.72
22458.1
23698.2
20045.9
16169.2
16130.2
12681.9
13723.9
13121.1
18289.7
18004.9
37425.5
41252.9
26690.9
28271.8
19449.7
15313.1
19759.9
13855.8
8397.96
7265.14
6221.24
9417.36
3084.55
4229.3
8389.02
12787.2
5295.33
7317.97
8525.15
15276.8
6524.5
10824.1
2025.87
7246.21
344.939
5175.45
18592.5
22409.1
19632.4
22253.5
23431.8
23793.4
24013.3
23310.7
17597.4
21292.6
17503.4
20956.2
19725.4
22126.8
19382.6
22003.9
24266.6
23032.4
24314.5
22876
16553.3
21345.1
15106.4
21259.9
18372.7
19833
23133.1
32677.3
19261
22998.9
23032.1
35872.3
17372.2
17521.6
22987.7
30940.6
16693.1
16069
22944.6
30092.5
4756.01
6090.34
12980.8
21518
5758.93
6494.33
16229
24232.3
6807.6
7106.73
19749.6
27116.6
25493.5
27988.4
21712.5
20051.9
27739.2
28481.8
24815.4
21681
18462.4
31569.4
26094.6
24204.1
20478.6
21338.3
40756.3
1679.87
2219.52
4604.2
9651.26
2419.12
3374.49
6145.11
11269.1
3609.09
3484.64
8171.43
13270.5
27672.5
27418
23088.4
21941.7
19658.2
17334.4
14430.9
12693.4
11377.2
17050.5
24489
21983.7
22736.2
21205.6
19323.6
17744.2
16816.9
14769
13481.5
18540.3
23448.7
24919.7
24305.1
26643.6
23518.5
21672.7
23902.5
22867.5
21355
21556.9
21041.3
20864.2
24731.1
27295.5
24555.8
27038.1
24232.7
23835.3
23965.6
23666.5
21148.5
21383.6
21417.3
21544.5
18453.6
18205.1
12731.8
15213.1
18629
17935.3
13144.7
15817.3
17925
17926.3
12556.6
15189.5
18075.8
17718.7
12423.9
14807.1
1873.65
1507.62
1102.11
1031.8
875.226
864.971
2881.95
1998.93
1540.47
2449.44
2164.99
1851.77
3020.16
2855.8
2999.73
4419.93
3788.43
3428.98
25841
22653.2
20501.2
21658.3
20030.4
18750.6
14869.1
14046.1
13596.5
10674
9969.03
9629.71
7197.54
5205.73
4182.33
20438.5
18555.1
17248.9
20533.8
18839.5
17854.7
15378
13453.7
12417.2
11170.9
9690.07
9009.16
7525.86
5442.04
4379.66
28956.4
29898.1
30890.7
28273.1
28361.5
28235.4
33925.2
29102.8
18267
20122.6
18196.9
18011.6
24466.7
21390.5
23988.5
18858.2
26440.1
27510.1
22569.7
25240.2
29449.7
25974.6
29461.3
30626.7
31288.5
33584.2
25345.4
26018.1
21978
21674.6
25102.5
24262.7
16805.4
9653.37
15757.9
10672.5
16333
9480.57
15205.7
10362.5
14925.3
8771.85
14125.3
9845.51
13891.5
10222.5
13349.3
10208.1
22891.5
17956.7
22495
18125.3
25637.4
22844.4
25787.6
22526.1
20726.6
14236.4
21472.3
13728.5
22966.3
18216.3
23605.7
18196
26450.9
22422.2
26930.8
22345.3
20201.4
14436.3
20071.7
14447.6
12333.7
8581.05
10822.6
7036.67
11363.8
7684.21
10106.3
6454.51
12631
9091.12
11142.5
7367.18
12714.7
9423.22
11229.1
7562.45
2726.32
1477.82
5164.86
3001.84
2828.9
1710.88
5251.34
3311.18
3063.24
2259.29
5197.38
3772.27
13509.2
22686.6
8791.64
7980.16
5819
23187.4
14847.2
8331.19
7414.38
4570.72
22380.1
16130.6
11798.6
8658.41
5530.17
1032.57
970.722
2105.55
1942.88
1297.74
1009.57
2540.16
2287.17
1814.69
1557.45
3039.7
2717.08
23446.5
22160.4
14838.8
13352.3
9278.93
8729.08
7110.61
6647.15
4220.26
3797.88
20443.3
17366.7
14808.6
12549.5
11017.3
9826.73
7824.46
7318.35
5112.48
5513.38
14034.8
10914.3
14197.7
10301.9
18049.7
13224
18366
13038.7
11497.1
9056.26
11367.6
9652.32
14692.7
9835.16
14831.6
9958.49
19298.4
13411.5
19268
13529.1
11583.6
8515.57
11783.1
8875.22
8237.56
7334.02
5613.35
7170.4
8343.66
7675.29
5707.39
7061.99
8206.19
7131.71
5470.18
7475.08
8630.14
7206.58
5683.81
7396.96
2074.61
1637.69
1273
7646.38
3755.39
2866.07
1955.52
1797.84
1515.76
8116.77
4439.45
3561.19
2432.67
2533.43
2513
8614.11
5497.61
4779.67
19512.9
17302.8
15825.8
12235.7
11211.5
10583.3
8703.41
8137.77
7844.38
7473.41
6891.06
6627.19
9992.87
7208.62
6390.86
14477.5
12694.9
11555.3
10782.8
9579.33
8897.11
9294.38
8150.1
7394.02
8696.77
7568.43
6972.59
12938.5
8985.96
8099.17
5277.09
3128.55
2145.58
1764.56
5876.17
3353.13
2225.36
1812.27
5130.77
3084.82
2141.66
1785.27
5837.66
3363.05
2253.9
1836.16
4871.27
3027.72
2175.85
1778.28
5679.77
3395.62
2328.43
1832.24
5943.61
3524.1
2327.49
1904.81
6101.48
3662.27
2406.65
1961.59
5171.37
3200.74
2262.13
1812.54
4287.85
2862.77
2132.69
1696.54
4533.14
2924.12
2172.43
1683.74
3891.28
2677.73
2049.41
1619.7
5551.68
3404.5
2330.55
1886.52
4538.13
3009.37
2193.7
1742.97
5770
3552.15
2399.7
1925.52
4684.79
3120.28
2253.85
1767.58
4068.01
2751.79
2027.11
1670.77
2821.75
2309.81
1873.32
1538.89
3954.92
2714.07
2027.97
1672.36
2812.39
2306.95
1873.09
1546.82
3784.28
2661.02
2040.9
1668.8
2884.15
2339.92
1882.78
1572.16
3613.97
2580.11
2014.31
1662.15
2916.02
2352.89
1921.55
1580.22
3378.28
2496.75
1943.68
1557.76
1510.03
1900.17
1523.7
475.459
29.4062
1679.04
1356.22
450.478
1670.37
1960.27
1550.82
500.671
262.125
1749.36
1378.8
458.727
1920.18
2049.84
1575.04
497.915
615.209
1859.96
1404.33
461.277
2279.27
2164.34
1618.31
530.586
1040.77
1999.62
1449.51
478.719
2796.01
2321.28
1693.89
593.209
1504.66
2137.39
1494.28
493.032
3161.72
2512.09
1740.76
560.317
1488.29
2303.95
1589.7
513.9
3100.6
2427.15
1702.74
561.993
1530.55
2239.12
1538.3
500.773
3155.79
2574.6
1770
529.289
1403.04
2361.8
1625.99
514.085
3143.95
2650.71
1832.77
543.058
1543.24
2439.46
1676.8
526.828
1502.75
1078.14
712.011
401.964
129.609
1509.98
1080.21
713.033
402.461
129.757
1530.74
1087.74
716.296
403.853
130.145
1535.15
1091.52
718.525
404.967
130.481
1546.08
1097.44
720.831
405.863
130.715
1542.3
1106.68
726.46
408.68
131.567
1596.41
1128
737.849
414.208
133.212
1624.72
1147.75
749.201
419.833
134.897
1589.81
1118.62
731.367
410.808
132.17
1623.57
1123.63
732.272
410.997
132.2
1557.48
1108
725.646
408.007
131.325
1610.02
1117.08
728.793
409.296
131.686
1612.35
1130.8
738.247
414.223
133.198
1643.03
1135.42
738.926
414.302
133.198
1632.29
1151.43
750.535
420.359
135.044
1665.88
1155.36
750.862
420.296
135.009
1493.65
1076
710.898
401.414
129.444
1507.01
1075.67
710.265
401.081
129.346
1511.74
1083.67
714.168
402.806
129.832
1523.93
1082.64
713.156
402.291
129.682
1537.37
1093.42
718.223
404.529
130.309
1557.14
1092.19
716.953
403.882
130.118
1575.21
1104.31
722.761
406.501
130.86
1592.04
1101.58
721.064
405.676
130.611
1597.62
1111.44
726.019
407.978
131.288
9430.17
14666.1
9929.33
15050.6
10698.2
15607.1
11615.8
16650.4
12589.1
18465.1
11407.4
14065
11801.6
15211.8
11298.7
13825.3
11143.6
13754.4
7618.26
1362.99
300.652
67.7919
11.9809
9072.54
2511.16
613.221
139.513
24.4389
7779.22
1345.6
291.308
65.0643
11.431
9238.05
2519.84
607.229
136.332
23.794
8056.97
1343.51
283.819
62.5796
10.9229
9541.95
2548.38
603.315
133.899
23.2084
8384.03
1332.78
274.619
59.9844
10.4415
9930.5
2582.22
602.132
132.709
22.9399
8627.01
1318.02