/*--------------------------------*- C++ -*----------------------------------*\
| =========                 |                                                 |
| \\      /  F ield         | OpenFOAM: The Open Source CFD Toolbox           |
|  \\    /   O peration     | Version:  2412                                  |
|   \\  /    A nd           | Website:  www.openfoam.com                      |
|    \\/     M anipulation  |                                                 |
\*---------------------------------------------------------------------------*/
FoamFile
{
    version     2.0;
    format      ascii;
    arch        "LSB;label=32;scalar=64";
    class       volScalarField;
    location    "1.7";
    object      gradTx;
}
// * * * * * * * * * * * * * * * * * * * * * * * * * * * * * * * * * * * * * //

dimensions      [0 -1 0 1 0 0 0];

internalField   nonuniform List<scalar> 
5712
(
-8201.2
-10028.9
-18715.2
-29275.3
-28307.1
-55229.4
-19532.7
-58782.9
-20138.4
-47121.9
-24771.5
-40763.7
-18938.9
-25083.1
-10191.1
-10357
-13436.1
-15273.7
-18348.1
-16659.9
-12718.1
-19141.7
-18945.5
-18957.1
-5400.76
-3943.99
-7317.87
-5259.51
-12272.6
-8036
-22648.5
-15859.6
-18841.3
-19154.7
-19217.7
-19578
-4512.43
-3976.17
-43723.1
-54054.5
-23294.5
-31060.5
-56225.4
-69203.5
-26044.1
-32049.8
-32823
-42894.4
-26203.8
-36246.2
-15101.1
-19084
-3120.51
-991.905
-4043.6
-1405.48
-6989.48
-2880.17
-12050.5
-4433.69
-7977.86
-2649.2
-7978.61
-2264.16
-15640.1
-4563.84
-20477.8
-6433.24
-26244.4
-15052.9
-22160.3
-15310.9
-26745.1
-17243.9
-21204.2
-17104.5
-17274
-12469.7
-19007
-12060.3
-21518.5
-15834.9
-22240.8
-16235.9
-20780.1
-17455.9
-21595.6
-17794.5
-17803.3
-13176
-19182.1
-13654.8
-19059.3
-7861.95
-10928.2
-12518.7
-20536.3
-9097.83
-10886.9
-13159.5
-19092.5
-7317.36
-11414.5
-12303
-19733.5
-7357.42
-11986.1
-12393.7
-3020.29
-3407.92
-1066.04
-2141.83
-8700.33
-10233.4
-3604.33
-6924.11
-14151.9
-16812.9
-6472.21
-11654.7
-17862.9
-9367.75
-18338.2
-22239.9
-11303.8
-6781.33
-10867.9
-12783.9
-22601.6
-14691.8
-10403.9
-13732.2
-15336.7
-14986.8
-18781.8
-3325.65
-3399.15
-2074.55
-2208.9
-9853.18
-9328.97
-6420.15
-6495.49
-14759.1
-13394.2
-9514.1
-9516.37
-9801.36
-10928.4
-15478.5
-16427.8
-17560.4
-16503.6
-21019.1
-19221.7
-14760.7
-14694.3
-13297.4
-14297.2
-17183.3
-15516.5
-16281.8
-13450.5
-14690.5
-11605.1
-16529.3
-13051.9
-14418
-7528.55
-11347
-10924.8
-15882.5
-18323
-16222
-21021.9
-9601.8
-9355.47
-13103.5
-5692.74
-10998.1
-17225.8
-11401.7
-18438.9
-16478.4
-25817.3
-17055.4
-26473.6
-9359.24
-15204.3
-9715.33
-16526.1
-11559.3
-8486.38
-14932.5
-6616.37
-12471.5
-4392.29
-14115.8
-3148.21
-12045.9
-12274.1
-15658.1
-8008.47
-10894.5
-14195.7
-14403.1
-10220.9
-3157.06
-2916.21
-2479.1
-2044.55
-1987.98
-1721.26
-8498.06
-7236.72
-6232.23
-5599.48
-4620.34
-3847.2
-11059.2
-9230.79
-8342.39
-8075.45
-6388.14
-5696.42
-9718.81
-7719.86
-7236.86
-15238.8
-11101.6
-8878.72
-13897.3
-9968.94
-7588.21
-15559.7
-11960
-9907.84
-12312.3
-8219.74
-6000.81
-18182.5
-14525.3
-12709.1
-13463.9
-10443.9
-8486.26
-12031.6
-8841.4
-6795.15
-10889.2
-7949.95
-6150.05
-11972.2
-7037.2
-4257.05
-11652.8
-18954.6
-9916.17
-14165.7
-9551.02
-19615.2
-8020.7
-16107.1
-165.773
-1718.94
265.763
-1016.1
-3560.03
-6723.93
-2245.81
-4094.45
-1863.11
-3929.64
-11096.1
-16481.4
-8757.76
-6584.96
-11879.4
-10392.3
-16040.6
-17186.4
572.276
5633.22
-8484.39
-5936.25
-6665.07
-3833.65
-1579.23
-1008.89
-1285.12
-793.876
-3885.63
-1224.4
-1952.62
-248.644
-9991.68
-2946.63
-7571.07
-2334.63
-8626.43
-2594.27
-9768.37
-3205.57
-12448.6
-12255.1
-9684.15
-12133.6
-19033.4
-17091.5
-15571.9
-16230.8
-7108.03
-9253.37
-8293.78
-8551.1
-9070.13
-12049.3
-9540.55
-12158.4
-14867.9
-15900.7
-15412.9
-16011.9
-6284.4
-9376.89
-6083.88
-9490.35
-691.551
-1319.2
-7321.53
-3943.28
-666.688
-1081.47
-6407.44
-3321.36
-697.22
-1190.11
-7729.31
-4349.79
-1005.05
-1310.11
-7804.99
-4590.73
196.593
344.826
-466.592
-302.028
903.329
1433.81
-734.267
-443.807
-1072.94
-14.7036
-2443.51
-2077.88
7616.28
3859.09
4507.75
3069.06
71.8859
7081.16
10311.6
4886.9
4996.86
98.8824
-9556.07
-6912.28
-5559.92
-5622.65
-3160.51
539.982
439.377
-161.717
-245.567
1522.75
1647.34
-439.559
-592.575
1335.57
1872.54
-1287.06
-1507.65
3021.45
1462.99
7926.46
5497
4244.87
2982.96
3906.66
3197.35
-144.945
-810.219
-5067.57
-3541.31
417.536
2064.05
686.491
1879.52
-278.825
755.675
-633.17
-949.214
-4077.59
-4484.85
-9643.18
-6103.43
-8725.31
-8419.03
-13054.3
-10149.6
-7251.83
-4415.24
-2429.55
-3110.8
-11405
-4830.37
-12235
-4470.23
-14985.4
-9799.62
-15963.5
-9446.76
-8744.5
-3205.19
-9503.34
-2768.76
-5292.32
-4227.53
-3818.7
-6770.26
-2537.4
-3390
-2444.55
-5658.05
-5838.26
-3915.51
-4667.92
-7782.18
-7100.54
-3673.06
-5586.78
-7673.34
541.818
674.544
775.052
-155.474
130.685
174.548
1928.99
2239.99
2378.71
-206.394
536.689
639.095
2348.65
3201.46
3558.11
-786.098
938.881
1288.67
697.582
1252.79
1117.46
4080.61
4335.13
3993.47
3185.23
3668.24
3525.68
3423.33
4165.7
4263.54
-399.511
1362.14
1281.12
-4166.26
-2092.83
-1229.37
1100.54
2226.63
2590.79
1396.72
2565.39
2858.04
875.168
2268.86
2554.43
-1536.73
914.27
1072.14
-72.4962
3.58468
28.6902
58.0367
95.0951
89.8539
105.048
97.5563
-194.142
-0.126581
79.9293
155.098
217.078
205.652
225.416
218.11
-379.273
-55.0036
77.7627
239.819
28.5704
164.409
182.377
237.788
37.1677
107.052
64.1215
72.3464
-151.712
-15.3076
32.8001
82.7544
-960.005
-293.724
-141.191
115.52
-1414.1
-455.637
-318.46
160.857
-793.447
-221.827
-72.3342
224.983
-1148.2
-364.185
-277.454
165.874
-887.082
-282.509
-131.234
95.6658
-1560.98
-504.957
-339.379
203.658
-941.965
-327.764
-124.213
138.165
-1640.16
-534.563
-355.205
224.278
-68.756
-5.63996
7.46196
49.9035
-56.4101
-2.50327
-5.99709
53.1443
-185.804
-19.8346
23.0432
134.345
-92.9063
14.701
-2.11566
145.702
-649.553
-172.324
-61.7333
199.637
-493.647
-108.324
-63.4875
233.156
-298.836
-33.3513
16.8312
240.215
-198.607
-7.38919
-23.3194
231.539
-962.554
-282.493
-215.612
252.818
34.844
27.11
15.7543
44.7949
118.611
51.8628
28.6199
28.7595
27.7733
52.3453
24.3843
115.919
291.852
134.295
69.3154
75.1351
-65.4687
37.7285
18.6061
180.926
401.454
193.937
103.467
114.277
-78.6417
50.267
23.2427
238.801
430.389
228.834
114.954
132.678
-269.948
9.54105
-52.1574
222.311
255.056
204.534
79.5202
118.707
-968.194
-128.109
-169.202
194.981
-276.116
61.3493
4.55424
77.948
-616.333
-37.6217
-123.561
203.099
-64.7307
134.868
38.2417
98.46
-1268.58
-249.033
-223.456
208.153
-416.256
-14.004
-27.2709
66.8643
-1481.06
-375.418
-282.136
202.484
-543.307
-104.419
-65.3046
53.7856
22.4517
10.4166
5.20528
2.84361
1.92103
31.6603
15.9541
8.29853
4.63819
3.16137
47.5722
22.1361
11.0272
6.04299
4.11999
83.2208
43.4676
22.9821
13.0116
8.9394
68.4784
32.1163
16.2186
8.99517
6.17972
120.308
62.0113
33.0524
18.8815
13.0429
40.2742
20.2686
10.8539
6.23974
4.32322
21.732
10.8349
5.72549
3.28001
2.26534
60.9518
26.8296
13.6202
7.63667
5.23167
13.0003
3.87044
1.58836
0.792123
0.514648
92.4713
44.6375
23.3521
13.2639
9.15051
24.8378
9.86683
4.80588
2.63496
1.777
19.4902
5.50554
2.13447
1.04318
0.676684
13.3505
4.32697
1.90452
1.00771
0.677005
17.7261
4.84667
1.83118
0.891358
0.561233
8.66563
1.32102
0.209189
0.0172023
-0.0241689
18.052
7.83425
3.74678
1.98327
1.31832
17.4346
7.48397
3.5627
1.88055
1.24843
41.7982
17.8332
8.53166
4.53367
3.03511
40.6443
17.0112
8.11385
4.29936
2.86044
54.3734
21.8174
10.3409
5.47415
3.66664
49.5784
20.9827
10.1981
5.45069
3.66948
67.5415
31.7016
16.3705
9.19944
6.34053
33.8588
15.4579
7.77083
4.23135
2.89824
39.2507
19.1815
10.1052
5.76859
3.98856
-507.591
-624.867
-1402.15
-1781.68
-2149.65
-2859.45
-2598.52
-3783.54
-2545.31
-3708.65
-2310.13
-3122.49
-2082.33
-2549.31
-2711.31
-3715.56
-2856.34
-3912.51
-545.074
-119.973
-26.2131
-5.58211
-1.36085
-219.803
-81.6187
-8.66394
-2.52636
-1.03902
-1760.99
-390.36
-85.7901
-18.4117
-4.52176
-567.227
-120.697
-24.4561
-4.76293
-1.01418
-3093.9
-689.789
-152.499
-33.031
-8.1851
-999.723
-238.678
-52.9372
-11.6012
-2.8171
-4414.93
-989.898
-221.034
-48.4373
-12.1553
-1406.21
-368.047
-87.553
-20.2131
-5.15794
-6115.8
-1410.95
-321.897
-71.8573
-18.3519
-1879.91
-558.82
-141.095
-33.6403
-8.815
-8140.95
-2051.79
-494.57
-115.012
-30.3149
-2196.33
-689.691
-179.637
-43.5797
-11.6097
-7461
-1822.05
-428.444
-97.658
-25.3313
-2116.22
-673.731
-175.423
-42.479
-11.2208
-8453.92
-2159.11
-527.005
-123.942
-32.9653
-2256.3
-686.357
-175.779
-42.1348
-11.1879
-8691.99
-2212.94
-542.501
-128.307
-34.3075
-2264.74
-689.701
-176.35
-39.2447
-11.0395
-256.427
-6763.66
-6638.61
-3724.3
3795.11
5216.92
10494.9
13809
5968.61
12048.1
2250.39
7213.52
5859.83
9766.63
10763.3
14864.6
12955
14756
7396.76
8376.28
-19017.8
-14134.3
-4134.58
-3145.73
-2434.28
-3896.89
-2769.76
-12316.6
-11888.3
-10244.7
-10676.1
-8662.51
-5986.65
-8352.47
-5022.52
-3840.92
-4729.63
-3020.36
-20377.2
-9993.72
-2887.8
-4876.45
-7507.28
-5046.63
-5863.64
-4397.48
-2105.44
-3550.53
-3167.86
-3701.84
-19058.3
-11762.8
-11780.8
-7426.35
-7834.5
-7927.7
-3806.6
-4807.42
-5095.38
-12730.1
-11959.5
-10043.1
-9692.6
-8564.63
-10025.8
-7386.21
-6023.9
-4893.24
-2181.85
-3648.8
-3018.49
-2256.36
-1401.19
-475.667
-2806.61
-2346.05
-1762.73
-1093.87
-370.905
-2157.48
-1789.43
-1334
-822.799
-278.172
-3479.36
-2909.12
-2183.8
-1352.81
-458.17
-2455.15
-2037.86
-1522.05
-941.129
-318.693
-8110.94
-6812.29
-5353.27
-4860.78
-5110.93
-6475.03
-5063.29
-3531.95
-2808.71
-2294.89
-7088.1
-4820.31
-3595.93
-2640.13
-1143.79
-5765.34
-4270.97
-2918.59
-2228.65
-1522.11
-4390.52
-3036.16
-1991.9
-1588.55
-925.337
-4758.5
-3568.65
-2522.94
-1559.23
-548.781
-5987.41
-4143.29
-2919.93
-1901.27
-749.171
-3522.52
-2323.94
-1564.82
-977.693
-367.497
-3168.01
-2449.28
-1745.83
-1064.25
-363.791
-3807.3
-2868.17
-2007
-1211.76
-413.933
-2520.04
-1966.62
-1404.79
-851.633
-288.434
-13744.5
-11219.3
-9154.91
-8287.4
-7513.55
-7653.08
-5674.41
-4279.93
-3021.43
-1257.31
-2397.91
-1870.32
-1348.42
-832.354
-286.949
-4121.53
-3277.52
-2407.12
-1508.17
-523.291
-6173.23
-4811.28
-3563.5
-2312.39
-834.291
-4298.16
-3444
-2550.66
-1607.28
-554.844
-5085.11
-4136.05
-3074.1
-1919.26
-652.452
-3823.79
-3117.01
-2306.84
-1428.58
-486.165
-1812.53
-1458.65
-1062.73
-648.157
-218.7
-3116.5
-2560.08
-1896.24
-1167.28
-394.853
-2688.97
-2137.77
-1551.29
-950.827
-323.439
-3195.45
-2585.66
-1902.94
-1175.63
-400.515
-12682.4
-11193
-9401.04
-8828.61
-7582.94
-8670.45
-6430.83
-5124.82
-3959.3
-1744.11
-9383.51
-7534.6
-5903.04
-4537.9
-1982.91
-6046.46
-4545.51
-3441.92
-2335.73
-744.059
-6577.6
-5176.25
-3859.13
-2485.18
-838.355
-6429.51
-4803.69
-3622.24
-2451.34
-760.078
-3274.81
-2643.29
-1951.46
-1214.75
-415.144
-4222.97
-3475.12
-2583.66
-1597.97
-541.993
-4378.24
-3533.11
-2613.12
-1631.83
-559.101
-6539.32
-14377.8
-11466.6
-37423.3
-10782
-48731.6
-7247.37
-19185
-9409.33
-7933.95
-18547.3
-14479
-9534.75
-11450.6
-20233.3
-16754.3
-4113.92
-2808.02
-9490.41
-6679.87
-7200.11
-3763.99
-26131.9
-18454.1
-15744.1
-10920.4
-16377.4
-10662.2
1817.11
-1551.31
-44828.4
-54478.8
-22593.9
-30955
-57024.6
-69525.7
-25202.9
-31848.7
-33564.1
-43319.3
-25523.8
-36227.5
-16224.3
-19537
-2221
-425.157
-4855.01
-1564.99
-4201.45
-1988.67
-13584.6
-4856.97
-2110.58
-1008.72
-5939.28
-1648.13
-15687.5
-4522.47
-20662.8
-6475.69
-19086.4
-11741.5
-19737.1
-13648.2
-18442
-13162.6
-18431.6
-15140.7
-15618.2
-11214.3
-14322
-9674.21
-20548.8
-15065.6
-22001.3
-16016.3
-19641.1
-16579.6
-21281.2
-17542.4
-17197.5
-12581
-19045.6
-13483
-18117.1
-7623.24
-10025.9
-12124.6
-17665.2
-8337.39
-9107.33
-12418.5
-18817.8
-7242.25
-10989.5
-12105.6
-19698.1
-7347.67
-11861.2
-12336.7
-679.107
-513.197
113
-721.012
-2539.41
-3158.43
-1808.83
-4725.09
-3816.63
-5127.08
-3997.18
-8687.05
-17228.3
-16399.3
-13878.4
-16385.7
-9948.94
-10940.9
-8762.61
-7707.59
-16215.7
-13423.9
-12915.7
-12380.5
-11865.6
-11256.1
-17179.9
-739.93
-939.38
-486.322
-719.372
-3165.82
-2833.79
-3604.45
-3565.24
-3087.96
-1651.1
-5979.96
-5687.54
-11900.7
-12738.6
-11194.7
-11147.8
-10286.2
-8566.55
-13943.1
-11982.3
-12520.4
-11829.4
-15407.6
-15778
-14616.7
-13024.4
-12081.8
-9881.1
-10944.5
-8521.58
-14785.4
-10930.1
-13382.8
-7866.52
-10964.6
-11021.8
-16354.4
-19257.5
-16304.5
-21352.2
-9007.74
-9272.46
-11542.7
-5674.97
-10851.9
-17199.4
-11354.1
-18418.4
-16541.9
-26079
-17053.7
-26492.3
-9117.69
-15087
-9644.87
-16487.8
-11034.2
-8398.22
-14658.4
-6618.68
-11163.4
-4436
-13545.1
-3418.3
-11826.3
-12176.8
-15528.8
-7986.65
-10830.5
-14161
-14369.4
-10202.4
-1138.16
-873.142
-654.661
-806.624
-2179.63
-1075.73
-2979.68
-2971.39
-533.689
-365.723
-5262.36
-5098.53
-13700.7
-11731.2
-10931.3
-8381.53
-7190.42
-4856.93
-9587.53
-7261.92
-10252.9
-6867.89
-19990.1
-16921.8
-10557.2
-8466.39
-8273.14
-6025.97
-7260.84
-4968.84
-8233.3
-4146.45
-5894.4
-11265
-5425.93
-11043.4
-7469.46
-12173.8
-8824.4
-13706.2
-1652.96
-1559.02
-1468.39
-1478.93
-4634.67
-4857.86
-4323.25
-4485.38
-1846.64
-2208.14
-9129.69
-9987.71
-5583.53
-6303.59
-10697
-10116.6
-14925.3
-16871.2
666.301
5510.78
-7807.03
-5829.62
-6385.1
-3836.8
-1376.02
-1300.32
-1500.76
-1276.46
-3080.37
-2026.65
-2417.04
-1453.76
-8244.16
-3989.27
-7743.23
-3657.57
-8650.01
-3339.25
-9804.29
-3507.29
-6710.09
-9709.83
-7610.18
-10734.5
-11597.3
-13142.1
-12943.5
-14284.6
-5942.2
-8592.38
-5130.84
-7635.32
-8200.24
-11442.9
-9281.85
-11984.2
-13740.1
-15055.1
-15079.8
-15768.5
-5807.96
-9092.08
-5942.82
-9409.69
-777.297
-1746.81
-7304.79
-4186.05
-919.416
-1839.24
-6583.19
-3696.46
-842.649
-1534.86
-7733.94
-4525.01
-1069.5
-1453.52
-7793.14
-4670
-1258.26
-1421.27
-1310.12
-1472.33
-3061.4
-3383.53
-2266.76
-2582.44
-7470.27
-8032.4
-4202.54
-4575.91
-4163.86
-9568.3
-2729.52
-371.067
-1399.03
-4162.22
-1154.63
-1925.5
1857.89
-889.6
-13951.3
-10085.7
-7668.17
-7378.9
-3984
-1703.2
-1838.43
-1714.93
-2062.11
-3991.21
-4246.7
-3046.37
-3759.02
-8499.31
-9480.42
-4608.43
-5759.39
-6181.81
-7494
-2131.03
-4152.71
-3382.32
-4659.54
-889.158
-1751.93
-1809.95
-2844.47
-11377.1
-8846.34
-6178.58
-4259.54
-4543.11
-3114.11
-4277.17
-2885.38
-2343.23
-2900.14
-7395.43
-7885.78
-11152.6
-7586.8
-11255.7
-11180.2
-13999.8
-11361.9
-9055.97
-5927.36
-5655.82
-6344.02
-12127
-5672.57
-12428.1
-4664.63
-15404.9
-10511.7
-16056.9
-9590.98
-9659.59
-4062.05
-9764.5
-2987.32
-7051.76
-5646.98
-5375.07
-8422.52
-5343.93
-6213.32
-4450.52
-8304.99
-6777.15
-4760.27
-5603.57
-8770.47
-7389.01
-3927.58
-5886.19
-7931.06
-1523.81
-1598.52
-1457.86
-1179.21
-4590.29
-5185.59
-2312.81
-1347.84
-10135.2
-8409.48
-3401.41
-414.948
-9337.4
-8047.1
-5970.2
-4956.53
-4965.54
-3963.76
-1830.15
-901.874
-2008.55
611.06
-8474.26
-6987.6
-4197.9
-2975.35
-2809.46
-1482.22
-2183.13
-732.211
-3558.1
384.255
-285.068
-116.224
-37.9993
23.1438
-301.217
-144.657
-32.0215
17.6035
-731.653
-303.028
-81.0713
82.0156
-686.839
-337.51
-107.796
-0.409815
-1090.67
-460.363
-158.715
115.707
-1065.77
-513.343
-280.047
-102.399
-630.347
-320.776
-208.352
-76.8602
-439.945
-205.931
-89.2983
12.5782
-1347.49
-535.934
-320.291
-14.559
-1541.34
-511.912
-374.32
159.721
-1354.72
-535.925
-305.691
22.8149
-1313.61
-437.612
-348.78
164.014
-1184.39
-473.22
-247.294
54.1646
-1659
-550.207
-389.243
180.17
-1069.64
-411.655
-177.35
113.238
-1683.3
-555.997
-374.663
218.063
-269.203
-99.7756
-40.3568
33.0429
-269.386
-87.6579
-53.7764
38.1636
-694.109
-262.486
-101.616
91.0279
-682.386
-230.757
-134.891
108.72
-1210.47
-454.059
-222.907
157.505
-1170.05
-407.584
-243.628
186.125
-1189.31
-481.287
-258.543
73.1283
-878.533
-323.904
-196.267
194.388
-1328.97
-454.898
-358.735
211.729
-200.006
-63.9699
-27.3754
25.9038
-120.658
-45.1195
-14.5648
3.08925
-547.114
-177.626
-91.7735
64.9839
-331.987
-127.652
-52.4951
3.38101
-755.199
-258.241
-143.445
104.295
-457.477
-197.206
-82.8409
4.86462
-879.153
-324.703
-189.044
132.138
-579.116
-264.067
-119.715
-0.806301
-1043.25
-363.466
-276.979
99.6448
-779.309
-307.016
-175.498
-30.6479
-1806.13
-591.583
-446.065
46.566
-965.72
-333.973
-209.699
-46.3051
-1553.81
-511.887
-407.718
49.9507
-1000.37
-346.615
-214.338
-51.0092
-1809.15
-569.061
-415.345
107.981
-832.187
-274.517
-170.62
-12.2237
-1661.21
-486.612
-348.934
168.33
-675.975
-192.303
-114.143
27.2541
-5.51956
-7.10414
-4.79193
-3.02137
-2.17685
-18.4369
-12.9991
-7.8871
-4.80503
-3.42808
-12.6708
-14.9996
-10.0433
-6.29285
-4.49284
-58.8754
-37.1939
-21.8179
-13.075
-9.25514
-28.3102
-23.9434
-15.0139
-9.19347
-6.50219
-90.0062
-54.3978
-31.1043
-18.3949
-12.9429
-30.3399
-18.0492
-10.2227
-6.01002
-4.22024
-14.8755
-9.18632
-5.34126
-3.17294
-2.24905
-26.138
-20.5553
-12.3818
-7.45136
-5.283
3.61228
-1.41459
-1.33772
-0.908285
-0.670551
-61.3845
-37.9373
-21.6896
-12.8196
-9.01404
-5.84163
-6.97003
-4.39755
-2.69381
-1.93303
5.54696
-1.26621
-1.53668
-1.0877
-0.812311
0.76308
-2.07949
-1.57455
-1.00946
-0.731407
6.49666
-0.894356
-1.32789
-0.968643
-0.765007
7.50813
0.934233
0.00721896
-0.111215
-0.130758
-0.929824
-4.74319
-3.51262
-2.2866
-1.66643
-2.2272
-4.7321
-3.37559
-2.18127
-1.58696
-4.49004
-11.5272
-8.17568
-5.2479
-3.79285
-6.65267
-11.5335
-7.92776
-5.05841
-3.66516
-5.0784
-14.9022
-10.2887
-6.55389
-4.71987
-16.8288
-16.7269
-10.581
-6.60258
-4.72348
-43.7225
-27.4014
-15.6797
-9.32128
-6.54693
-21.347
-14.0675
-8.22547
-5.00569
-3.52635
-31.3902
-17.0192
-9.37942
-5.47217
-3.83108
-185.207
-316.643
-628.082
-1018.6
-1236.18
-1915.75
-1823.82
-2914.48
-2055.96
-3161.36
-2313.88
-3138.22
-1957.44
-2514.92
-2733.32
-3726.09
-2866.43
-3917.03
-528.61
-118.577
-26.0767
-5.5658
-1.3582
-157.318
-73.8464
-7.06149
-2.29886
-1.01544
-1726.52
-388.054
-85.6752
-18.4134
-4.52368
-411.831
-95.3298
-20.3578
-4.10721
-0.89625
-3041.6
-685.403
-152.135
-33.0019
-8.18181
-811.698
-207.464
-47.8108
-10.7722
-2.66607
-4336.5
-980.401
-219.739
-48.2409
-12.1176
-1242.39
-339.608
-82.6592
-19.3835
-5.00035
-6014.98
-1395.39
-319.285
-71.3976
-18.2561
-1782.22
-538.612
-137.209
-32.9255
-8.67036
-8072.04
-2035.65
-491.094
-114.303
-30.1544
-2190.7
-686.002
-178.572
-43.3323
-11.5505
-7366.99
-1803.23
-424.783
-96.9583
-25.1794
-2082.8
-662.983
-172.947
-41.9713
-11.1106
-8411.96
-2148.62
-524.622
-123.439
-32.8481
-2256.6
-685.495
-175.466
-42.0567
-11.1682
-8678.18
-2209.42
-541.679
-128.131
-34.266
-2265.36
-689.646
-176.309
-39.2393
-11.0371
-133.812
-6616.49
-6120.02
-2921.08
-1502.3
-859.047
-3192.95
-2458.36
-5595.09
-6092.89
-3210.96
-3015.47
-338.991
-521.084
-887.1
-1390.3
-1991.99
-2607.8
-235.676
-496.699
-1017.86
-1745.6
-2603.18
-3492.18
-262.745
-114.158
-467.883
-289.135
-875.746
-649.549
-1417.88
-1215.58
-1971.97
-1942.02
-2465.04
-2677.92
-3264.96
-3978.02
-4867.05
-6953.2
-7401.8
-9008.3
-4312.84
-4908.11
-5092.74
-4933.32
-4118.45
-3720.32
-306.169
-259.288
-196.86
-122.863
-41.754
-470.296
-397.955
-301.895
-188.301
-63.9714
-799.969
-676.264
-512.563
-319.497
-108.51
-1252.26
-1057.24
-800.401
-498.542
-169.26
-1791.07
-1509.34
-1140.95
-710.042
-240.986
-2338.16
-1964.74
-1482.1
-921.519
-312.699
-212.733
-180.068
-136.646
-85.2471
-28.9609
-448.032
-378.888
-287.269
-179.103
-60.8315
-917.413
-775.136
-587.237
-365.938
-124.264
-1571.47
-1326.07
-1003.56
-624.983
-212.181
-2339.28
-1970.3
-1488.99
-926.658
-314.541
-3129.59
-2628.89
-1983.17
-1233.51
-418.725
-237.42
-201.129
-152.748
-95.3578
-32.4168
-103.162
-87.3997
-66.3798
-41.4411
-14.0885
-422.476
-357.641
-271.417
-169.343
-57.5451
-261.121
-221.097
-167.827
-104.725
-35.5892
-790.123
-668.276
-506.731
-315.956
-107.327
-586.181
-495.928
-376.142
-234.57
-79.6863
-1277.68
-1079.18
-817.28
-509.136
-172.867
-1095.54
-925.469
-700.923
-436.65
-148.251
-1773.65
-1495.06
-1130.24
-703.307
-238.668
-1746.59
-1472
-1112.47
-691.998
-234.772
-2209.79
-1856.2
-1399.48
-869.647
-294.982
-2399.86
-2014.61
-1517.4
-941.884
-319.261
-2913.65
-2437.29
-1833.6
-1139.56
-386.844
-3520.68
-2923.27
-2192.34
-1364.64
-464.302
-4241.95
-3477.13
-2601.26
-1631.91
-559.228
-5900.03
-4734.46
-3552.98
-2285.33
-796.849
-5963.29
-4658.56
-3563.82
-2445.22
-930.341
-6965.79
-5342.79
-4170.92
-3021.42
-1203.88
-3849.41
-3221.52
-2425.37
-1508.61
-512.488
-4354.74
-3625.94
-2724.68
-1697.39
-577.877
-4477.8
-3701.69
-2778.08
-1738.78
-594.992
-4270.22
-3489.25
-2620.25
-1660.24
-574.827
-3461.49
-2779.04
-2102.02
-1374.48
-494.05
-3020.06
-2377.3
-1819.13
-1238.66
-463.066
-358.036
-580.025
-990.452
-1540.93
-2191.32
-2842.25
-259.985
-572.082
-1149.03
-1933.56
-2837.42
-3743.09
-282.189
-128.726
-528.923
-336.071
-986.358
-738.728
-1586.6
-1365.47
-2208.63
-2213.85
-2751.95
-3161.42
-3523.45
-4252.21
-5148.3
-7157.05
-7537.51
-9059.37
-4536.72
-5059.59
-5147.13
-4894.99
-4051.44
-3689.51
-323.463
-274.03
-208.13
-129.937
-44.1654
-523.849
-443.637
-336.844
-210.25
-71.4578
-893.961
-756.551
-574.078
-358.179
-121.711
-1389.49
-1174.73
-890.635
-555.398
-188.686
-1973.17
-1665.75
-1261.5
-786.235
-267.065
-2553.38
-2150.69
-1626.33
-1013.16
-344.16
-234.815
-198.89
-151.033
-94.277
-32.0402
-516.507
-437.289
-331.94
-207.154
-70.3974
-1036.69
-877.021
-665.296
-415.022
-141.015
-1742.72
-1472.69
-1116.18
-695.957
-236.432
-2553.33
-2154.25
-1630.85
-1016.35
-345.245
-3360.03
-2828.15
-2137.84
-1331.85
-452.499
-255.053
-216.149
-164.221
-102.554
-34.8693
-116.375
-98.6477
-74.9669
-46.8253
-15.9237
-477.904
-404.891
-307.541
-192.017
-65.2768
-303.718
-257.388
-195.553
-122.119
-41.5185
-890.683
-754.134
-572.481
-357.285
-121.429
-667.233
-565.108
-429.102
-267.85
-91.0396
-1431.39
-1210.75
-918.316
-572.791
-194.616
-1232.18
-1042.52
-790.88
-493.363
-167.635
-1989.79
-1680.64
-1273.22
-793.643
-269.584
-1995
-1685.44
-1277.06
-796.069
-270.407
-2473.01
-2083.54
-1575.74
-981.595
-333.398
-2842.54
-2396.03
-1812.45
-1128.97
-383.42
-3153.01
-2646.25
-1997.44
-1244.61
-423.098
-3778.45
-3152.18
-2375.02
-1483.58
-505.693
-4513.63
-3725.1
-2804.81
-1767.85
-607.162
-6114.32
-4944.44
-3737.98
-2417.45
-844.609
-6118.21
-4816.79
-3710.76
-2558.73
-975.8
-7028.88
-5409.93
-4236.56
-3075.93
-1226.11
-4057.04
-3403.13
-2568.06
-1600.27
-544.154
-4498.52
-3755.02
-2828.83
-1765.83
-601.826
-4535.04
-3758.49
-2828.36
-1774.34
-607.934
-4244.64
-3476.4
-2618.36
-1664.13
-577.189
-3408.67
-2741.13
-2079.88
-1365.81
-492.595
-2995.79
-2359.79
-1809.02
-1235.11
-462.626
-18949.7
-14197
-4539.67
-3546.09
-3004.17
-4583.62
-3281.86
-13148
-14178.7
-11767.1
-13537.3
-7133.47
-11279.8
-5170.45
-5445.28
-3809.09
-21182.3
-10924
-3457.66
-5540.46
-8175.71
-5455.48
-6542.13
-4979.51
-2428.37
-4293.98
-3849.8
-4250.53
-18973.5
-11999
-12341.9
-7831.22
-8229
-8411.1
-4489.67
-5517.65
-5571.95
-12717.6
-12004.6
-10136.2
-9853.82
-8725.61
-10120.8
-7490.96
-6133.8
-4997.49
-2227.11
-4031.62
-3360.22
-2530.41
-1580.32
-538.137
-3176.49
-2668.13
-2014.59
-1255
-426.435
-2686.8
-2253.28
-1699.37
-1058.22
-359.716
-4113.12
-3460.31
-2614.34
-1628.04
-553.005
-2931.88
-2456.53
-1852.33
-1154.07
-392.455
-9640.95
-8621.44
-7220.08
-6601.23
-6560.69
-9931.13
-9048.26
-7391.73
-6152.46
-4602.29
-9058.23
-6805.89
-5416.67
-4069.55
-1765.65
-9834.58
-8429.58
-6683.82
-5378.52
-3317.67
-6045.67
-4842.77
-3637.45
-2351.92
-848.996
-9108.29
-6973.75
-5311.08
-3635.13
-1457.41
-4475.31
-3648.36
-2733.34
-1730.62
-604.045
-4695.27
-3815.29
-2857.68
-1814.34
-635.921
-3319.85
-2721.93
-2039.14
-1283.63
-444.21
-15102.8
-12799.5
-10789
-9815.49
-8708.39
-8746.64
-6790.53
-5303.15
-3802.97
-1581.27
-2987.04
-2433.09
-1826.86
-1162.22
-407.309
-4796.3
-3919.06
-2952.5
-1884.17
-659.991
-6897.49
-5530.91
-4203.57
-2776.36
-1010.85
-4718.37
-3848.13
-2898.67
-1849.93
-643.275
-5738.78
-4730.25
-3559.63
-2242.16
-766.012
-4391.21
-3639.11
-2737.22
-1716.32
-588.081
-2143.91
-1777.36
-1334.42
-833.93
-285.349
-3819.35
-3187.63
-2399.54
-1496.41
-509.899
-3368.18
-2771.78
-2079.93
-1308.35
-451.519
-3738.26
-3091.31
-2324.07
-1459.6
-501.768
-12787.1
-11448.8
-9764.55
-9303.06
-8090.69
-8977.29
-6749.49
-5434.59
-4222.57
-1862.94
-10147.3
-8362.11
-6720.89
-5228.3
-2302.95
-6489.39
-4983.1
-3833.85
-2624.23
-839.592
-7007.06
-5602.29
-4240.04
-2760.93
-938.052
-6978.55
-5346.5
-4115.71
-2818.72
-888.4
-3933.56
-3242.62
-2441.09
-1540.42
-530.215
-4896.8
-4079.03
-3069.63
-1916.49
-653.403
-4858.51
-3988.19
-2999
-1896.51
-654.398
-438.963
-1208.76
-1860.11
-2474.25
-3100.09
-3674.54
-2444.24
-6294.63
-5888.79
-2443.08
-7179.89
-6504.15
-7652.87
-10247.4
-1384.25
-168.687
-2614.49
1319.62
-10221.3
-8567.82
2050.12
-1777.87
-4965.95
-4747.75
-1872.92
-5453.83
-3063.47
-6072.63
-6237.53
-608.477
962.294
-1115.78
3562.95
-7154.88
-4648.39
3975.88
-1089.96
-3357.83
-3443.91
-1277.75
-3370.16
-478.169
-4488.07
-4477
-162.244
1154.43
120.102
3721.92
-4338.5
-423.712
4512.03
-720.16
-2375.49
-2750.5
-971.104
-1777.98
897.72
-3748.02
-4181.28
48.2984
831.558
471.995
3103.81
-3250.75
1631.81
4287.5
-616.711
-2219.08
-2613.52
-884.423
-1641.7
606.686
-3965.8
-5412.23
126.836
626.277
577.375
2669.7
-3106.41
1617.43
2945.38
-592.702
-2180.73
-2539.72
-854.375
-2046.48
-192.514
-3882.95
-5322.53
172.34
974.189
469.227
2749.08
-3649.94
654.663
2161.08
-1322.49
-3135.89
-4246.69
-1733.84
-6457.92
-11573.5
-7063.79
-12495.9
-1613.45
-1432.38
-5200.98
-4371.58
-2271.04
-9404.21
-4707.71
-1290.76
-3045.75
-3779.1
-1495.91
-6094.23
-9855.34
-6323.86
-9103.9
-1676.22
-1322.44
-5052.41
-4165.41
-1637.14
-8673.32
-4581.55
-1186.86
-2822.81
-3127.51
-1201.56
-5481.6
-8530.97
-5290.05
-8001.6
-1431.11
-1686.44
-4416.75
-4914.95
-1934.35
-7658.63
-5120.62
-1180.5
-3050.88
-2859.45
-1052.04
-5759.87
-8273.81
-5169.72
-7783.19
-1480.29
-2054.07
-4510.86
-5952.58
-2458.01
-8330.33
-6116.1
-1180.37
-3007.43
-2791.52
-1006.83
-5627.41
-8830.1
-5149.34
-8516.5
-1589.53
-2595.77
-4802.99
-7478.64
-3488.51
-9770.98
-7822.16
-1188.2
-2989.65
-2746.44
-989.729
-5694.13
-9027.4
-5016.43
-8393.56
-1777.56
-3218.11
-5271.36
-8501.59
-4646.31
-10741.5
-8709.79
7522.12
9116.43
18711.6
29226.1
28310.6
55213
19535.8
58778.3
20142.4
47116.9
24784.9
40758.7
18971.7
25070.8
8785.05
8903.98
13438.2
15274.1
18343.4
16658.4
12720.7
19143.2
18945.6
18957.6
4977.34
3651.19
6710.43
4827.6
12279.6
8032.09
22612.9
15830.5
18826.7
19153
19211.8
19574.9
4508.48
3960.68
43724.1
54055.5
23294.4
31060.8
56225.5
69203.7
26044.4
32050.1
32824
42895.9
26202.8
36246.8
15103.9
19085.9
2926.26
938.598
3731.74
1304.41
6973.61
2881.63
12025.2
4428.26
7969.71
2646.79
7967.33
2260.73
15640.3
4563.74
20479.1
6433.65
26243.6
15052.5
22159.3
15310.4
26745.6
17244.2
21204.2
17104.5
17272.3
12469
19005.2
12059.3
21518.1
15834.6
22240.7
16235.7
20780.1
17455.9
21595.6
17794.5
17802.8
13175.6
19182.1
13654.5
19056.3
7861.16
10927.3
12518.4
20532.4
9096.84
10885.4
13158.9
19091.8
7317.22
11414
12302.9
19733.7
7357.53
11985.9
12393.7
2830.69
3180.57
1006.52
1999.02
8671.52
10187.7
3603.55
6904.16
14139.3
16797.1
6468.52
11648.2
17861.9
9367.41
18336.4
22234.2
11302.6
6780.98
10867.2
12782.6
22595.2
14690.3
10403.9
13731.7
15335.3
14984
18780.7
3067.86
3134.23
1890.65
2044.65
9843.07
9303.38
6440.93
6499.96
14752.1
13386.2
9517.05
9518.24
9801.07
10928.1
15477.7
16427.2
17559
16502.6
21015.5
19218.8
14761.8
14695.8
13297.2
14297
17182.6
15516
16280.6
13449.9
14688.9
11604.3
16529.5
13052.6
14417.5
7528.33
11346.7
10924.6
15882.4
18322.8
16221.9
21021.8
9601.33
9355.29
13102.7
5692.47
10997.9
17225.7
11401.5
18438.7
16478.4
25817.2
17055.3
26473.5
9358.95
15204.2
9715.13
16526
11559
8486.29
14932.5
6616.45
12470.8
4392.11
14115.9
3148.39
12045.7
12274.1
15658.2
8008.53
10894.4
14195.7
14403.2
10221
2877.24
2654.92
2267.58
1897.53
1846.48
1602.65
8487.74
7227.02
6227.94
5603.72
4623.83
3852.88
11055
9228.05
8341.45
8076.93
6389.56
5698.75
9718.64
7719.78
7236.81
15238.4
11101.4
8878.63
13896.8
9968.67
7588.15
15558.1
11959.1
9907.62
12313.3
8220.52
6001.83
18182.3
14525.1
12709
13463.6
10443.8
8486.2
12031.4
8841.27
6795.13
10888.9
7949.79
6150.06
11972.6
7037.49
4257.4
11662.1
18958.2
9928.32
14168.9
9555.9
19618
8025.98
16109.2
184.437
1592.13
-215.61
935.188
3521.22
6708.55
2204.63
4083.96
1854.9
3922.26
11094.2
16478.8
8750.71
6578.54
11880.5
10392.9
16041.5
17186.9
-573.045
-5633.37
8483.96
5936.43
6664.53
3833.6
1436.89
934.86
1163.27
726.879
3891.1
1217.51
1955.92
246.409
9990.28
2943.63
7569.88
2332.72
8625.91
2593.7
9768.43
3205.44
12449.9
12255.7
9685
12134
19034.9
17092.2
15572.8
16231.2
7107.79
9253.4
8293.33
8551.06
9070.62
12049.6
9540.96
12158.7
14868.4
15901
15413.3
16012
6284.42
9377.01
6084.09
9490.58
690.667
1318.33
7321.36
3942.95
665.559
1080
6407.16
3320.8
696.773
1189.68
7729.29
4349.64
1005
1309.94
7805.13
4590.72
-186.354
-319.957
438.324
284.187
-899.546
-1430.99
727.086
435.242
1073.08
15.2397
2439.89
2074.79
-7616.09
-3858.95
-4507.72
-3069.23
-73.3389
-7081.08
-10311.5
-4886.77
-4996.51
-100.106
9556.25
6912.48
5559.85
5622.39
3159.62
-511.089
-409.705
135.766
212.944
-1514.64
-1644.46
443.818
596.028
-1332.92
-1869.66
1287.92
1509.89
-3021.3
-1462.84
-7926.11
-5496.57
-4244.44
-2982.34
-3905.35
-3195.51
144.997
811.224
5067.71
3541.43
-417.242
-2063.69
-686.169
-1879.02
279.27
-754.95
633.143
949.759
4077.89
4485.08
9643.39
6103.56
8725.52
8419.12
13054.5
10149.7
7251.96
4415.37
2429.76
3111.08
11405.2
4830.48
12235.2
4470.36
14985.5
9799.66
15963.5
9446.8
8744.61
3205.29
9503.49
2768.89
5292.36
4227.62
3818.61
6770.31
2537.55
3390.3
2444.49
5658.31
5838.3
3915.58
4667.87
7782.21
7100.65
3673.16
5586.81
7673.42
-516.143
-631.752
-724.413
121.607
-136.94
-174.633
-1916.45
-2230.21
-2371.91
218.218
-529.475
-634.515
-2343.49
-3197.17
-3555.03
789.998
-935.866
-1286.55
-697.426
-1252.62
-1117.29
-4080.11
-4334.66
-3993.07
-3184.38
-3667.46
-3525.06
-3420.78
-4163.37
-4261.72
401.026
-1360.74
-1279.99
4166.37
2092.97
1229.53
-1100.15
-2226.24
-2590.41
-1396.11
-2564.78
-2857.5
-874.243
-2267.92
-2553.58
1537.53
-913.522
-1071.54
69.2203
-2.42677
-25.5767
-53.0292
-88.8317
-83.5931
-97.2325
-89.9096
192.87
-0.23311
-80.396
-155.324
-215.784
-205.109
-225.159
-217.823
378.347
54.6373
-78.115
-239.991
-28.6945