/*--------------------------------*- C++ -*----------------------------------*\
| =========                 |                                                 |
| \\      /  F ield         | OpenFOAM: The Open Source CFD Toolbox           |
|  \\    /   O peration     | Version:  2412                                  |
|   \\  /    A nd           | Website:  www.openfoam.com                      |
|    \\/     M anipulation  |                                                 |
\*---------------------------------------------------------------------------*/
FoamFile
{
    version     2.0;
    format      ascii;
    arch        "LSB;label=32;scalar=64";
    class       volScalarField;
    location    "1.7";
    object      gradTz;
}
// * * * * * * * * * * * * * * * * * * * * * * * * * * * * * * * * * * * * * //

dimensions      [0 -1 0 1 0 0 0];

internalField   nonuniform List<scalar> 
5712
(
7586.14
23028.9
5761.48
25173.4
3153.78
26626.5
5358.85
42072.3
8745.19
52807.5
8976.93
37529.1
9590.89
33383.4
9458.87
28706.5
4438.94
2445.66
13400.4
6381.63
4137.99
1914.88
14404.6
5817
5820.88
4322.14
17170.1
12626.3
3903.12
3099.41
17266.4
13147.7
8786.66
3207.51
6714.59
2470.4
3081.07
8195.37
41244.4
12587
12417.5
5705.45
49941.7
15627.3
11529.7
5374.96
27406
9127.79
13990.2
6360.51
22393
7109.92
5462.25
2954.13
9301.36
3784.01
4911.61
3073.75
9754.19
3707.3
6525.58
4137.85
6160.15
2611.17
10805.1
3921.49
4243.75
1574.98
13349.8
10157.4
8034.71
7271.2
14644.4
12875
7917.15
8459.76
7544.51
6568.9
10011.4
8663.79
5931.54
5141.76
3402.88
2940.84
5831.21
5825.87
3288.29
3300.2
5736.5
4565.14
3315.17
2370.53
6532.14
3689.4
6632.73
7243.59
8821.73
6698.78
9593.51
12484.5
4712.99
2031.9
4224.51
4321.58
2641.75
932.262
1925.5
1656.16
6422.21
12837.6
4634.36
14491.6
6950.1
12967.1
5514.81
15380.6
9057.53
12794.6
7600.93
15572.5
9694
11288.7
7773.03
7866.26
9424.12
7452.4
8497.4
11881.7
13991.4
20367.8
10116.1
8445.91
8234.88
10425
16355.6
16023.8
15557.1
18722
18942.1
15591
15642.6
18732.5
18726
14294
14871.1
17888.4
18143.9
9376.64
9982.59
9461.14
10042.2
11564
11716
13651.1
13421.5
17344.8
17666.1
8530.69
9438.53
9835.24
10696.6
11142.3
12262.6
12965.5
14447.4
17125.2
18854.3
10008.7
6843.71
8079.77
8076.15
11048.5
12439.7
8972.65
11742.7
7519.35
7575.4
9596.23
6915.04
3465.89
5818.14
1400.44
2158.16
5550.48
8677.74
2148.37
3229.32
2975
5171.72
1109.92
1884.88
7226.29
6149.09
7436.76
4696.59
10206.9
7326.41
11676.2
7875.77
3427.6
3915.38
4242.07
2443.91
2590.38
2791.66
2874.56
2179.13
13587.4
8984.31
2959.74
14713.5
9301.7
3223.98
13345.7
8773.36
3007.97
14647.3
9262.94
3152.81
12692.7
8223.94
2764.41
14332.8
9097.34
3136.6
7237.53
4201.21
1131.68
8804.15
6027.54
1967.58
10264.4
7222.93
2443.17
11456.2
7508.08
2474.78
13812.3
8756.71
3098.63
7896.25
4392.44
1459.41
7990.94
5221.35
1835.59
9125.09
6058.1
2096.66
10856.5
7007.34
2412.41
13124.9
7734.78
2695.88
-507.629
988.624
431.081
2650.77
1842.13
1846.31
4736.07
4128.87
606.654
963.021
642.646
1009.97
339.969
932.149
624.553
1366.38
1859.64
1126.3
3798.4
2704.22
1722.34
2817.39
2938.98
746.682
6041.74
1857.38
-4330.81
-764.493
577.469
589.804
-97.228
25.9279
10195.1
4339.49
2695.61
1553.64
10035.8
4390.57
2936.6
1834.07
9663.61
4772.93
3913.15
2691.99
3004.99
1900.08
1605.84
1429.97
13227
11539.4
5763.47
7372.13
15089.8
14080.3
7331.14
8783.01
5138.38
6202.59
11047.1
9061.22
3633.76
4783.01
2043.23
2740.93
4872.19
5695.47
2763.65
3218.81
2874.77
4066.87
1560.56
2442.54
4503.92
3096.95
5087.55
3291.64
7808.1
4473.24
6858.06
4320.36
2635.13
2103.43
3514.89
2250.01
1428.51
1299.98
2206.26
1384.46
11778.3
7583.35
5590.43
5640.08
11669.2
7569.88
5507.51
5520.79
11780.6
7296.52
5579.16
5125.83
13322
13108.7
12216
9221.43
5104.06
7963.94
9379.48
9689.83
8890.79
5960.83
11351.9
9962.93
8086.65
6379.34
3979.04
6238.71
5983.55
6116.8
7193.37
6245.23
5836.31
5989.44
7061.33
6018.31
5597.9
5713.53
6791.87
8938.21
8463.55
8100.96
6933.94
5874.06
5816.61
5486.99
5620.73
4996.69
6435.7
6596.8
7474.68
5377.42
6089.6
4625.75
5246.84
4360.24
5159.39
3763.25
5914.48
4784.71
3841.07
3279.84
1811.51
7484.16
5681.92
6040.72
3860.8
2406.76
1397.12
3564.02
3199.83
4211.81
1865.81
1931.16
1067.39
5587.19
3227.25
2264.42
1562.89
3336.93
1424.23
1677.89
837.854
1918.3
2263.6
2285.26
3827.81
2908.35
3503.26
2726.25
4945.61
2357.99
1668.43
1692.31
2765.4
1031.74
388.708
311.08
655.868
4671.01
2148.38
621.156
4932.82
1324.04
352.351
4597.4
2265.52
710.217
4922.29
1372.12
383.619
4274.29
2133.67
558.684
4717.77
1285.81
296.075
5765.6
3196.36
861.241
4656.15
2539.26
719.169
4356.24
2227.86
646.148
4098.79
1975.57
473.666
4512.94
1153.55
205.014
6355.18
3380.74
1063.78
5296.55
2904.01
961.174
4601.64
2439.06
804.637
4229.41
1785.04
496.624
4750.8
1214.87
392.112
1630.48
614.584
303.682
39.1334
661.669
262.116
138.883
34.6164
1679.48
655.281
357.531
88.9697
796.154
347.666
225.385
103.868
1915.1
778.255
462.255
157.281
1353.99
674.291
367.746
164.167
985.958
590.341
255.095
76.2472
1013.49
661.114
354.772
184.834
1579.77
732.786
376.429
54.3848
1492.34
672.892
401.669
-2.70321
1993.89
826.563
499.988
129.758
1774.76
726.312
467.101
-16.6403
1189.51
628.504
312.336
49.629
1153.86
584.448
351.574
65.0896
874.645
535.73
317.233
173.54
798.406
478.722
314.296
169.64
2070.81
750.089
382.477
-14.7394
2133.91
728.866
438.858
-134.488
2059.86
758.926
412.708
8.83019
2047.49
703.023
437.001
-124.44
2066.84
777.242
475.694
50.5905
1834.12
635.545
431.991
-80.0275
1918.09
745.637
514.204
152.047
2021.91
716.914
549.42
-66.326
1481.9
576.776
404.428
62.2491
1739.05
533.156
333.038
-133.625
677.758
189.116
102.654
-26.9155
1721.9
541.201
340.038
-117.15
693.101
199.43
112.108
-16.596
1625.61
527.828
349.841
-86.0794
672.273
201.893
123.104
-2.12804
1373.88
452.431
334.195
-50.5544
594.63
178.921
130.94
16.4055
1206.55
421.494
318.473
-2.42326
540.274
180.978
142.708
41.3231
934.704
398.364
241.508
25.0303
494.371
244.076
144.37
71.7523
999.146
367.632
260.124
10.9713
492.742
200.152
140.979
59.3786
824.632
418.917
245.288
60.7295
493.628
282.243
159.71
93.2689
638.152
395.998
251.908
142.335
451.91
298.592
186.82
130.973
16.643
8.81251
4.91294
2.87351
2.00476
8.52738
4.45941
2.48725
1.46691
1.03407
31.1582
17.2491
9.59157
5.58561
3.8804
29.3123
16.4395
9.0366
5.22688
3.62176
66.4602
38.2861
21.3328
12.4675
8.68749
124.174
69.6748
38.6193
22.4754
15.6104
125.838
72.9082
41.0543
24.0809
16.8097
133.48
75.878
42.4295
24.8366
17.3528
85.1428
50.549
28.6907
16.8839
11.7419
66.5443
39.7048
22.6153
13.3679
9.31943
89.16
50.8432
28.333
16.6183
11.5776
67.3766
35.854
19.7297
11.5616
8.02447
93.4361
58.603
33.7526
19.9732
13.9661
88.8024
54.0003
30.8777
18.2523
12.7541
119.09
69.2601
38.9228
22.8202
15.9406
114.026
66.713
37.5719
22.0408
15.3752
11.0664
7.20791
4.11102
2.41493
1.68851
2.78684
2.74843
1.62536
0.973281
0.69328
19.508
11.8001
6.6674
3.91288
2.74299
4.45277
3.77851
2.21403
1.31947
0.943072
27.6944
17.5844
9.98181
5.89802
4.164
15.1573
9.10806
4.97288
2.86018
2.01445
75.2044
42.2824
23.2699
13.6618
9.58808
37.684
21.0438
11.4471
6.68303
4.70083
91.8146
46.1321
24.7321
14.3267
9.94296
2740.9
4761.19
2594.96
4625.44
2432.43
4312.56
2384.56
4155.11
2581.06
4706.17
1533.97
2180.79
2096.7
3261.93
1027.88
1314.65
412.808
533.025
8096.33
1955.12
449.739
99.9502
25.1283
2163.07
574.863
154.246
34.6515
7.75916
8015.59
1908.95
435.939
96.1883
24.0729
2236.5
651.755
160.584
37.3326
9.38347
7698.23
1802.21
407.187
89.1673
22.1936
2171.48
629.987
153.978
35.426
8.81945
7176.51
1647.17
368.812
80.4682
20.0153
2085.27
590.876
141.514
32.0351
7.86416
6245.7
1411.85
315.82
69.175
17.323
1931.29
522.424
122.312
27.3451
6.65253
3467.54
837.219
194.021
43.5015
11.0885
988.598
251.817
55.0571
11.433
2.62624
4861.61
1140.74
259.584
57.4698
14.5266
1372.34
358.958
82.3162
18.1778
4.39916
2168.5
537.055
126.303
28.6044
7.33501
635.54
165.872
35.8023
7.11653
1.56766
799.105
200.388
47.5403
10.8496
2.79916
309.158
74.2619
15.276
4.0922
0.626761
-1401.67
570.867
4299.9
-3713.6
995.91
1062.43
2668.14
3257.27
2215.12
3572.52
2961.38
4473.19
2839.55
3706.64
1356.35
1974.88
1469.79
1712.04
1023.77
1060.86
2897.52
2250.11
-240.078
-781.01
-854.316
-1150.4
-553.533
12306.5
3450.86
4297.5
3503.99
459.028
100.591
3403.67
-835.243
-298.287
-680.98
-219.673
6063.04
3197.94
1552.42
868.127
3347.96
1619.77
302.298
500.697
-963.312
-923.839
947.471
829.118
9414.1
4595.98
4602.18
2649.5
3437.47
3323.27
128.125
-898.11
432.838
2012.33
1751.23
1512.34
1379.1
1021.67
1791.61
1439.57
1156.54
843.836
330.98
-217.408
-182.252
-134.005
-79.8685
-26.2434
-696.473
-581.088
-434.935
-268.614
-90.7684
-762.405
-636.263
-475.693
-293.181
-98.9724
-1027.3
-858.311
-642.834
-396.953
-134.146
-489.131
-402.744
-295.913
-179.284
-59.9557
9045.76
8157.64
6838.89
6233.3
5633.91
3118.59
2495.71
2202.03
1799.63
797.265
3483.48
2750.65
2260.12
1746.59
788.382
2700.68
2089.04
1689.94
1241
464.512
379.381
265.963
254.383
196.836
98.1822
146.647
174.794
172.179
130.756
49.1249
2813.45
2232.5
1714.49
1170.75
439.503
-514.062
-262.559
-125.882
-53.4901
-17.178
-234.178
-161.142
-90.9616
-38.2379
-8.70027
-485.71
-307.322
-175.747
-87.0116
-26.5411
-208.119
-178.973
-131.331
-76.6128
-24.3011
4145.7
4002.53
3424.13
3292.5
3202.93
2625.13
2050.13
1677.72
1255.97
486.316
1398.72
1198.13
957.458
647.719
233.525
758.269
631.454
495.444
331.615
118.671
2795.2
2218.26
1675.64
1102.21
396.872
1440.77
1200.49
925.925
596.483
197.268
259.879
214.622
170.381
116.097
41.2485
447.564
379.466
297.474
194.944
67.7327
-834.9
-673.644
-487.267
-292.535
-97.353
-813.759
-667.576
-488.827
-295.276
-98.4815
832.873
694.303
534.737
347.366
122.233
728.239
606.234
466.555
302.569
105.946
6195.49
4945.8
4300.92
4057.63
3279.78
3581.43
2817.29
2235
1630.93
667.649
3627.89
3028.18
2510.75
2024.25
844.28
2108.82
1726.39
1370.75
980.948
430.418
2937.21
2379.81
1808.09
1175.36
411.758
2764.38
1985.47
1594.99
1153.45
227.575
114.036
100.395
89.1501
66.9988
24.4337
-797.646
-660.394
-487.596
-296.316
-99.1637
391.913
337.469
275.321
188.358
65.1115
-30145.2
-47054.8
-22836.7
-39980.9
-24213.8
-56009
-31829
-68113.9
-17093.2
-11508.7
-18927.7
-10230
-15914.2
-10482.3
-19048.7
-9098.64
-24891.3
-17555.3
-34394.5
-24864.2
-19617.9
-14411.8
-29601.5
-22225.6
-15019.5
-15318
-10544.3
-10237.7
-12843.9
-13518
-44844.2
-13782.6
-14380.4
-6848.42
-52658.7
-16734
-13045.2
-6302.88
-31433.8
-10355.8
-15975.2
-7457.18
-26451.4
-8061.09
-11992.4
-5107.39
-16387.1
-6169.17
-10449
-4677.9
-15152.2
-5415.49
-10886.9
-5275.72
-9274.6
-3553.54
-13070.9
-4653.9
-5115.16
-1897.08
-10786.9
-7836.06
-8797.61
-6594.27
-9322.73
-7978.92
-7799.43
-6836.19
-8810.59
-6489.59
-10215.9
-8085.57
-6593.05
-4863.1
-3902.45
-2780.79
-5957.62
-5010.69
-3419.79
-2746.18
-6655.3
-4605.55
-3969.37
-2437.39
-7875.25
-4176.02
-6767.07
-7253.22
-10257.1
-7207.44
-9621.94
-12352.9
-5593.83
-2355.53
-4360.37
-4363.05
-3241.12
-1160.81
-2050.01
-1702.04
-10563.9
-13488.9
-6060.13
-15272.9
-10478.4
-13158.4
-6628.67
-15799.5
-11604.5
-12707.4
-8249.79
-15475.3
-6500.81
-4031.51
-8346.3
-9698.72
-9954.57
-5892.49
-8225.78
-12334.5
-14169.7
-20090.1
-5350.41
-6146.15
-7494.03
-10173.6
-16040.7
-14270.1
-11742.4
-17765.7
-14739.8
-13849.1
-12040.6
-17780.7
-14855.3
-12660.8
-11217.5
-16804.8
-14753.7
-8567.36
-8013.62
-8654.67
-7817.51
-9964.31
-8889.88
-11507.4
-10209
-16112.9
-14797.4
-7050.35
-7716.73
-7937.04
-7801.33
-9157.58
-8973.07
-11161.5
-11135.4
-16015.2
-15792
-8361.11
-5695.74
-7016.36
-7106.56
-8679.84
-10794.2
-7332.78
-10249.7
-6918.31
-6932.73
-8588.57
-6063.14
-2750.14
-5089.68
-798.722
-1561
-4378.78
-7597.48
-1202.61
-2363.88
-2574.35
-4698.76
-759.187
-1489.13
-6903.98
-5744.44
-7237.68
-4441.56
-9591.31
-6668.97
-11286.5
-7313.88
-3208.46
-3629.84
-4094.08
-2270.49
-2380.28
-2536.68
-2736.59
-2018.61
-8558.38
-3304.34
-9176.28
-3194.26
-8760.82
-3286.98
-9624.53
-3546.83
-8401.66
-3099.27
-10398.7
-4107.59
-4538.14
-1093.94
-5463.15
-1961.92
-6372.23
-2482.91
-7735.12
-2929.3
-10360.8
-4018.58
-5478.72
-936.997
-4854.76
-1646.1
-5631.4
-2081.42
-7306.4
-2710.58
-9426.34
-3099.65
-6455.03
-6254.14
-4245.33
-4066.25
-10328.9
-8196.73
-8033.23
-6340.13
-5487.86
-5017.53
-2118.33
-1718.74
-5143.02
-4928.56
-1828.78
-1721.51
-2610.62
-5836.34
-3842.27
-7053.49
-4791.94
-2127.09
-3277.59
-812.245
-6909.07
-2422.67
4050.32
1169.53
-258.288
-82.611
974.88
1149.52
-2605.77
-1342.62
-1041.8
-392.47
-2613.82
-1494.57
-1150.96
-387.078
-2870.54
-1788.51
-1295.98
-250.151
-1147.26
242.518
216.957
907.006
-5211.35
-5116.1
-3862.82
-4368.54
-7599.42
-7326.87
-6198.17
-6187.03
-2573.25
-3240.8
-4124.88
-3917.64
-2636.82
-2963.07
-1277.09
-1322.21
-4408.68
-4278.25
-2460.46
-2191.68
-1341.05
-2057.63
-330.839
-767.122
-1613.97
-907.359
-2504.97
-1375.33
-2676.03
-1857.48
-3070.41
-2085.76
-684.433
-203.972
-1552.87
-552.626
201.479
491.611
-452.487
228.906
-2878.48
-2832.11
-2317.79
-3624.88
-2973.98
-2998.2
-2443.06
-3718.54
-3529.13
-3138.77
-2773.44
-3651.38
-2309.84
-2817.94
-2815.66
-2659.55
-2304.6
-4563.2
-3594.81
-3271.12
-3912.71
-3996.16
-4685.28
-3519.28
-2916.06
-2619.22
-1892.72
-3743.11
-4709.61
-6264.13
-10839.1
-3590.86
-3989.66
-5870.93
-10055.6
-3670.19
-4423.28
-5387.03
-8974.76
-7720.98
-6649.55
-6093.02
-5309.93
-4165.34
-4558.71
-4250.42
-5108.72
-4621.48
-8018.34
-5227.15
-6037.76
-3734.36
-4780.54
-2983.29
-4141.84
-3069.15
-4538.88
-2663.74
-6297.22
-2348.18
-2485.82
-1310.25
-378.547
-4846.35
-4247.94
-4069.2
-2399.88
-604.002
-94.1681
-1540.12
-2037.41
-2590.23
-692.059
-528.15
-39.2295
-4056.24
-2040.75
-1017.07
-552.871
-1782.49
-357.964
-247.326
132.391
-465.265
-1313.18
-1250.79
-3397.1
-1396.75
-2753.82
-1825.11
-4919.96
-1013.55
-803.905
-524.202
-2137.97
314.073
485.856
890.668
74.853
-3944.96
-1297.61
-7911.17
-1084.84
-3411.08
-1429.66
-7456.36
-1073.61
-3083.63
-924.334
-6143.5
-512.118
-3616.93
-803.077
-3074.98
-739.564
-3363.15
-1011.86
-3060.99
-504.258
-5513.46
-440.905
-4377.94
-584.673
-3781.59
-576.93
-3671.21
-720.324
-3618.34
-360.848
-5511.56
-548.237
-611.792
-193.004
-98.0675
95.0223
-191.811
-53.526
-35.9769
23.1183
-590.743
-162.171
-98.2858
88.5968
-82.589
17.3696
-20.5448
24.9956
-639.248
-141.19
-88.1046
138.646
154.106
210.605
232.361
297.006
607.313
430.869
435.265
401.483
886.363
608.2
478.294
326.47
-266.778
50.2274
145.524
335.283
-251.225
90.5918
86.6338
367.732
-727.86
-139.89
-65.4434
253.441
-563.654
-40.7021
-57.5449
365.893
159.914
242.784
269.451
355.573
76.2232
224.335
193.512
330.221
522.136
404.215
331.709
272.165
425.549
354.393
265.1
252.509
-994.114
-316.282
-190.223
175.001
-1346.62
-382.143
-330.236
304.259
-969.836
-290.468
-196.384
171.948
-1307.7
-362.818
-325.377
294.371
-966.159
-260.108
-228.887
156.869
-1182.68
-316.516
-317.146
253.638
-660.351
-107.149
-165.581
180.442
-1110.73
-249.1
-347.96
319.981
-481.203
-42.0115
-74.7428
312.532
-1320.73
-295.572
-269.335
266.601
-577.79
-108.689
-73.7609
70.2909
-1183.03
-253.513
-252.348
256.595
-534.513
-95.8716
-71.6616
66.6303
-960.654
-178.012
-233.607
225.864
-445.522
-68.1008
-66.0131
62.4463
-750.758
-119.479
-207.21
190.05
-376.328
-52.068
-66.9741
53.7243
-498.69
-44.9877
-132.121
185.195
-206.386
-2.03236
-39.0312
58.4836
-176.996
83.2128
79.1622
255.43
134.013
152.152
113.392
140.74
-417.453
-27.4767
-47.1966
205.728
-17.9279
71.3603
30.0684
92.18
107.005
212.838
176.575
272.006
240.707
224.127
175.927
171.187
374.097
318.845
225.474
220.014
336.279
274.563
193.81
162.564
30.1615
11.2278
5.13058
2.78476
1.90412
13.1481
5.2326
2.44917
1.32814
0.899397
45.1778
19.3092
9.61246
5.40862
3.75181
35.4228
16.8727
8.90973
5.12876
3.5835
87.0243
39.6215
20.4921
11.649
8.09056
134.242
69.4281
37.3989
21.5937
15.0966
141.127
74.3336
40.0872
23.0861
16.0809
140.673
76.4885
42.0271
24.4036
17.0233
113.08
53.8284
28.0936
16.0117
11.1827
93.2558
42.447
21.898
12.4033
8.64304
109.679
50.6289
26.3847
14.9877
10.4255
71.2633
33.9596
17.8522
10.1409
7.08594
129.596
63.6744
33.5392
19.1429
13.3206
116.975
57.5941
30.4381
17.3952
12.1306
131.055
70.5773
38.6396
22.3983
15.6154
126.805
68.3946
37.3857
21.6491
15.1003
32.5495
10.0183
4.32762
2.30883
1.56904
15.2761
3.9121
1.58833
0.819063
0.541384
38.8535
14.0644
6.61068
3.63764
2.48813
16.8921
4.88957
2.13861
1.14087
0.75841
50.6861
19.2642
9.36106
5.18179
3.52895
23.8419
9.52484
4.85921
2.77894
1.90113
89.5256
39.4508
20.4236
11.5026
7.91078
42.6582
18.9508
9.93827
5.6294
3.85851
79.3897
40.7644
21.9876
12.6231
8.807
-3022.64
-4586.76
-2890.91
-4493.64
-2674.35
-4189.63
-2538.9
-4000.54
-2552.03
-4358.83
-1457.64
-2054.52
-2033.6
-3065.34
-927.867
-1206.67
-300.431
-428.147
-8555.61
-2040.56
-465.156
-102.644
-25.645
-2259.72
-598.898
-159.803
-35.6569
-7.92649
-8391.97
-1978.95
-448.675
-98.4248
-24.5038
-2344.22
-679.872
-166.273
-38.3936
-9.5913
-7923.84
-1845.63
-415.343
-90.6325
-22.4793
-2268.04
-653.7
-158.698
-36.2971
-8.98937
-7249.9
-1663.33
-372.185
-81.1134
-20.1446
-2144.99
-605.786
-144.545
-32.6006
-7.97566
-6215.18
-1409.11
-315.701
-69.1899
-17.3266
-1940.36
-527.162
-123.479
-27.5806
-6.70097
-3422.63
-828.026
-192.234
-43.1619
-11.0149
-958.435
-246.402
-54.1378
-11.2751
-2.59503
-4805.91
-1130.94
-257.904
-57.1766
-14.466
-1351.35
-356.905
-82.1625
-18.171
-4.40006
-2134.48
-529.576
-124.731
-28.2874
-7.26318
-600.757
-158.083
-34.2082
-6.8042
-1.4992
-771.314
-194.055
-46.1369
-10.554
-2.7297
-272.144
-65.2508
-13.2719
-3.67486
-0.531514
579.301
-1701.57
-5763.36
1702.15
-6874.97
-3027.98
-6741.9
-3086.6
-11513
-6275.68
-13477.9
-7361.38
-108.973
-420.305
-650.763
-752.736
-659.655
-333.897
-173.794
-646.003
-982.197
-1093.97
-896.401
-320.203
-85.131
-82.016
-302.661
-282.506
-388.459
-374.548
-269.42
-281.846
-166.767
-209.065
-290.347
-230.05
495.48
1714.67
3344.08
2673.15
2424.79
1157
715.867
2121.97
3548.72
3944.73
3368.74
1538.16
-98.2091
-82.9496
-62.8012
-39.1052
-13.2728
-379.298
-320.918
-243.417
-151.803
-51.5669
-587.176
-496.694
-376.674
-234.882
-79.7872
-678.831
-573.881
-434.956
-271.105
-92.07
-594.575
-502.3
-380.385
-236.908
-80.4165
-301.8
-255.477
-193.454
-120.246
-40.7321
-156.526
-132.105
-99.9457
-62.2036
-21.1078
-582.615
-492.58
-373.371
-232.739
-79.0431
-885.523
-748.4
-567.118
-353.462
-120.042
-985.495
-832.171
-630.145
-392.576
-133.303
-806.748
-680.531
-514.875
-320.6
-108.842
-289.026
-244.422
-185.126
-115.224
-39.0861
-76.7761
-64.909
-49.19
-30.6519
-10.4068
-74.0161
-62.6234
-47.4954
-29.6151
-10.0587
-273.247
-231.316
-175.546
-109.517
-37.2072
-255.114
-216.023
-163.983
-102.324
-34.7678
-350.639
-296.769
-225.172
-140.454
-47.7133
-338.094
-286.152
-217.117
-135.432
-46.0087
-243.232
-205.912
-156.248
-97.4531
-33.0988
-254.261
-215.051
-163.054
-101.649
-34.5193
-150.571
-127.425
-96.5689
-60.1174
-20.3869
-188.231
-158.819
-120.108
-74.716
-25.3412
-261.355
-220.249
-166.095
-102.942
-34.818
-206.713
-173.919
-131.07
-81.2672
-27.5086
439.229
365.759
275.328
172.004
58.6895
1514.44
1257.36
945.957
592.068
202.407
2918.58
2404.08
1813.15
1148.34
396.903
2318.8
1929.23
1473.29
951.094
344.683
2115.22
1761.64
1345.73
864.202
301.277
1039.66
881.859
678.742
432.438
147.617
636.058
530.324
398.787
248.411
84.5528
1880.03
1564.35
1176.41
734.3
250.468
3125.48
2590.62
1949.52
1222.99
419.436
3459.02
2864.37
2161.55
1364.91
472.467
2949.38
2441.97
1847.38
1171.22
405.561
1359.42
1136.03
865.972
551.166
190.816
229.999
541.72
771.982
872.219
776.387
465.313
343.704
814.481
1143.98
1237.75
1008.86
397.807
175.646
154.004
389.422
352.753
464.193
437.411
322.202
324.114
212.867
201.639
414.235
264.705
-342.27
-1497.15
-2954.23
-2163.37
-1803.27
-467.118
-659.15
-2032.96
-3338.02
-3562.5
-2804.12
-854.676
207.944
176.346
134.083
83.7821
28.4907
489.476
414.755
315.087
196.754
66.8874
697.257
590.559
448.456
279.949
95.1542
787.51
666.732
506.113
315.859
107.346
700.99
593.462
450.449
281.081
95.5159
421.735
358.351
272.628
170.226
57.8316
310.653
263.348
200.163
125.042
42.5165
735.561
622.914
472.976
295.242
100.351
1032.52
873.833
663.117
413.774
140.615
1116.35
944.054
715.956
446.584
151.745
909.3
768.419
582.452
363.222
123.413
359.809
305.083
231.767
144.642
49.1452
158.83
134.722
102.452
64.0243
21.7725
139.265
118.127
89.8316
56.1366
19.0897
351.946
298.318
226.699
141.588
48.1348
318.83
270.266
205.394
128.287
43.614
419.394
355.374
269.973
168.572
57.2991
395.179
334.826
254.339
158.801
53.9768
291.215
246.883
187.628
117.179
39.8292
292.725
247.934
188.271
117.519
39.9373
192.724
163.678
124.547
77.8163
26.4474
182.07
154.17
117.029
73.0217
24.8082
374.681
317.757
241.402
150.625
51.1602
238.988
202.286
153.453
95.6831
32.4961
-299.758
-246.409
-183.7
-114.299
-38.9854
-1316.93
-1088.92
-817.181
-511.322
-174.899
-2562.86
-2098.81
-1578.47
-1000.77
-346.538
-1842.5
-1510.04
-1141.9
-737.239
-271.617
-1527.58
-1239.08
-926.828
-588.298
-203.907
-384.546
-295.924
-205.546
-117.909
-35.9956
-584.805
-486.924
-365.858
-227.885
-77.5796
-1800.17
-1497.31
-1126.08
-703.26
-239.997
-2934.35
-2427.88
-1825.42
-1145.43
-393.091
-3107.14
-2559.51
-1924.48
-1214.01
-420.765
-2425.19
-1983.52
-1486.86
-938.879
-325
-722.421
-576.24
-423.274
-264.201
-90.9281
-2012.68
-1447.27
633.579
1111.54
1178.77
1636.58
1050.39
-10257.1
-1706.46
-3156.67
-1385.4
595.881
-4037.69
908.154
2303.29
776.755
-5059.28
-2107.06
-640.992
-341.604
-2960.87
-826.135
127.539
76.8116
1730.59
1645.31
-513.7
-340.376
-8474.36
-3876.13
-3660.71
-1891.58
-2912.98
-2314.19
550.473
1649.19
225.934
-1091.17
-888.237
-762.728
-824.736
-793.26
-1008.82
-725.201
-564.98
-437.29
-182.409
578.552
494.268
376
233.628
79.0454
999.573
842.743
637.757
397.453
134.995
1061.12
895.258
677.322
421.724
143.21
1472.11
1241.21
938.884
584.703
198.569
947.225
800.587
606.217
377.478
128.257
-7293.1
-6839.48
-6003.94
-6010.68
-6202.34
-1179.66
-733.334
-777.094
-841.616
-396.213
-2375
-1769.54
-1487.52
-1257.69
-625.311
-933.637
-639.431
-595.833
-526.732
-174.514
529.798
439.079
325.061
198.083
67.3268
-3328.2
-2644.12
-2037.71
-1397.81
-525.381
811.532
678.145
506.902
311.948
104.939
1993.86
1624.64
1215.07
767.411
267.499
700.15
589.981
443.187
272.791
91.4459
-3217.29
-3196.94
-2819.93
-2997.18
-3339.12
-1556.59
-1074.32
-887.833
-737.589
-303.294
-511.449
-395.752
-311.459
-224.269
-84.3336
-260.837
-190.359
-146.153
-106.43
-40.5891
-2458.9
-1943.62
-1479.7
-991.994
-363.632
-688.476
-528.833
-388.49
-244.918
-72.7873
138.63
133.737
102.789
58.9322
19.2466
89.8924
91.7212
73.038
43.2097
14.7517
1543.12
1289.83
970.058
603.195
205.149
1477.9
1243.72
938.377
582.991
197.848
-428.333
-339.445
-255.989
-168.423
-60.3558
-274.22
-209.406
-155.875
-103.85
-37.4101
-5321.32
-4184.23
-3708.45
-3723.77
-3272.8
-2904.1
-2215.51
-1755.36
-1320.71
-561.916
-2697.11
-2206.45
-1839.32
-1584.08
-674.412
-1394.73
-1092.14
-865.652
-654.915
-322.982
-2450.61
-1955.4
-1476.38
-963.777
-337.96
-1813.04
-1115.14
-897.097
-698.97
-48.412
516.503
451.819
344.753
211.675
72.0204
1485.31
1253.27
947.137
588.638
199.709
230.968
217.213
167.101
99.4675
35.5942
-85.8389
-185.295
-232.31
-295.371
-434.211
-606.192
-21242.5
-17508.1
-16385.3
-19615.4
-14988.5
-11531.9
-13710.2
-10439.7
-18817.2
-15005.2
-15854.3
-13514.4
-13650.9
-10434.5
-12922.5
-17934
-15727
-13924.3
-15812.3
-13345.4
-10371.5
-11823.9
-8888.21
-17423.9
-14723.9
-15708.9
-13783.7
-13584.8
-11340.3
-13191.8
-14003.8
-12835.2
-11186.7
-12181.7
-11177.3
-9253.36
-9937.57
-8501.3
-14468.9
-13277.4
-13730.9
-12816.8
-12518.7
-10850.4
-12263.8
-9640.51
-9245.37
-7968.8
-8295.35
-8557.7
-8014.04
-7584.99
-7534.53
-10460.5
-11589.5
-10129.3
-11132.9
-9672.12
-8821.63
-10577.9
-6205.34
-6106.75
-5130.86
-5219.78
-6018.77
-6090.4
-5055.67
-5213
-7305.72
-8925.27
-7181.82
-8337.87
-7077.95
-6869.94
-7950.87
-2265.85
-2250.3
-1847.11
-1866.96
-2263.55
-2374.87
-1816.61
-1806.53
-2978.85
-3748.95
-2911.13
-3314.03
-2899.01
-2877.38
-3162.31
-7823.04
-7855.55
-11138.2
-12281
-7858.42
-7418.31
-10344.3
-8606.24
-7236.06
-4561.95
-7359.82
-4488.39
-7429.52
-7479.32
-4580.28
-7431.16
-7248.34
-10270.4
-11107.9
-6984.42
-6125.92
-9325.25
-7626.29
-5077.54
-1772.3
-5012.54
-2011.55
-4243.79
-4057.78
-2359.75
-6242.35
-6112.85
-8648.92
-9135.35
-6114.92
-5599.72
-8080.73
-7213.98
-2669.13
-1666.94
-2622.65
-2263.42
-2531.6
-2805.34
-2936.87
-4591.55
-4587.95
-6343.81
-6503.85
-4698.56
-4599.55
-6215.73
-6078.47
-2748.04
-1545.22
-2936.76
-2471.69
-3180.91
-3732.61
-3370.73
-2857.06
-2861.46
-4044.92
-4091.99
-2791.16
-2776.1
-4004.79
-3936.76
-1546.27
-1144.9
-1731
-1954.82
-2176.97
-2660.92
-2637.22
-967.595
-972.212
-1432.7
-1444.06
-964.949
-1004.37
-1413.27
-1366.52
-283.948
-480.893
-442.272
-891.483
-746.805
-969.028
-1108.7
7497.3
22555.9
5751.1
25185.9
3149.35
26631.5
5356.64
42070.8
8741.5
52803
8968.85
37526.3
9576.84
33379.3
9333.46
28038.4
4436.96
2445.27
13401.8
6381.93
4136.65
1914.45
14403.7
5816.65
5749.81
4269.03
16850.2
12392.1
3893.96
3095.45
17281.4
13165.7
8792.11
3205.81
6715.85
2470.2
3081
8203.18
41247.5
12587.3
12418.2
5705.35
49941.3
15626.8
11529.6
5374.64
27413.3
9129.15
13992
6360.89
22403.3
7111.66
5419.92
2917.17
9116.73
3702.86
4915.52
3073.79
9770.68
3711.14
6528.05
4138.29
6165.5
2612.84
10811.2
3923.5
4245.24
1575.53
13349.7
10157.5
8034.83
7271.26
14644.5
12875.1
7917.05
8459.76
7545.06
6569.09
10011.4
8663.92
5931.77
5141.83
3402.74
2940.76
5831.15
5825.86
3288.12
3300.14
5737.15
4565.32
3315.21
2370.5
6533.33
3689.9
6633.01
7243.73
8822.5
6699.02
9593.76
12484.5
4714.1
2032.35
4224.75
4321.72
2642.03
932.395
1925.53
1656.2
6429.35
12868.8
4615.98
14521
6955.84
12958.5
5517.16
15372
9058.33
12791.5
7600.7
15569.4
9694.06
11289
7773.16
7867.19
9423.96
7452.46
8497.3
11881.2
13990.5
20366.3
10116.2
8445.96
8234.91
10425.1
16355.4
16051.7
15570.5
18756.2
18922.4
15584
15639.6
18725.5
18729.3
14291.2
14869.5
17886
18144.4
9376.61
9982.46
9460.89
10041.9
11563.3
11715.4
13649.4
13420.6
17343.8
17666
8530.64
9438.42
9835.03
10696.4
11141.9
12262.3
12965
14447
17125
18854.2
10008.6
6843.67
8079.73
8076.13
11048.5
12439.6
8972.63
11742.6
7519.36
7575.42
9596.11
6915.03
3465.91
5818.14
1400.43
2158.16
5550.49
8677.7
2148.37
3229.31
2975.04
5171.74
1109.92
1884.88
7226.35
6149.14
7436.82
4696.61
10206.9
7326.44
11676.2
7875.79
3427.67
3915.41
4242.12
2443.93
2590.4
2791.68
2874.57
2179.14
13586
8976.19
2962.37
14699.9
9288.18
3218.14
13342.1
8771.08
3006.65
14648
9262.24
3152.07
12691.4
8222.99
2763.98
14333.1
9097.03
3136.32
7237.39
4201.1
1131.64
8803.89
6027.34
1967.5
10264
7222.62
2443.05
11455.7
7507.66
2474.61
13812.3
8756.51
3098.49
7896.13
4392.35
1459.38
7990.75
5221.2
1835.53
9124.84
6057.91
2096.58
10856.3
7007.15
2412.32
13124.8
7734.59
2695.76
-509.562
987.971
426.33
2649.87
1840.71
1845.71
4733.22
4128.07
596.515
959.633
630.577
1002.55
342.499
934.144
627.326
1368.15
1862.72
1127.89
3798.83
2704.46
1724.16
2820.58
2938.58
746.939
6041.35
1857.24
-4329.48
-763.128
577.807
590.588
-95.0187
27.6076
10180.4
4336.36
2690.44
1548.99
10034.2
4391.98
2936.21
1835.87
9662.71
4773.21
3913.77
2693.3
3006.18
1901.24
1607.25
1430.92
13227.2
11539.4
5763.32
7372.14
15090.1
14080.5
7330.94
8782.99
5138.47
6202.6
11046.9
9061.05
3633.74
4783.07
2043.5
2741.11
4872.05
5695.46
2763.65
3218.86
2875.07
4067.02
1561.08
2442.83
4504.08
3097.28
5087.55
3291.67
7807.61
4473.02
6857.75
4320.06
2635.61
2103.93
3515.08
2250.21
1429.18
1300.49
2206.58
1384.73
11778.4
7595.58
5595.7
5648.59
11666.9
7566.4
5505.93
5514.41
11778.6
7294.5
5577.77
5123.03
13322.3
13109.2
12215.5
9220.33
5103.25
7964.08
9379.48
9689.22
8889.39
5959.21
11352.1
9962.98
8086.38
6378.84
3978.54
6246.28
5984.44
6120.85
7187.37
6242.49
5833.81
5983.01
7058.43
6016.71
5596.86
5710.83
6790.62
8938.26
8463.49
8100.89
6933.82
5873.71
5816.32
5486.24
5620.19
4995.4
6435.06
6596.84
7474.63
5377.42
6089.52
4625.59
5246.68
4359.91
5159.14
3762.66
5914.13
4784.77
3841.07
3279.87
1811.52
7484.25
5681.92
6040.75
3860.8
2406.74
1397.1
3563.94
3199.77
4211.85
1865.83
1931.24
1067.43
5587.21
3227.26
2264.46
1562.92
3336.99
1424.26
1678
837.912
1918.25
2263.56
2285.21
3827.77
2908.16
3503.16
2726.01
4945.48
2358.04
1668.45
1692.37
2765.44
1031.87
388.772
311.217
655.943
4667.64
2145.83
621.734
4931.53
1326.18
352.718
4595.7
2266.95
710.892
4921.35
1373.52
384.306
4273.79
2134.06
558.92
4717.34
1286.06
296.25
5765.52
3196.3
861.217
4656.06
2539.22
719.155
4356.09
2227.87
646.164
4098.48
1975.58
473.663
4512.72
1153.61
205.051
6355.11
3380.68
1063.75
5296.47
2903.96
961.151
4601.54
2439.01
804.616
4229.25
1784.95
496.578
4750.68
1214.88
392.13
1625.38
611.273
300.388
36.8391
655.944
258.996
136.444
33.1916
1680.22
655.567
357.761
89.1083
796.921
347.974
225.639
104.017
1915.24
778.315
462.336
157.351
1354.34
674.434
367.89
164.227
986.29
590.485
255.212
76.2962
1013.9
661.316
354.886
184.879
1579.92
732.86
376.495
54.4292
1492.38
672.932
401.712
-2.65845
1993.81
826.546
500.024
129.817
1774.62
726.279
467.12
-16.5895
1189.74
628.618
312.41
49.6702
1153.99
584.532
351.635
65.1337
874.913
535.874
317.318
173.583
798.59
478.837
314.369
169.685
2072.74
750.108
381.156
-16.4131
2138.4
730.101
438.82
-135.555
2059.19
758.675
412.625
8.81767
2044.71
702.081
436.55
-124.35
2066.24
777.035
475.643
50.649
1832.87
635.106
431.83
-79.954
1917.72
745.509
514.205
152.121
2021.19
716.665
549.359
-66.2554
1481.67
576.705
404.441
62.3161
1745.87
535.546
334.271
-134.446
681.996
190.5
103.254
-27.1487
1718.81
540.208
339.606
-117.02
692.767
199.38
112.142
-16.5508
1624.21
527.378
349.718
-85.9816
671.827
201.769
123.096
-2.07187
1373.26
452.219
334.148
-50.5043
594.364
178.836
130.927
16.439
1206.26
421.397
318.462
-2.38403
540.134
180.932
142.705
41.3484
934.693
398.377
241.533
25.0664
494.358
244.085
144.39
71.7799
999.035
367.6
260.129
11.0051
492.672
200.133
140.986
59.4037
824.698
418.972
245.332
60.7687
493.672
282.285
159.744
93.3003
638.279
396.09
251.966
142.376
452.002
298.664
186.866
131.007
15.9765
8.43706
4.68635
2.72688
1.89228
8.1207
4.22001
2.33524
1.36283
0.951101
31.2049
17.2762
9.60164
5.58739