/*--------------------------------*- C++ -*----------------------------------*\
| =========                 |                                                 |
| \\      /  F ield         | OpenFOAM: The Open Source CFD Toolbox           |
|  \\    /   O peration     | Version:  2412                                  |
|   \\  /    A nd           | Website:  www.openfoam.com                      |
|    \\/     M anipulation  |                                                 |
\*---------------------------------------------------------------------------*/
FoamFile
{
    version     2.0;
    format      ascii;
    arch        "LSB;label=32;scalar=64";
    class       volScalarField;
    location    "1.7";
    object      T;
}
// * * * * * * * * * * * * * * * * * * * * * * * * * * * * * * * * * * * * * //

dimensions      [0 0 0 1 0 0 0];

internalField   nonuniform List<scalar> 
5712
(
539.383
556.352
526.235
546.557
508.711
532.14
481.679
507.092
485.287
510.946
510.349
535.662
521.881
545.025
532.725
552.737
499.574
482.97
517.275
491.685
473.073
455.189
489.626
462.629
547.242
553.947
560.603
563.961
537.211
546.007
553.001
558.233
536.065
522.895
510.049
502.657
537.053
547.957
537.642
543.344
499.909
507.155
513.611
519.514
470.776
477.044
549.288
554.377
519.574
529.204
559.845
565.659
558.673
566.99
566.561
570.49
551.474
564.284
561.504
568.636
541.64
559.663
551.087
564.548
557.836
566.896
561.898
568.356
468.929
454.033
476.624
457.451
435.194
421.958
443.133
426.014
504.238
485.822
497.468
482.278
481.89
459.755
484.931
460.966
448.69
428.696
451.835
430.107
509.269
488.202
512.141
489.389
530.184
557.716
514.185
546.685
524.005
553.639
509.918
543.04
534.461
559.733
516.698
548.777
536.728
560.574
517.813
550.051
553.877
543.202
563.797
555.834
545.883
535.167
560.422
551.462
534.263
522.957
554.551
544.343
453.373
414.557
488.088
515.51
546.032
413.197
451.219
483.546
509.399
536.967
412.488
448.158
477.942
504.11
535.726
521.955
502.286
525.98
507.215
516.6
496.969
523.96
504.799
507.759
488.708
520.344
501.048
406.039
392.661
443.641
430.141
473.673
457.421
496.507
478.579
516.865
497.509
404.85
390.135
439.292
425.057
467.736
452.11
492.09
474.568
514.427
494.471
438.439
427.305
437.755
426.764
404.074
383.576
403.06
380.604
467.658
459.01
467.762
458.077
437.388
425.95
438.121
426.834
403.17
379.506
404.323
381.117
467.321
458.449
468.094
459.327
494.963
486.683
518.444
510.875
494.087
484.472
517.241
507.367
494.742
486.291
518.734
511.684
495.046
486.724
518.767
511.271
479.454
460.425
449.978
482.585
462.763
452.151
474.854
455.493
445.055
479.954
459.389
448.468
465.912
446.086
435.322
475.646
453.944
442.51
375.341
362.606
356.052
411.678
394.612
385.381
437.574
418.068
407.141
456.225
436.017
425.12
470.663
447.643
435.408
371.634
358.318
351.053
408.039
392.356
384.054
432.941
414.765
404.99
451.487
430.501
419.203
465.033
441.859
429.796
410.682
397.203
414.596
401.536
440.315
424.001
448.949
430.344
382.127
361.678
383.372
363.64
383.03
362.196
384.807
364.735
382.908
379.712
382.378
375.923
361.193
365.345
404.31
407.191
434.772
438.674
384.462
386.794
384.893
386.585
367.687
369.236
339.913
320.772
345.403
323.977
341.467
320.528
346.872
324.169
342.598
320.07
349.233
324.827
352.25
326.956
354.286
328.661
375.585
363.781
382.837
368.735
402.538
389.235
410.817
394.342
361.872
348.55
354.529
343.967
386.913
371.681
389.337
373.273
415.733
397.397
418.557
398.936
365.59
351.316
367.64
352.88
344.251
322.206
332.765
316.811
337.831
318.255
329.042
314.202
347.912
324.871
335.181
318.582
350.024
326.719
336.7
319.737
322.625
312.026
314.272
307.479
323.824
313.674
314.032
307.653
325.365
317.218
313.642
308.497
355.533
379.525
338.494
327.253
312.88
377.533
352.079
332.633
320.887
308.959
377.789
354.005
336.528
323.94
311.136
303.732
296.096
300.584
293.292
306.134
298.383
301.558
294.426
310.306
302.889
303.215
296.353
370.644
357.996
345.254
334.242
327.565
319.388
315.911
308.42
305.351
298.863
370.406
357.356
347.56
336.71
330.854
321.954
318.631
310.477
307.987
301.452
350.656
337.266
351.814
336.734
371.871
355.238
372.895
353.192
335.14
323.405
333.91
323.21
352.82
336.383
354.226
337.8
374.282
351.643
375.81
353.141
336.09
323.636
337.289
324.779
321.163
311.943
310.416
302.109
320.813
311.253
309.704
301.879
321.442
312.665
310.82
302.188
322.931
313.402
311.475
303.313
286.903
281.845
279.866
280.936
277.461
276.296
289.685
284.267
281.999
282.076
278.436
277.102
294.167
288.361
286.016
283.86
279.869
278.437
344.073
334.273
329.569
323.656
316.203
312.894
309.932
303.587
301.035
299.035
292.951
290.438
285.601
281.454
279.793
342.491
331.998
326.883
324.784
316.077
311.806
311.454
304.122
300.694
299.687
293.83
291.494
286.747
282.688
280.649
305.38
295.752
289.826
285.337
306.753
296.29
290.086
285.39
305.269
295.774
289.912
285.46
306.966
296.469
290.293
285.572
305.014
295.771
290.054
285.658
307.239
296.723
290.566
285.806
308.339
297.354
290.819
285.897
309.42
298.041
291.109
286.007
306.303
296.496
290.522
285.95
304.297
295.823
290.125
286.044
304.472
295.674
290.119
285.875
303.068
295.226
289.827
286.003
307.681
297.201
290.806
286.001
305.319
296.381
290.387
286.132
308.758
297.83
291.12
286.156
306.17
296.901
290.693
286.329
303.107
294.917
289.461
285.324
300.461
293.971
288.998
285.364
302.963
294.904
289.501
285.419
300.493
294.014
289.032
285.444
302.72
294.875
289.561
285.583
300.77
294.172
289.141
285.592
302.329
294.812
289.595
285.793
300.93
294.29
289.254
285.782
301.857
294.71
289.54
285.96
298.079
293.196
288.453
285.643
296.734
292.825
288.21
285.739
298.453
293.347
288.546
285.714
297.162
292.991
288.301
285.804
299.072
293.61
288.698
285.831
297.884
293.284
288.452
285.916
299.836
293.934
288.928
286.008
298.797
293.661
288.672
286.069
300.824
294.361
289.206
286.193
299.71
294.063
288.897
286.227
302.217
295.179
289.583
286.464
300.986
294.883
289.345
286.555
301.578
294.758
289.391
286.334
300.447
294.484
289.123
286.392
302.792
295.609
289.77
286.581
301.511
295.305
289.553
286.711
303.463
296.083
290.041
286.765
302.182
295.772
289.825
286.91
281.376
278.821
277.062
275.972
275.454
281.389
278.827
277.065
275.974
275.455
281.425
278.844
277.073
275.979
275.458
281.447
278.857
277.081
275.983
275.461
281.476
278.869
277.086
275.986
275.463
281.532
278.903
277.105
275.997
275.471
281.655
278.97
277.143
276.019
275.486
281.772
279.038
277.181
276.041
275.501
281.594
278.93
277.119
276.005
275.476
281.615
278.934
277.12
276.005
275.476
281.533
278.896
277.1
275.994
275.468
281.577
278.913
277.109
275.998
275.471
281.666
278.971
277.142
276.018
275.485
281.684
278.974
277.142
276.018
275.485
281.79
279.045
277.184
276.043
275.503
281.805
279.045
277.183
276.042
275.502
281.364
278.814
277.058
275.97
275.452
281.36
278.81
277.056
275.968
275.451
281.401
278.831
277.066
275.974
275.455
281.394
278.825
277.063
275.972
275.454
281.451
278.853
277.077
275.98
275.459
281.442
278.845
277.073
275.978
275.457
281.507
278.878
277.09
275.987
275.464
281.491
278.868
277.084
275.984
275.461
281.545
278.897
277.1
275.993
275.468
535.067
530.053
534.417
529.379
533.181
528.159
531.721
526.522
530.616
525.097
531.934
528.821
531.198
527.266
532.333
529.405
532.699
529.756
564.971
571.227
572.598
572.91
572.977
558.309
569.431
572.189
572.823
572.956
565.109
571.288
572.615
572.915
572.978
558.298
569.478
572.206
572.828
572.958
565.144
571.336
572.631
572.919
572.98
558.167
569.507
572.222
572.833
572.959
565.222
571.392
572.646
572.922
572.98
557.982
569.515
572.229
572.835
572.96
565.309
571.419
572.65
572.922
572.98
557.844
569.485
572.218
572.831
572.959
564.183
570.993
572.528
572.891
572.971
557.436
569.107
572.083
572.792
572.947
564.618
571.18
572.585
572.906
572.976
557.552
569.28
572.15
572.812
572.953
563.901
570.87
572.489
572.88
572.968
557.381
569.011
572.042
572.779
572.943
564.051
570.895
572.491
572.879
572.967
557.516
569.025
572.037
572.776
572.941
418.053
457.216
454.213
415.729
396.969
398.845
404.273
407.499
417.41
420.724
444.332
451.579
448.815
455.746
426.014
428.643
416.639
419.123
407.933
409.959
357.331
339.576
296.217
291.127
294.727
291.581
295.731
356.26
349.778
332.402
338.649
332.707
312.743
322.378
317.215
307.667
310.584
306.175
350.99
325.513
310.319
308.233
314.425
310.512
303.446
303.402
301.357
298.795
305.155
303.674
351.547
330.804
337.166
320.623
314.445
325.895
304.21
298.267
307.02
341.942
327.779
315.474
302.404
284.708
329.6
319.079
308.092
295.954
281.257
293.85
290.55
286.26
281.254
275.802
289.321
286.775
283.428
279.497
275.206
292.535
289.461
285.44
280.739
275.626
289.728
287.116
283.682
279.652
275.258
293.424
290.198
285.993
281.084
275.743
341.06
325.8
312.881
299.782
283.728
334.509
320.096
307.758
295.367
281.048
323.465
313.534
303.071
291.952
279.623
325.861
313.369
302.339
291.345
279.575
321.466
309.917
299.66
289.478
278.744
307.917
301.769
294.408
286.237
277.494
315.467
307.365
298.359
288.697
278.372
311.299
304.122
295.935
287.105
277.784
303.734
298.526
292.075
284.795
276.995
306.095
300.305
293.309
285.528
277.242
302.479
297.532
291.35
284.345
276.84
337.736
323.839
311.723
299.052
283.309
318.519
310.159
300.78
290.485
279.05
306.024
300.398
293.493
285.708
277.316
304.297
299.063
292.551
285.142
277.125
309.497
303.186
295.601
287.083
277.807
306.284
300.697
293.796
285.943
277.4
300.2
295.782
290.165
283.681
276.627
300.161
295.742
290.116
283.635
276.609
298.37
294.261
288.992
282.918
276.361
296.129
292.431
287.648
282.099
276.085
301.643
296.904
290.931
284.112
276.766
300.386
295.911
290.224
283.69
276.626
337.896
324.417
312.611
300.03
283.671
322.834
313.797
303.886
292.85
280.015
328.326
317.154
306.3
294.411
280.058
314.829
307.529
298.978
289.333
278.576
309.652
303.412
295.844
287.259
277.847
319.046
310.591
301.174
290.745
278.999
300.863
296.319
290.554
283.915
276.706
295.659
292.043
287.365
281.93
276.03
303.278
298.263
291.978
284.793
277.005
500.999
542.631
492.9
532.326
468.509
511.845
475.974
523.308
483.432
472.209
511.846
487.118
458.621
446.067
485.294
458.986
519.077
533.952
551.255
557.322
512.971
528.018
544.557
552.066
529.714
506.656
505.352
492.019
523.136
542.471
535.833
542.955
497.916
506.661
511.98
519.1
469.189
476.619
547.379
554.006
517.649
528.746
558.385
565.433
547.177
563.081
562.592
569.152
540.516
560.715
557.529
567.332
532.868
556.863
547.155
563.247
556.402
566.376
561.613
568.242
465.744
454.667
474.647
457.772
434.629
425.154
442.52
427.676
501.68
485.403
493.045
481.465
480.957
459.963
484.686
461.05
448.394
429.568
451.764
430.402
508.08
488.036
511.822
489.352
527.821
556.859
513.609
546.476
519.679
552.079
508.779
542.644
533.384
559.33
516.447
548.686
536.441
560.462
517.746
550.026
535.261
521.958
557.647
548.571
528.45
515.748
555.072
545.28
520.473
508.556
550.543
540.157
456.14
425.95
484.356
509.554
543.868
426.111
454.178
478.606
501.895
534.445
422.458
451.249
476.959
502.112
535.113
501.593
485.547
517.713
503.25
498.101
481.926
517.422
502.259
494.04
478.411
516.531
500.8
418.703
407.881
446.666
435.264
469.777
456.257
490.704
476.037
515.279
499.058
415.035
401.785
443.598
432.236
468.445
456.456
491.724
477.82
514.716
497.545
441.677
432.013
439.942
429.756
410.311
391.324
406.873
385.437
468.766
460.846
469.072
460.877
438.608
427.568
438.511
427.332
405.116
381.889
404.926
381.842
468.018
459.507
468.326
459.661
495.521
487.776
518.834
511.592
494.573
486.221
517.681
508.631
495.144
486.942
518.998
512.092
495.194
486.948
518.853
511.399
473.471
467.099
490.059
483.895
469.552
462.568
488.52
481
465.89
458.543
485.898
476.302
396.739
390.601
424.562
417.097
445.296
436.883
463.445
454.651
482.106
470.383
386.887
381.835
421.583
415.117
444.791
436.719
462.866
452.548
476.752
465.041
402.05
394.069
410.699
400.688
429.382
418.005
445.342
428.062
383.076
364.602
387.631
368.143
381.249
364.577
386.375
368.313
383.477
378.07
383.497
376.651
364.184
368.233
404.162
407.196
433.803
438.411
385.124
387.089
385.718
386.897
369.562
369.935
350.692
331.822
352.758
332.657
351.377
330.853
353.191
331.777
351.542
329.274
354.205
330.869
355.196
330.686
355.29
329.944
380.909
371.961
385.323
373.244
405.128
395.439
411.774
397.611
365.922
353.796
362.381
352.976
388.176
374.039
389.721
374.049
416.189
399.075
418.699
399.488
367.674
354.13
368.277
353.812
349.541
327.494
338.11
321.565
347.244
326.307
337.75
321.359
350.701
327.91
338.137
321.32
350.881
327.7
337.694
320.649
347.047
343.843
329.656
326.278
347.46
344.323
328.485
325.154
346.946
343.988
326.688
323.579
375.228
397.74
357.431
343.93
324.11
398.62
375.903
356.906
342.267
322.155
393.702
370.975
352.223
337.399
320.823
340.046
334.265
320.962
311.781
340.81
335.454
320.327
311.612
340.545
335.11
319.29
311.151
391.816
382.268
370.429
362.703
353.218
347.562
338.672
332.511
318.917
311.555
386.275
373.861
365.228
355.024
347.541
339.04
332.893
324.653
318.19
311.486
360.846
347.539
357.649
342.644
381.016
365.124
378.163
359.043
340.968
328.912
343.886
332.754
355.744
339.242
355.128
338.664
376.875
354.465
376.602
353.992
339.07
326.33
338.224
325.605
326.387
316.605
314.893
305.805
329.677
319.236
316.739
307.94
324.225
315.048
313.284
304.112
323.872
314.173
312.217
303.885
328.18
325.678
295.044
292.588
330.974
327.936
295.708
293.071
329.529
325.196
296.201
293.011
373.038
367.644
355.328
351.071
340.835
336.907
324.975
320.386
296.424
292.602
361.403
357.361
344.639
340.885
329.437
325.916
313.985
311.213
294.683
291.703
312.811
300.289
292.667
287.084
313.249
300.419
292.74
287.045
312.245
300.059
292.6
287.106
312.713
300.16
292.687
287.07
311.269
299.648
292.52
287.189
311.887
299.747
292.55
287.04
311.334
299.348
292.113
286.67
310.481
298.758
291.581
286.299
310.143
299.001
292.183
287.021
307.75
298.103
291.658
287.107
309.813
299.027
292.285
287.253
307.958
298.341
291.824
287.31
310.025
298.773
291.884
286.734
307.385
297.781
291.363
286.847
309.555
298.372
291.491
286.404
306.861
297.376
291.028
286.576
311.879
299.987
292.538
287.207
310.438
299.535
292.252
287.389
311.329
299.784
292.469
287.238
309.998
299.385
292.182
287.41
310.432
299.44
292.357
287.316
309.305
299.121
292.081
287.46
309.104
298.902
292.135
287.408
308.588
298.822
291.969
287.521
307.944
298.455
291.855
287.448
308.744
299.097
291.779
287.894
307.544
298.866
291.596
288.124
308.522
299.005
291.767
287.899
307.359
298.776
291.575
288.117
308.094
298.815
291.707
287.886
307.011
298.597
291.506
288.091
307.68
298.574
291.671
287.887
306.679
298.362
291.441
288.064
307.161
298.25
291.595
287.871
306.198
298.059
291.33
288.014
305.632
297.484
291.089
287.576
304.35
297.206
290.851
287.695
306.475
297.911
291.386
287.765
305.321
297.67
291.128
287.891
304.805
297.019
290.711
287.296
303.465
296.714
290.484
287.425
304.119
296.553
290.359
287.008
302.81
296.237
290.135
287.15
282.31
279.335
277.345
276.137
275.568
282.29
279.327
277.341
276.135
275.567
282.29
279.318
277.334
276.13
275.564
282.253
279.302
277.327
276.126
275.561
282.262
279.298
277.322
276.123
275.558
282.181
279.261
277.303
276.112
275.551
282.061
279.196
277.268
276.091
275.537
281.931
279.127
277.23
276.07
275.522
282.158
279.241
277.291
276.105
275.546
282.177
279.243
277.291
276.104
275.545
282.228
279.276
277.309
276.115
275.553
282.222
279.264
277.302
276.11
275.55
282.074
279.199
277.268
276.092
275.537
282.092
279.202
277.269
276.092
275.537
281.929
279.123
277.227
276.068
275.52
281.949
279.127
277.229
276.069
275.52
282.336
279.344
277.349
276.139
275.57
282.359
279.35
277.352
276.14
275.571
282.326
279.332
277.341
276.134
275.566
282.352
279.34
277.345
276.136
275.568
282.309
279.316
277.331
276.128
275.562
282.337
279.325
277.335
276.13
275.563
282.281
279.295
277.318
276.12
275.556
282.305
279.304
277.323
276.123
275.558
282.251
279.279
277.309
276.115
275.553
531.396
527.234
531.503
527.316
531.476
527.275
531.141
526.712
530.867
526.035
532.287
529.295
531.617
527.985
532.56
529.682
532.775
529.845
564.455
571.147
572.584
572.908
572.977
557.51
569.277
572.162
572.818
572.956
564.705
571.225
572.604
572.913
572.978
557.685
569.357
572.184
572.824
572.957
564.91
571.299
572.624
572.917
572.979
557.845
569.437
572.209
572.83
572.959
565.153
571.38
572.644
572.922
572.98
557.941
569.496
572.224
572.834
572.96
565.355
571.426
572.651
572.923
572.98
557.99
569.503
572.22
572.831
572.959
564.263
571.009
572.531
572.891
572.971
557.59
569.141
572.09
572.794
572.947
564.704
571.196
572.588
572.907
572.976
557.741
569.315
572.157
572.813
572.953
563.954
570.882
572.491
572.88
572.968
557.479
569.034
572.047
572.78
572.943
564.069
570.9
572.492
572.879
572.967
557.548
569.033
572.039
572.776
572.941
417.78
456.719
452.449
414.401
407.347
413.898
405.178
413.197
435.146
451.954
439.147
455.077
277.736
278.241
279.366
281.171
283.694
286.973
278.159
278.663
279.777
281.539
283.991
287.186
277.391
277.219
277.902
277.727
279.055
278.883
280.964
280.854
283.653
283.734
287.209
287.668
290.989
296.134
303.016
312.504
320.623
326.562
291.198
296.171
302.2
308.931
314.799
318.561
277.284
276.635
275.766
274.729
273.588
277.74
277.021
276.058
274.911
273.65
278.755
277.88
276.71
275.318
273.788
280.383
279.256
277.752
275.968
274.009
282.655
281.174
279.204
276.872
274.316
285.602
283.655
281.079
278.038
274.711
277.667
276.959
276.011
274.882
273.64
278.121
277.344
276.303
275.064
273.702
279.126
278.193
276.946
275.465
273.838
280.713
279.534
277.962
276.098
274.053
282.92
281.395
279.371
276.975
274.351
285.789
283.81
281.194
278.11
274.736
276.973
276.371
275.565
274.604
273.545
276.817
276.24
275.465
274.541
273.524
277.434
276.762
275.862
274.789
273.608
277.276
276.628
275.76
274.725
273.587
278.475
277.643
276.53
275.206
273.75
278.32
277.512
276.431
275.144
273.729
280.197
279.1
277.634
275.894
273.984
280.099
279.016
277.572
275.855
273.971
282.619
281.144
279.182
276.858
274.311
282.692
281.206
279.229
276.887
274.321
285.814
283.835
281.215
278.122
274.74
286.227
284.182
281.476
278.284
274.795
289.197
286.672
283.352
279.45
275.191
293.776
290.492
286.222
281.235
275.797
299.838
295.506
289.981
283.58
276.597
308.05
302.213
295.015
286.769
277.699
314.889
307.735
299.214
289.527
278.699
319.79
311.663
302.24
291.575
279.457
289.379
286.821
283.464
279.521
275.215
293.808
290.52
286.246
281.252
275.803
299.139
294.947
289.571
283.326
276.511
305.033
299.809
293.224
285.623
277.3
310.117
303.979
296.37
287.627
278
313.351
306.627
298.382
288.926
278.458
277.819
278.498
279.823
281.869
284.684
288.306
278.246
278.93
280.243
282.233
284.943
288.413
277.471
277.297
278.151
277.971
279.504
279.326
281.672
281.563
284.691
284.796
288.699
289.305
292.671
298.122
305.17
314.453
322
327.062
292.682
297.84
303.902
310.424
315.83
318.93
277.36
276.699
275.814
274.759
273.598
277.973
277.22
276.21
275.006
273.682
279.17
278.233
276.979
275.487
273.846
281.017
279.796
278.166
276.227
274.097
283.555
281.942
279.792
277.241
274.442
286.815
284.693
281.875
278.539
274.883
277.745
277.026
276.062
274.914
273.651
278.363
277.549
276.46
275.162
273.735
279.548
278.553
277.222
275.638
273.897
281.344
280.072
278.374
276.356
274.141
283.786
282.134
279.937
277.331
274.472
286.907
284.766
281.928
278.572
274.894
277.045
276.433
275.612
274.633
273.555
276.888
276.299
275.511
274.57
273.534
277.66
276.954
276.008
274.88
273.64
277.497
276.816
275.903
274.815
273.617
278.883
277.99
276.795
275.372
273.807
278.721
277.854
276.692
275.307
273.785
280.84
279.647
278.053
276.157
274.073
280.742
279.565
277.991
276.118
274.06
283.563
281.95
279.8
277.246
274.443
283.658
282.031
279.861
277.285
274.457
287.172
284.997
282.106
278.684
274.932
287.719
285.46
282.458
278.903
275.006
290.732
287.988
284.365
280.09
275.41
295.597
292.062
287.436
282.004
276.061
301.824
297.231
291.326
284.439
276.893
309.868
303.812
296.281
287.589
277.983
316.19
308.893
300.142
290.138
278.915
320.267
312.092
302.588
291.808
279.54
290.734
287.983
284.358
280.085
275.408
295.335
291.835
287.262
281.896
276.024
300.704
296.301
290.623
283.996
276.741
306.415
301.012
294.166
286.227
277.509
311.076
304.82
297.034
288.056
278.149
313.696
306.931
298.623
289.082
278.513
358.133
340.279
298.699
293.086
297.85
294.003
298.666
365.018
362.848
341.343
353.564
319.842
331.243
314.083
318.483
312.26
356.728
331.623
316.123
313.159
319.788
314.657
306.421
307.296
306.549
303.121
310.517
308.266
354.048
332.796
341.369
323.504
317.992
330.631
307.742
301.823
311.353
342.788
328.58
316.182
302.948
284.93
330.294
319.719
308.631
296.332
281.396
296.125
292.514
287.781
282.219
276.133
291.11
288.31
284.611
280.243
275.461
295.394
291.923
287.343
281.945
276.039
291.94
289.014
285.145
280.576
275.574
296.113
292.517
287.788
282.222
276.134
350.606
335.005
320.927
305.688
286.156
348.921
333.65
319.423
303.802
284.411
332.457
321.899
310.065
296.759
281.393
342.177
328.271
314.848
300.136
282.997
314.714
307.877
299.328
289.47
278.632
324.293
315.495
305.06
293.213
280.003
309.77
303.873
296.325
287.554
277.957
313.585
306.987
298.656
289.026
278.468
308.191
302.585
295.361
286.944
277.744
343.758
329.6
316.737
302.713
284.807
324.464
315.587
305.239
293.485
280.127
311.502
305.267
297.377
288.237
278.199
308.908
303.132
295.776
287.23
277.851
314.583
307.73
299.249
289.475
278.647
310.167
304.128
296.519
287.708
278.014
302.952
298.18
292.042
284.884
277.042
303.767
298.889
292.582
285.216
277.155
303.157
298.419
292.236
284.992
277.076
300.101
295.864
290.313
283.794
276.668
306.644
301.299
294.397
286.346
277.541
304.647
299.637
293.149
285.567
277.274
340.512
326.859
314.73
301.598
284.322
324.767
315.553
305.331
293.834
280.373
332.516
321.008
309.528
296.635
280.816
317.564
309.975
300.947
290.631
279.028
312.99
306.371
298.204
288.797
278.382
323.631
314.751
304.58
293.026
279.801
304.137
299.179
292.797
285.354
277.202
298.927
294.871
289.561
283.328
276.51
307.319
301.815
294.782
286.603
277.632
279.027
290.606
301.129
310.287
317.669
323.252
481.19
475.781
451.686
457.084
467.622
460.829
443.84
434.812
501.613
519.627
497.437
514.808
491.83
482.413
509.673
470.595
466.672
443.521
447.653
459.927
454.947
436.985
429.986
490.398
504.608
487.732
501.298
483.181
475.431
497.382
455.793
453.396
431.929
434.747
448.605
445.816
427.015
421.886
473.616
487.796
471.995
485.795
469.201
463.935
483.231
440.881
439.301
419.675
421.819
435.795
434.093
415.648
411.238
457.762
471.897
456.705
470.316
454.501
450.136
468.2
430.124
428.771
410.709
412.665
425.396
423.486
406.804
401.857
445.751
458.617
445.008
458.009
443.139
439.011
456.35
422.682
421.38
404.642
406.532
418.047
416.051
400.837
395.993
436.738
449.823
436.03
449.648
434.49
430.618
447.987
400.639
397.717
424.288
428.108
393.856
386.643
418.56
409.446
377.312
357.842
374.935
357.305
369.856
368.558
356.384
396.359
393.5
418.399
421.697
389.769
382.922
413.204
405.042
372.264
355.648
369.788
355.392
365.269
364.392
354.405
390.047
387.412
409.632
412.284
383.94
377.937
405.259
398.523
370.066
354.141
367.838
353.309
363.642
362.685
351.765
382.978
380.352
399.871
402.198
376.386
370.02
395.778
388.964
365.964
351.484
363.533
349.832
359.073
357.306
347.28
377.819
375.194
392.739
394.968
371.329
364.962
388.702
381.885
362.742
350.08
360.007
347.227
355.17
352.572
343.451
374.642
372.002
388.034
390.225
368.197
361.818
384.061
377.45
361.607
348.66
358.645
344.979
352.981
349.798
340.626
540.037
556.789
526.233
546.527
508.712
532.13
481.685
507.093
485.297
510.948
510.36
535.656
521.899
545.013
533.596
553.326
499.572
482.968
517.27
491.682
473.076
455.19
489.627
462.629
547.709
554.293
560.894
564.175
537.203
545.99
552.969
558.203
536.053
522.887
510.044
502.652
537.041
547.943
537.64
543.343
499.907
507.153
513.612
519.514
470.776
477.044
549.284
554.376
519.571
529.202
559.841
565.658
558.945
567.113
566.729
570.559
551.452
564.278
561.48
568.629
541.627
559.659
551.076
564.544
557.832
566.895
561.897
568.355
468.927
454.031
476.622
457.449
435.194
421.957
443.133
426.014
504.234
485.82
497.464
482.275
481.888
459.754
484.929
460.965
448.69
428.696
451.834
430.107
509.267
488.2
512.139
489.387
530.18
557.714
514.183
546.684
523.999
553.637
509.915
543.039
534.459
559.732
516.696
548.777
536.726
560.573
517.812
550.05
554.142
543.45
563.945
555.996
545.853
535.131
560.414
551.451
534.247
522.943
554.546
544.339
453.371
414.557
488.083
515.504
546.029
413.196
451.216
483.541
509.392
536.965
412.487
448.156
477.939
504.106
535.725
522.163
502.454
526.124
507.323
516.585
496.95
523.972
504.806
507.751
488.7
520.346
501.051
406.038
392.66
443.639
430.139
473.669
457.418
496.502
478.575
516.865
497.509
404.849
390.134
439.291
425.056
467.734
452.109
492.088
474.567
514.426
494.47
438.437
427.304
437.754
426.763
404.074
383.575
403.059
380.604
467.656
459.009
467.76
458.076
437.387
425.949
438.12
426.833
403.17
379.505
404.323
381.117
467.32
458.448
468.093
459.326
494.962
486.682
518.443
510.874
494.086
484.471
517.24
507.367
494.741
486.29
518.733
511.683
495.045
486.723
518.766
511.27
479.624
460.609
450.18
482.697
462.902
452.308
474.843
455.484
445.051
479.958
459.393
448.475
465.907
446.083
435.321
475.648
453.946
442.513
375.341
362.606
356.052
411.677
394.612
385.381
437.572
418.067
407.141
456.223
436.016
425.119
470.663
447.643
435.409
371.634
358.317
351.053
408.038
392.356
384.054
432.94
414.764
404.99
451.486
430.501
419.203
465.033
441.859
429.797
410.69
397.207
414.604
401.539
440.321
424.004
448.955
430.346
381.999
361.622
383.213
363.562
383.016
362.184
384.792
364.725
382.906
379.709
382.378
375.923
361.188
365.341
404.311
407.193
434.774
438.675
384.462
386.795
384.893
386.587
367.687
369.237
339.861
320.764
345.337
323.96
341.466
320.52
346.87
324.164
342.596
320.066
349.231
324.825
352.249
326.955
354.287
328.661
375.586
363.782
382.839
368.736
402.539
389.235
410.818
394.343
361.872
348.55
354.529
343.968
386.914
371.681
389.338
373.273
415.733
397.397
418.558
398.936
365.591
351.317
367.641
352.881
344.251
322.205
332.765
316.811
337.83
318.254
329.042
314.202
347.912
324.871
335.181
318.582
350.025
326.719
336.701
319.738
322.582
311.961
314.263
307.454
323.825
313.678
314.024
307.648
325.366
317.22
313.639
308.496
355.534
379.525
338.494
327.253
312.879
377.533
352.08
332.634
320.888
308.96
377.79
354.005
336.529
323.94
311.136
303.653
296.009
300.558
293.261
306.143
298.394
301.564
294.434
310.311
302.895
303.218
296.357
370.644
357.997
345.255
334.243
327.566
319.389
315.913
308.423
305.352
298.865
370.406
357.356
347.561
336.711
330.855
321.955
318.632
310.478
307.988
301.453
350.656
337.266
351.814
336.734
371.871
355.238
372.895
353.192
335.14
323.405
333.911
323.211
352.82
336.383
354.226
337.8
374.281
351.643
375.81
353.141
336.09
323.636
337.29
324.779
321.163
311.943
310.416
302.109
320.813
311.254
309.704
301.879
321.442
312.665
310.821
302.188
322.932
313.403
311.475
303.313
286.824
281.773
279.796
280.929
277.448
276.282
289.702
284.282
282.011
282.089
278.446
277.11
294.174
288.368
286.022
283.866
279.873
278.441
344.073
334.273
329.57
323.657
316.204
312.895
309.935
303.59
301.037
299.039
292.955
290.441
285.604
281.457
279.795
342.491
331.999
326.883
324.785
316.078
311.807
311.455
304.124
300.696
299.688
293.831
291.496
286.748
282.69
280.65
305.38
295.75
289.82
285.33
306.745
296.282
290.076
285.381
305.266
295.773
289.911
285.459
306.965
296.469
290.293
285.572
305.012
295.771
290.053
285.658
307.238
296.723
290.566
285.806
308.338
297.353
290.819
285.897
309.421
298.041
291.109
286.007
306.303
296.496
290.521
285.95
304.297
295.823
290.125
286.044
304.472
295.673
290.119
285.875
303.067
295.226
289.827
286.003
307.681
297.201
290.806
286.001
305.319
296.381
290.387
286.132
308.759
297.83
291.12
286.156
306.17
296.901
290.693
286.329
303.11
294.916
289.458
285.319
300.456
293.969
288.995
285.36
302.96
294.903
289.5
285.419
300.492
294.014
289.032
285.443
302.718
294.875
289.56
285.583
300.77
294.172
289.14
285.591
302.329
294.812
289.595
285.793
300.931
294.29
289.254
285.782
301.857
294.71
289.54
285.96
298.075
293.193
288.451
285.64
296.723
292.82
288.207
285.736
298.456
293.348
288.546
285.713
297.165
292.992
288.301
285.803
299.073
293.611
288.698
285.831
297.886
293.285
288.452
285.915
299.837
293.934
288.928
286.008
298.798
293.661
288.672
286.068
300.825
294.361
289.206
286.193
299.71
294.063
288.897
286.226
302.217
295.179
289.583
286.463
300.986
294.883
289.345
286.555
301.578
294.758
289.391
286.333
300.448
294.484
289.123
286.392
302.793
295.609
289.77
286.581
301.512
295.305
289.553
286.711
303.463
296.084
290.041
286.765
302.182
295.772
289.825
286.91
281.374
278.82
277.061
275.972
275.453
281.385
278.826
277.065
275.974
275.455
281.424
278.844
277.073
275.979
275.458
281.447
278.857
277.081
275.983
275.461
281.476
278.869
277.087
275.986
275.463
281.532
278.903
277.106
275.997
275.471
281.655
278.97
277.143
276.019
275.486
281.772
279.038
277.181
276.041
275.501
281.594
278.93
277.119
276.005
275.476
281.615
278.934
277.12
276.005
275.476
281.533
278.896
277.101
275.994
275.469
281.577
278.913
277.109
275.998
275.472
281.666
278.971
277.142
276.018
275.486
281.684
278.974
277.143
276.018
275.485
281.79
279.045
277.184
276.043
275.503
281.805
279.046
277.183
276.042
275.502
281.362
278.813
277.058
275.97
275.452
281.358
278.809
277.055
275.968
275.451
281.401
278.831
277.066
275.975
275.455
281.393
278.825
277.063
275.972
275.454
281.451
278.853
277.077
275.98
275.459
281.442
278.846
277.073
275.978
275.457
281.507
278.879
277.09
275.987
275.464
281.491
278.868
277.084
275.984
275.462
281.546
278.897
277.1
275.993
275.468
535.125
530.117
534.434
529.396
533.189
528.167
531.724
526.525
530.616
525.098
531.933
528.82
531.198
527.266
532.333
529.405
532.699
529.756
565.009
571.236
572.6
572.911
572.977
558.336
569.438
572.191
572.823
572.957
565.122
571.293
572.616
572.915
572.979
558.314
569.483
572.208
572.828
572.958
565.149
571.338
572.631
572.919
572.98
558.175
569.511
572.223
572.833