/*--------------------------------*- C++ -*----------------------------------*\
| =========                 |                                                 |
| \\      /  F ield         | OpenFOAM: The Open Source CFD Toolbox           |
|  \\    /   O peration     | Version:  2412                                  |
|   \\  /    A nd           | Website:  www.openfoam.com                      |
|    \\/     M anipulation  |                                                 |
\*---------------------------------------------------------------------------*/
FoamFile
{
    version     2.0;
    format      ascii;
    arch        "LSB;label=32;scalar=64";
    class       volScalarField;
    location    "10/bottomWater";
    object      p_rgh;
}
// * * * * * * * * * * * * * * * * * * * * * * * * * * * * * * * * * * * * * //

dimensions      [1 -1 -2 0 0 0 0];

internalField   nonuniform List<scalar> 
1460
(
0.003868553
0.0035279198
0.0033635985
0.0032374093
0.0031180456
0.0030032674
0.002890233
0.0027755006
0.0026553034
0.0025260604
0.0023841721
0.0022261758
0.0020501549
0.0018562597
0.0016650128
0.0014872706
0.0013268161
0.0011848209
0.0010629539
0.00095667142
0.00085900298
0.00076539399
0.00067382683
0.00058332758
0.0004933189
0.00040349495
0.00031369876
0.00022386262
0.0001339572
4.4053893e-05
0.0036293192
0.0034455334
0.0033141409
0.0032054045
0.0030989508
0.0029921904
0.0028839185
0.002772387
0.0026545749
0.0025272205
0.002386812
0.0022297699
0.0020536638
0.001858144
0.0016648329
0.0014858425
0.0013242907
0.0011820214
0.0010604129
0.00095482891
0.00085775488
0.00076438305
0.00067286451
0.00058242662
0.00049253329
0.0004028378
0.00031316304
0.000223428
0.00013358355
4.3690321e-05
0.0036662586
0.0034818326
0.0033434961
0.0032276408
0.0031150642
0.0030032511
0.0028910454
0.0027765872
0.0026566208
0.0025277859
0.0023866349
0.0022294174
0.0020537343
0.0018590426
0.0016666537
0.0014883918
0.0013270884
0.0011847795
0.0010629175
0.00095678456
0.00085913487
0.00076531108
0.00067349702
0.00058284043
0.00049279931
0.000403014
0.00031328546
0.00022351514
0.0001336395
4.3695213e-05
0.0036293194
0.0034455337
0.0033141412
0.0032054051
0.0030989516
0.0029921916
0.0028839201
0.0027723888
0.0026545765
0.0025272218
0.0023868128
0.0022297706
0.0020536643
0.0018581445
0.0016648332
0.0014858427
0.0013242907
0.0011820214
0.0010604127
0.00095482868
0.00085775473
0.00076438295
0.00067286439
0.00058242653
0.00049253321
0.00040283774
0.00031316301
0.000223428
0.00013358356
4.3690297e-05
0.0038685533
0.0035279203
0.0033635991
0.0032374102
0.003118047
0.0030032693
0.0028902355
0.0027755033
0.0026553058
0.0025260623
0.0023841734
0.0022261768
0.0020501556
0.0018562604
0.0016650132
0.0014872708
0.0013268162
0.0011848208
0.0010629538
0.00095667131
0.00085900296
0.00076539404
0.00067382684
0.00058332753
0.00049331882
0.00040349487
0.00031369873
0.00022386263
0.00013395721
4.4053851e-05
0.0036637778
0.0034402307
0.0033084834
0.0032029437
0.0030988135
0.002995157
0.0028904143
0.002781385
0.0026647224
0.0025361176
0.0023898294
0.0022181604
0.0020152196
0.0017723603
0.0015754011
0.0014148317
0.0012685319
0.0011345898
0.0010290421
0.00093888039
0.00085167636
0.00076406284
0.00067561091
0.000586443
0.00049672876
0.0004066419
0.0003163138
0.00022582773
0.00013521838
4.4565592e-05
0.0034265415
0.0033591378
0.0032688845
0.0031759397
0.0030814739
0.002984985
0.0028848359
0.0027788889
0.0026647267
0.0025383556
0.002393982
0.0022233262
0.0020184904
0.0017688016
0.0015688042
0.001408517
0.0012641142
0.0011308254
0.0010263559
0.00093816337
0.00085217851
0.00076470814
0.00067601349
0.00058660497
0.00049673087
0.00040655146
0.000316176
0.000225666
0.0001350299
4.4295803e-05
0.0034626333
0.0033950205
0.0032978147
0.003197673
0.0030972426
0.0029959319
0.0028919674
0.0027831012
0.002666714
0.0025388111
0.0023935149
0.0022225394
0.0020181736
0.0017697973
0.0015711602
0.001411291
0.0012669933
0.001133468
0.0010286866
0.00093993108
0.00085321218
0.00076521848
0.00067624134
0.00058669152
0.00049675345
0.00040655508
0.00031618299
0.00022568098
0.00013503806
4.4282349e-05
0.0034265417
0.0033591381
0.003268885
0.0031759404
0.0030814751
0.002984987
0.0028848395
0.0027788946
0.0026647304
0.0025383577
0.0023939832
0.002223327
0.002018491
0.0017688024
0.0015688046
0.0014085171
0.0012641143
0.0011308253
0.0010263557
0.00093816302
0.00085217832
0.00076470807
0.00067601344
0.00058660489
0.00049673078
0.00040655138
0.00031617595
0.00022566597
0.0001350299
4.429577e-05
0.0036637781
0.0034402312
0.0033084841
0.0032029448
0.0030988153
0.0029951598
0.0028904185
0.0027813903
0.0026647266
0.0025361204
0.0023898312
0.0022181616
0.0020152205
0.0017723611
0.0015754015
0.0014148319
0.0012685319
0.0011345897
0.0010290419
0.00093888022
0.00085167625
0.0007640628
0.00067561086
0.00058644291
0.00049672863
0.0004066418
0.00031631376
0.00022582773
0.00013521838
4.4565535e-05
0.0036531152
0.0034385172
0.0033130828
0.0032132307
0.0031151703
0.003017395
0.0029206913
0.0028232019
0.0027220878
0.0026131995
0.0024899148
0.002339254
0.0021477039
0.0018329539
0.0015881072
0.0013918201
0.0012169579
0.0010567427
0.00097980166
0.00091477275
0.00084229053
0.00076210198
0.00067674048
0.0005884522
0.00049866604
0.00040822478
0.0003175207
0.00022673822
0.00013596589
4.5230372e-05
0.0034155725
0.0033564336
0.0032731938
0.0031861838
0.0030980149
0.0030073852
0.0029152924
0.0028210891
0.0027228859
0.0026167279
0.0024960637
0.0023475957
0.0021539237
0.0018272468
0.001575662
0.0013809628
0.0012055919
0.0010452069
0.00097430717
0.00091642651
0.00084652626
0.00076595814
0.00067937654
0.00059004324
0.00049953632
0.00040866212
0.00031771752
0.00022680903
0.00013596252
4.5180293e-05
0.0034524162
0.0033929731
0.0033026527
0.0032083087
0.0031141089
0.0030185687
0.002922583
0.0028253694
0.0027247636
0.0026170328
0.0024954243
0.0023467897
0.0021541157
0.0018299033
0.0015794632
0.001385498
0.0012098744
0.0010493908
0.00097815884
0.00091908541
0.00084775717
0.00076635866
0.00067937745
0.00058987906
0.00049934191
0.00040849918
0.00031760144
0.00022673414
0.00013592375
4.5165621e-05
0.0034155727
0.0033564339
0.0032731943
0.0031861847
0.0030980166
0.003007389
0.0029153022
0.0028211204
0.0027228959
0.0026167318
0.0024960654
0.0023475966
0.0021539242
0.0018272472
0.0015756623
0.001380963
0.0012055919
0.0010452069
0.00097430696
0.00091642617
0.00084652604
0.00076595804
0.00067937647
0.00059004314
0.00049953622
0.00040866202
0.00031771747
0.00022680901
0.00013596251
4.5180258e-05
0.0036531155
0.0034385177
0.0033130836
0.003213232
0.0031151726
0.0030173991
0.0029206987
0.0028232137
0.0027220952
0.0026132037
0.0024899171
0.0023392554
0.0021477048
0.0018329546
0.0015881076
0.0013918203
0.001216958
0.0010567427
0.00097980144
0.00091477248
0.00084229032
0.00076210186
0.00067674038
0.00058845207
0.00049866589
0.00040822466
0.00031752065
0.00022673823
0.00013596589
4.5230317e-05
0.0036137628
0.0034074489
0.0032911497
0.0031997954
0.0031101521
0.003021807
0.0029351333
0.0028489339
0.0027605222
0.0026633035
0.0025437358
0.0023514298
0.0019820244
0.0011884715
0.0012756115
0.0011919649
0.0010394485
0.00078116114
0.00087093744
0.00086252201
0.00082131367
0.00075710116
0.00067867217
0.00059288318
0.00050364452
0.00041280839
0.00032132909
0.00022965241
0.00013796991
4.6303423e-05
0.0033766831
0.0033250705
0.0032514263
0.0031731792
0.003093338
0.0030123437
0.00293079
0.0028489842
0.0027655779
0.0026749329
0.0025629803
0.002373788
0.0019599428
0.0010311619
0.001199275
0.0011565642
0.0010074173
0.00072410222
0.0008533664
0.00086488649
0.00082781716
0.00076294976
0.00068280818
0.00059544879
0.00050516389
0.00041369353
0.00032183379
0.0002299479
0.00013816808
4.6473913e-05
0.0034130826
0.0033612152
0.0032806005
0.0031949954
0.0031090645
0.0030230936
0.0029374742
0.0028523222
0.0027660894
0.0026730752
0.0025592766
0.002369501
0.0019554542
0.0010391351
0.0012126955
0.0011666108
0.0010138859
0.00073120962
0.00086031638
0.00086904413
0.00082933728
0.00076313367
0.00068244667
0.000594949
0.0005047163
0.00041335739
0.0003216062
0.00022980453
0.00013808864
4.6456005e-05
0.0033766833
0.0033250708
0.0032514268
0.0031731798
0.0030933391
0.0030123458
0.0029307937
0.0028489901
0.0027655816
0.002674935
0.0025629815
0.0023737887
0.0019599433
0.0010311622
0.0011992753
0.0011565644
0.0010074175
0.00072410307
0.00085336641
0.00086488631
0.00082781698
0.00076294964
0.00068280808
0.00059544868
0.00050516378
0.00041369343
0.00032183374
0.0002299479
0.00013816809
4.6473889e-05
0.0036137631
0.0034074493
0.0032911503
0.0031997964
0.0031101537
0.0030218097
0.0029351374
0.0028489392
0.0027605264
0.0026633063
0.0025437375
0.0023514309
0.0019820252
0.001188472
0.0012756119
0.0011919652
0.0010394487
0.00078116204
0.00087093733
0.00086252179
0.00082131345
0.00075710099
0.00067867202
0.00059288302
0.00050364435
0.00041280826
0.00032132904
0.00022965244
0.00013796994
4.6303389e-05
0.003612576
0.0034080181
0.0032948937
0.0032077403
0.0031238303
0.0030441486
0.0029715628
0.0029088449
0.0028605888
0.0028333521
0.0028403818
0.0028782517
0.0030172144
0.00034728054
0.00081112286
0.0008013533
0.00083167997
0.00077903415
0.00069490651
0.00060328155
0.00051006263
0.00041666251
0.00032356353
0.00023096563
0.00013886486
4.7097571e-05
0.0033753532
0.0033253391
0.0032548471
0.003180936
0.0031068684
0.0030346234
0.0029673736
0.0029096168
0.002867641
0.0028504894
0.0028746703
0.0029411268
0.00315069
0.00021009015
0.00081267017
0.00081395013
0.00085136772
0.00079814224
0.00070700438
0.00060989622
0.00051359992
0.00041855116
0.00032455986
0.00023151272
0.00013925898
4.7565598e-05
0.0034118428
0.0033615779
0.0032841213
0.0032028448
0.003122685
0.0030454511
0.0029740797
0.002912784
0.0028677497
0.0028476214
0.0028689335
0.0029332092
0.0031391499
0.0002269012
0.00082328984
0.00081823956
0.00085273426
0.00079791275
0.00070600967
0.00060886561
0.00051281526
0.00041800764
0.00032419721
0.00023128517
0.00013913526
4.7556491e-05
0.0033753534
0.0033253393
0.0032548474
0.0031809365
0.0031068691
0.0030346244
0.002967375
0.0029096186
0.0028676424
0.0028504904
0.002874671
0.0029411273
0.0031506903
0.0002100915
0.00081267017
0.0008139502
0.00085136745
0.00079814201
0.00070700421
0.00060989607
0.00051359979
0.00041855106
0.00032455981
0.00023151273
0.00013925901
4.7565587e-05
0.0036125762
0.0034080184
0.0032948941
0.003207741
0.0031238314
0.0030441501
0.0029715649
0.0029088472
0.0028605909
0.0028333537
0.0028403829
0.0028782525
0.0030172151
0.00034728197
0.00081112275
0.00080135333
0.00083167963
0.00077903389
0.00069490629
0.00060328135
0.00051006245
0.00041666237
0.00032356348
0.00023096567
0.00013886492
4.7097566e-05
0.003612576
0.0034080181
0.0032948937
0.0032077404
0.0031238305
0.0030441489
0.0029715632
0.0029088454
0.0028605892
0.0028333524
0.002840382
0.0028782518
0.0030172146
0.00034728022
0.00081112261
0.00080135306
0.00083167981
0.00077903404
0.00069490644
0.00060328151
0.00051006261
0.00041666249
0.00032356348
0.00023096556
0.00013886478
4.70975e-05
0.0033753532
0.0033253392
0.0032548471
0.0031809361
0.0031068685
0.0030346236
0.0029673739
0.0029096172
0.0028676413
0.0028504896
0.0028746705
0.002941127
0.0031506902
0.00021008951
0.00081266988
0.00081394989
0.00085136759
0.00079814214
0.00070700431
0.00060989616
0.00051359988
0.00041855113
0.00032455981
0.00023151265
0.00013925891
4.7565534e-05
0.0034118428
0.0033615779
0.0032841213
0.0032028448
0.003122685
0.0030454512
0.0029740798
0.002912784
0.0028677497
0.0028476215
0.0028689336
0.0029332094
0.00313915
0.00022689993
0.00082328964
0.00081823936
0.00085273422
0.00079791271
0.00070600961
0.00060886555
0.00051281522
0.00041800761
0.00032419717
0.00023128512
0.00013913521
4.7556452e-05
0.0033753534
0.0033253393
0.0032548474
0.0031809364
0.003106869
0.0030346243
0.0029673748
0.0029096183
0.0028676422
0.0028504904
0.002874671
0.0029411273
0.0031506904
0.00021008968
0.00081267003
0.00081395004
0.00085136748
0.00079814201
0.00070700416
0.00060989602
0.00051359975
0.00041855102
0.00032455978
0.00023151269
0.00013925897
4.7565564e-05
0.0036125762
0.0034080184
0.0032948941
0.0032077409
0.0031238312
0.0030441499
0.0029715646
0.0029088469
0.0028605906
0.0028333535
0.0028403828
0.0028782525
0.0030172151
0.00034728041
0.00081112267
0.0008013532
0.0008316797
0.0007790339
0.00069490627
0.00060328131
0.00051006241
0.00041666233
0.00032356345
0.00023096564
0.00013886489
4.7097556e-05
0.0036137628
0.003407449
0.0032911498
0.0031997957
0.0031101525
0.0030218077
0.0029351345
0.0028489355
0.0027605234
0.0026633042
0.0025437362
0.00235143
0.0019820246
0.0011884718
0.0012756115
0.0011919648
0.0010394484
0.00078116118
0.00087093731
0.00086252189
0.00082131359
0.00075710112
0.00067867215
0.00059288318
0.00050364451
0.00041280834
0.00032132898
0.00022965224
0.0001379697
4.6303204e-05
0.0033766831
0.0033250706
0.0032514264
0.0031731793
0.0030933382
0.0030123442
0.0029307911
0.002848986
0.002765579
0.0026749335
0.0025629806
0.0023737882
0.001959943
0.0010311621
0.001199275
0.0011565642
0.0010074172
0.00072410214
0.00085336631
0.00086488641
0.00082781711
0.00076294972
0.00068280816
0.00059544877
0.00050516386
0.00041369347
0.00032183367
0.00022994773
0.00013816788
4.6473735e-05
0.0034130825
0.0033612152
0.0032806004
0.0031949954
0.0031090644
0.0030230935
0.0029374742
0.0028523221
0.0027660894
0.0026730751
0.0025592766
0.002369501
0.0019554542
0.0010391352
0.0012126955
0.0011666107
0.0010138858
0.00073120914
0.0008603163
0.00086904417
0.00082933731
0.00076313366
0.00068244663
0.00059494894
0.00050471623
0.00041335733
0.0003216061
0.0002298044
0.0001380885
4.6455885e-05
0.0033766832
0.0033250707
0.0032514266
0.0031731796
0.0030933387
0.0030123451
0.0029307924
0.0028489881
0.0027655804
0.0026749344
0.0025629812
0.0023737886
0.0019599433
0.0010311623
0.0011992752
0.0011565643
0.0010074173
0.00072410227
0.00085336638
0.00086488648
0.00082781711
0.00076294966
0.00068280803
0.0005954486
0.0005051637
0.00041369337
0.00032183367
0.0002299478
0.00013816798
4.6473815e-05
0.0036137629
0.0034074492
0.0032911501
0.0031997962
0.0031101532
0.0030218088
0.0029351361
0.0028489375
0.0027605251
0.0026633055
0.0025437371
0.0023514307
0.0019820251
0.001188472
0.0012756119
0.0011919651
0.0010394486
0.00078116138
0.00087093737
0.00086252197
0.0008213136
0.00075710104
0.00067867197
0.00059288293
0.00050364426
0.00041280818
0.00032132896
0.00022965234
0.00013796985
4.6303346e-05
0.0036531151
0.0034385173
0.0033130829
0.003213231
0.003115171
0.0030173963
0.0029206937
0.0028232058
0.0027220901
0.0026132008
0.0024899154
0.0023392543
0.002147704
0.0018329539
0.0015881071
0.0013918201
0.0012169578
0.0010567426
0.00097980151
0.00091477262
0.00084229044
0.00076210195
0.00067674049
0.00058845222
0.00049866604
0.0004082247
0.00031752053
0.00022673796
0.00013596555
4.5229993e-05
0.0034155724
0.0033564336
0.0032731939
0.0031861841
0.0030980154
0.0030073864
0.0029152956
0.0028210996
0.0027228892
0.0026167291
0.0024960642
0.0023475959
0.0021539237
0.0018272466
0.001575662
0.0013809628
0.0012055918
0.0010452068
0.00097430707
0.00091642639
0.00084652619
0.00076595811
0.00067937653
0.00059004322
0.0004995363
0.00040866203
0.0003177173
0.00022680872
0.00013596215
4.5179958e-05
0.003452416
0.003392973
0.0033026527
0.0032083087
0.0031141089
0.0030185687
0.002922583
0.0028253694
0.0027247636
0.0026170328
0.0024954243
0.0023467897
0.0021541157
0.0018299032
0.0015794632
0.0013854979
0.0012098743
0.0010493907
0.00097815885
0.00091908546
0.00084775719
0.00076635864
0.00067937739
0.00058987897
0.00049934181
0.00040849908
0.0003176013
0.00022673394
0.00013592349
4.5165384e-05
0.0034155725
0.0033564338
0.0032731942
0.0031861844
0.003098016
0.0030073877
0.0029152989
0.0028211099
0.0027228926
0.0026167306
0.002496065
0.0023475964
0.0021539243
0.0018272474
0.0015756624
0.001380963
0.0012055919
0.0010452069
0.0009743071
0.00091642641
0.00084652618
0.00076595804
0.00067937638
0.00059004302
0.0004995361
0.00040866195
0.00031771738
0.00022680886
0.00013596232
4.5180097e-05
0.0036531153
0.0034385175
0.0033130833
0.0032132315
0.0031151718
0.0030173977
0.0029206962
0.0028232098
0.0027220928
0.0026132024
0.0024899165
0.0023392552
0.0021477048
0.0018329547
0.0015881077
0.0013918204
0.001216958
0.0010567427
0.00097980158
0.00091477267
0.00084229044
0.00076210186
0.00067674028
0.00058845192
0.00049866574
0.00040822456
0.00031752056
0.00022673808
0.00013596572
4.5230217e-05
0.0036637777
0.0034402307
0.0033084835
0.0032029439
0.0030988139
0.0029951577
0.0028904155
0.0027813866
0.0026647236
0.0025361183
0.0023898297
0.0022181605
0.0020152195
0.0017723599
0.0015754009
0.0014148316
0.0012685318
0.0011345896
0.001029042
0.00093888032
0.00085167633
0.00076406286
0.00067561096
0.00058644306
0.00049672879
0.00040664184
0.00031631364
0.00022582751
0.00013521799
4.4565121e-05
0.0034265413
0.0033591378
0.0032688845
0.0031759398
0.0030814741
0.0029849855
0.002884837
0.0027788906
0.0026647277
0.0025383561
0.0023939822
0.0022233263
0.0020184903
0.0017688008
0.0015688042
0.001408517
0.0012641143
0.0011308254
0.0010263558
0.00093816329
0.00085217848
0.00076470815
0.00067601351
0.00058660497
0.00049673085
0.00040655137
0.00031617576
0.00022566554
0.0001350295
4.4295389e-05
0.0034626331
0.0033950204
0.0032978146
0.0031976728
0.0030972424
0.0029959317
0.0028919672
0.002783101
0.0026667139
0.002538811
0.0023935148
0.0022225394
0.0020181734
0.0017697968
0.00157116
0.0014112909
0.0012669933
0.0011334681
0.0010286867
0.00093993115
0.00085321222
0.00076521848
0.00067624129
0.00058669145
0.00049675339
0.00040655502
0.00031618287
0.00022568079
0.00013503775
4.4282039e-05
0.0034265414
0.0033591379
0.0032688847
0.00317594
0.0030814746
0.0029849862
0.0028848382
0.0027788925
0.0026647291
0.002538357
0.0023939828
0.0022233269
0.0020184912
0.0017688035
0.0015688047
0.0014085171
0.0012641143
0.0011308254
0.0010263558
0.00093816326
0.00085217845
0.00076470808
0.00067601336
0.00058660478
0.00049673067
0.0004065513
0.00031617585
0.00022566578
0.00013502962
4.4295545e-05
0.0036637778
0.0034402309
0.0033084837
0.0032029444
0.0030988145
0.0029951587
0.0028904169
0.0027813885
0.0026647252
0.0025361195
0.0023898307
0.0022181615
0.0020152206
0.0017723616
0.0015754017
0.001414832
0.001268532
0.0011345898
0.0010290421
0.00093888039
0.00085167635
0.00076406278
0.00067561075
0.00058644275
0.00049672849
0.0004066417
0.00031631364
0.00022582753
0.00013521817
4.4565395e-05
0.0038685529
0.0035279199
0.0033635985
0.0032374095
0.003118046
0.0030032679
0.0028902337
0.0027755013
0.002655304
0.0025260608
0.0023841723
0.0022261758
0.0020501548
0.0018562596
0.0016650126
0.0014872705
0.001326816
0.0011848208
0.0010629538
0.00095667136
0.00085900297
0.00076539403
0.00067382687
0.00058332759
0.00049331888
0.00040349482
0.00031369852
0.00022386229
0.00013395678
4.405343e-05
0.0036293191
0.0034455334
0.0033141409
0.0032054046
0.0030989509
0.0029921906
0.0028839189
0.0027723874
0.0026545752
0.0025272207
0.0023868121
0.00222977
0.0020536638
0.0018581438
0.0016648329
0.0014858425
0.0013242907
0.0011820215
0.0010604129
0.00095482893
0.00085775489
0.00076438305
0.00067286449
0.00058242659
0.00049253321
0.00040283764
0.00031316276
0.0002234276
0.00013358307
4.3689845e-05
0.0036662584
0.0034818325
0.003343496
0.0032276407
0.0031150641
0.003003251
0.0028910453
0.002776587
0.0026566207
0.0025277858
0.0023866348
0.0022294174
0.0020537342
0.0018590425
0.0016666537
0.0014883918
0.0013270884
0.0011847795
0.0010629176
0.00095678464
0.00085913489
0.00076531105
0.00067349695
0.00058284034
0.00049279921
0.00040301388
0.00031328527
0.00022351484
0.00013363911
4.3694863e-05
0.0036293191
0.0034455335
0.003314141
0.0032054048
0.0030989512
0.0029921911
0.0028839194
0.0027723881
0.0026545759
0.0025272213
0.0023868126
0.0022297705
0.0020536644
0.0018581447
0.0016648333
0.0014858427
0.0013242907
0.0011820214
0.0010604128
0.00095482876
0.00085775477
0.00076438291
0.00067286429
0.00058242639
0.00049253306
0.0004028376
0.00031316282
0.0002234277
0.00013358323
4.3690033e-05
0.0038685531
0.00352792
0.0033635988
0.0032374098
0.0031180464
0.0030032686
0.0028902345
0.0027755023
0.002655305
0.0025260617
0.0023841731
0.0022261767
0.0020501557
0.0018562606
0.0016650134
0.0014872709
0.0013268163
0.001184821
0.001062954
0.00095667147
0.00085900301
0.00076539397
0.00067382671
0.00058332739
0.00049331869
0.00040349475
0.00031369857
0.00022386241
0.00013395697
4.4053674e-05
)
;

boundaryField
{
    minX
    {
        type            zeroGradient;
    }
    maxX
    {
        type            fixedValue;
        value           uniform 0;
    }
    minY
    {
        type            fixedFluxPressure;
        gradient        uniform 0;
        value           nonuniform List<scalar> 
292
(
0.003868553
0.0036637778
0.0036531152
0.0036137628
0.003612576
0.003612576
0.0036137628
0.0036531151
0.0036637777
0.0038685529
0.0035279198
0.0034402307
0.0034385172
0.0034074489
0.0034080181
0.0034080181
0.003407449
0.0034385173
0.0034402307
0.0035279199
0.0033635985
0.0033084834
0.0033130828
0.0032911497
0.0032948937
0.0032948937
0.0032911498
0.0033130829
0.0033084835
0.0033635985
0.0032374093
0.0032029437
0.0032132307
0.0031997954
0.0032077403
0.0032077404
0.0031997957
0.003213231
0.0032029439
0.0032374095
0.0031180456
0.0030988135
0.0031151703
0.0031101521
0.0031238303
0.0031238305
0.0031101525
0.003115171
0.0030988139
0.003118046
0.0030032674
0.002995157
0.003017395
0.003021807
0.0030441486
0.0030441489
0.0030218077
0.0030173963
0.0029951577
0.0030032679
0.002890233
0.0028904143
0.0029206913
0.0029351333
0.0029715628
0.0029715632
0.0029351345
0.0029206937
0.0028904155
0.0028902337
0.0027755006
0.002781385
0.0028232019
0.0028489339
0.0029088449
0.0029088454
0.0028489355
0.0028232058
0.0027813866
0.0027755013
0.0026553034
0.0026647224
0.0027220878
0.0027605222
0.0028605888
0.0028605892
0.0027605234
0.0027220901
0.0026647236
0.002655304
0.0025260604
0.0025361176
0.0026131995
0.0026633035
0.0028333521
0.0028333524
0.0026633042
0.0026132008
0.0025361183
0.0025260608
0.0023841721
0.0023898294
0.0024899148
0.0025437358
0.0028403818
0.002840382
0.0025437362
0.0024899154
0.0023898297
0.0023841723
0.0022261758
0.0022181604
0.002339254
0.0023514298
0.0028782517
0.0028782518
0.00235143
0.0023392543
0.0022181605
0.0022261758
0.0020501549
0.0020152196
0.0021477039
0.0019820244
0.0030172144
0.0030172146
0.0019820246
0.002147704
0.0020152195
0.0020501548
0.0018562597
0.0017723603
0.0018329539
0.0011884715
0.0011884718
0.0018329539
0.0017723599
0.0018562596
0.0016650128
0.0015754011
0.0015881072
0.0012756115
0.0012756115
0.0015881071
0.0015754009
0.0016650126
0.0014872706
0.0014148317
0.0013918201
0.0011919649
0.0011919648
0.0013918201
0.0014148316
0.0014872705
0.0013268161
0.0012685319
0.0012169579
0.0010394485
0.0010394484
0.0012169578
0.0012685318
0.001326816
0.0011848209
0.0011345898
0.0010567427
0.00078116114
0.00034728054
0.00034728022
0.00078116118
0.0010567426
0.0011345896
0.0011848208
0.0010629539
0.0010290421
0.00097980166
0.00087093744
0.00081112286
0.00081112261
0.00087093731
0.00097980151
0.001029042
0.0010629538
0.00095667142
0.00093888039
0.00091477275
0.00086252201
0.0008013533
0.00080135306
0.00086252189
0.00091477262
0.00093888032
0.00095667136
0.00085900298
0.00085167636
0.00084229053
0.00082131367
0.00083167997
0.00083167981
0.00082131359
0.00084229044
0.00085167633
0.00085900297
0.00076539399
0.00076406284
0.00076210198
0.00075710116
0.00077903415
0.00077903404
0.00075710112
0.00076210195
0.00076406286
0.00076539403
0.00067382683
0.00067561091
0.00067674048
0.00067867217
0.00069490651
0.00069490644
0.00067867215
0.00067674049
0.00067561096
0.00067382687
0.00058332758
0.000586443
0.0005884522
0.00059288318
0.00060328155
0.00060328151
0.00059288318
0.00058845222
0.00058644306
0.00058332759
0.0004933189
0.00049672876
0.00049866604
0.00050364452
0.00051006263
0.00051006261
0.00050364451
0.00049866604
0.00049672879
0.00049331888
0.00040349495
0.0004066419
0.00040822478
0.00041280839
0.00041666251
0.00041666249
0.00041280834
0.0004082247
0.00040664184
0.00040349482
0.00031369876
0.0003163138
0.0003175207
0.00032132909
0.00032356353
0.00032356348
0.00032132898
0.00031752053
0.00031631364
0.00031369852
0.00022386262
0.00022582773
0.00022673822
0.00022965241
0.00023096563
0.00023096556
0.00022965224
0.00022673796
0.00022582751
0.00022386229
0.0001339572
0.00013521838
0.00013596589
0.00013796991
0.00013886486
0.00013886478
0.0001379697
0.00013596555
0.00013521799
0.00013395678
4.4053893e-05
4.4565592e-05
4.5230372e-05
4.6303423e-05
4.7097571e-05
4.70975e-05
4.6303204e-05
4.5229993e-05
4.4565121e-05
4.405343e-05
)
;
    }
    minZ
    {
        type            fixedFluxPressure;
        gradient        uniform 0;
        value           nonuniform List<scalar> 
150
(
0.003868553
0.0036293192
0.0036662586
0.0036293194
0.0038685533
0.0035279198
0.0034455334
0.0034818326
0.0034455337
0.0035279203
0.0033635985
0.0033141409
0.0033434961
0.0033141412
0.0033635991
0.0032374093
0.0032054045
0.0032276408
0.0032054051
0.0032374102
0.0031180456
0.0030989508
0.0031150642
0.0030989516
0.003118047
0.0030032674
0.0029921904
0.0030032511
0.0029921916
0.0030032693
0.002890233
0.0028839185
0.0028910454
0.0028839201
0.0028902355
0.0027755006
0.002772387
0.0027765872
0.0027723888
0.0027755033
0.0026553034
0.0026545749
0.0026566208
0.0026545765
0.0026553058
0.0025260604
0.0025272205
0.0025277859
0.0025272218
0.0025260623
0.0023841721
0.002386812
0.0023866349
0.0023868128
0.0023841734
0.0022261758
0.0022297699
0.0022294174
0.0022297706
0.0022261768
0.0020501549
0.0020536638
0.0020537343
0.0020536643
0.0020501556
0.0018562597
0.001858144
0.0018590426
0.0018581445
0.0018562604
0.0016650128
0.0016648329
0.0016666537
0.0016648332
0.0016650132
0.0014872706
0.0014858425
0.0014883918
0.0014858427
0.0014872708
0.0013268161
0.0013242907
0.0013270884
0.0013242907
0.0013268162
0.0011848209
0.0011820214
0.0011847795
0.0011820214
0.0011848208
0.0010629539
0.0010604129
0.0010629175
0.0010604127
0.0010629538
0.00095667142
0.00095482891
0.00095678456
0.00095482868
0.00095667131
0.00085900298
0.00085775488
0.00085913487
0.00085775473
0.00085900296
0.00076539399
0.00076438305
0.00076531108
0.00076438295
0.00076539404
0.00067382683
0.00067286451
0.00067349702
0.00067286439
0.00067382684
0.00058332758
0.00058242662
0.00058284043
0.00058242653
0.00058332753
0.0004933189
0.00049253329
0.00049279931
0.00049253321
0.00049331882
0.00040349495
0.0004028378
0.000403014
0.00040283774
0.00040349487
0.00031369876
0.00031316304
0.00031328546
0.00031316301
0.00031369873
0.00022386262
0.000223428
0.00022351514
0.000223428
0.00022386263
0.0001339572
0.00013358355
0.0001336395
0.00013358356
0.00013395721
4.4053893e-05
4.3690321e-05
4.3695213e-05
4.3690297e-05
4.4053851e-05
)
;
    }
    maxZ
    {
        type            fixedFluxPressure;
        gradient        uniform 0;
        value           nonuniform List<scalar> 
150
(
0.0038685529
0.0036293191
0.0036662584
0.0036293191
0.0038685531
0.0035279199
0.0034455334
0.0034818325
0.0034455335
0.00352792
0.0033635985
0.0033141409
0.003343496
0.003314141
0.0033635988
0.0032374095
0.0032054046
0.0032276407
0.0032054048
0.0032374098
0.003118046
0.0030989509
0.0031150641
0.0030989512
0.0031180464
0.0030032679
0.0029921906
0.003003251
0.0029921911
0.0030032686
0.0028902337
0.0028839189
0.0028910453
0.0028839194
0.0028902345
0.0027755013
0.0027723874
0.002776587
0.0027723881
0.0027755023
0.002655304
0.0026545752
0.0026566207
0.0026545759
0.002655305
0.0025260608
0.0025272207
0.0025277858
0.0025272213
0.0025260617
0.0023841723
0.0023868121
0.0023866348
0.0023868126
0.0023841731
0.0022261758
0.00222977
0.0022294174
0.0022297705
0.0022261767
0.0020501548
0.0020536638
0.0020537342
0.0020536644
0.0020501557
0.0018562596
0.0018581438
0.0018590425
0.0018581447
0.0018562606
0.0016650126
0.0016648329
0.0016666537
0.0016648333
0.0016650134
0.0014872705
0.0014858425
0.0014883918
0.0014858427
0.0014872709
0.001326816
0.0013242907
0.0013270884
0.0013242907
0.0013268163
0.0011848208
0.0011820215
0.0011847795
0.0011820214
0.001184821
0.0010629538
0.0010604129
0.0010629176
0.0010604128
0.001062954
0.00095667136
0.00095482893
0.00095678464
0.00095482876
0.00095667147
0.00085900297
0.00085775489
0.00085913489
0.00085775477
0.00085900301
0.00076539403
0.00076438305
0.00076531105
0.00076438291
0.00076539397
0.00067382687
0.00067286449
0.00067349695
0.00067286429
0.00067382671
0.00058332759
0.00058242659
0.00058284034
0.00058242639
0.00058332739
0.00049331888
0.00049253321
0.00049279921
0.00049253306
0.00049331869
0.00040349482
0.00040283764
0.00040301388
0.0004028376
0.00040349475
0.00031369852
0.00031316276
0.00031328527
0.00031316282
0.00031369857
0.00022386229
0.0002234276
0.00022351484
0.0002234277
0.00022386241
0.00013395678
0.00013358307
0.00013363911
0.00013358323
0.00013395697
4.405343e-05
4.3689845e-05
4.3694863e-05
4.3690033e-05
4.4053674e-05
)
;
    }
    bottomWater_to_rightSolid
    {
        type            fixedFluxPressure;
        gradient        uniform 0;
        value           nonuniform List<scalar> 
130
(
0.0011848208
0.0010629538
0.00095667131
0.00085900296
0.00076539404
0.00067382684
0.00058332753
0.00049331882
0.00040349487
0.00031369873
0.00022386263
0.00013395721
4.4053851e-05
0.0011345897
0.0010290419
0.00093888022
0.00085167625
0.0007640628
0.00067561086
0.00058644291
0.00049672863
0.0004066418
0.00031631376
0.00022582773
0.00013521838
4.4565535e-05
0.0010567427
0.00097980144
0.00091477248
0.00084229032
0.00076210186
0.00067674038
0.00058845207
0.00049866589
0.00040822466
0.00031752065
0.00022673823
0.00013596589
4.5230317e-05
0.00078116204
0.00087093733
0.00086252179
0.00082131345
0.00075710099
0.00067867202
0.00059288302
0.00050364435
0.00041280826
0.00032132904
0.00022965244
0.00013796994
4.6303389e-05
0.00034728197
0.00081112275
0.00080135333
0.00083167963
0.00077903389
0.00069490629
0.00060328135
0.00051006245
0.00041666237
0.00032356348
0.00023096567
0.00013886492
4.7097566e-05
0.00034728041
0.00081112267
0.0008013532
0.0008316797
0.0007790339
0.00069490627
0.00060328131