/*--------------------------------*- C++ -*----------------------------------*\
| =========                 |                                                 |
| \\      /  F ield         | OpenFOAM: The Open Source CFD Toolbox           |
|  \\    /   O peration     | Version:  2412                                  |
|   \\  /    A nd           | Website:  www.openfoam.com                      |
|    \\/     M anipulation  |                                                 |
\*---------------------------------------------------------------------------*/
FoamFile
{
    version     2.0;
    format      ascii;
    arch        "LSB;label=32;scalar=64";
    class       surfaceScalarField;
    location    "10/bottomWater";
    object      phi;
}
// * * * * * * * * * * * * * * * * * * * * * * * * * * * * * * * * * * * * * //

dimensions      [1 0 -1 0 0 0 0];

oriented        oriented;

internalField   nonuniform List<scalar> 
3858
(
7.4253357e-05
3.5589532e-06
2.1876898e-06
6.919988e-05
2.96783e-06
2.0856468e-06
6.581006e-05
1.9229121e-06
1.4669078e-06
6.3853683e-05
1.1206154e-06
8.3576194e-07
6.2946345e-05
6.0454636e-07
3.0279141e-07
6.2772523e-05
3.1072552e-07
-1.3690321e-07
6.3142444e-05
1.5619695e-07
-5.2611853e-07
6.3996953e-05
7.555081e-08
-9.3005917e-07
6.534205e-05
3.053976e-08
-1.3756366e-06
6.7209744e-05
1.1882608e-09
-1.8688823e-06
6.9610119e-05
-2.3060865e-08
-2.3773144e-06
7.2412268e-05
-4.3341232e-08
-2.7588076e-06
7.5275437e-05
-6.2194392e-08
-2.8009746e-06
7.6956176e-05
-5.7530287e-08
-1.6232086e-06
7.7397311e-05
-4.1084774e-08
-4.0005084e-07
7.6801736e-05
-3.0493873e-08
6.2606918e-07
7.5329901e-05
-2.0093509e-08
1.4919287e-06
7.2989572e-05
-1.151163e-08
2.35184e-06
7.0310527e-05
-9.7424303e-09
2.6887872e-06
6.7784425e-05
-1.2267086e-08
2.53837e-06
6.5660459e-05
-1.318939e-08
2.1371549e-06
6.399874e-05
-1.0132672e-08
1.6718519e-06
6.2760121e-05
-5.3963772e-09
1.2440148e-06
6.1865765e-05
-1.486078e-09
8.958425e-07
6.1233477e-05
1.1227109e-09
6.3116575e-07
6.0793604e-05
2.5419022e-09
4.3733038e-07
6.0492436e-05
2.977207e-09
2.9819107e-07
6.0290404e-05
3.0073634e-09
1.9902425e-07
6.0159669e-05
2.8076989e-09
1.2792765e-07
4.1712543e-09
8.0254976e-08
7.9837139e-05
1.3684727e-06
2.3533418e-06
7.9259219e-05
1.1766019e-06
2.3691474e-06
7.8748306e-05
7.4800204e-07
1.6858231e-06
7.8471532e-05
4.0888368e-07
9.8850663e-07
7.8494765e-05
1.9494018e-07
3.8637258e-07
7.8853433e-05
8.1113707e-08
-1.2905595e-07
7.9571831e-05
2.8188593e-08
-5.9038966e-07
8.0713004e-05
5.3264675e-09
-1.0709483e-06
8.2356172e-05
-7.1064076e-09
-1.6055218e-06
8.4579007e-05
-1.4085398e-08
-2.2075614e-06
8.7423972e-05
-1.9570815e-08
-2.848455e-06
9.0783743e-05
-2.6047819e-08
-3.3770647e-06
9.4283362e-05
-3.0318816e-08
-3.5314942e-06
9.6542213e-05
-2.8810653e-08
-2.2875707e-06
9.7377654e-05
-2.0787459e-08
-8.5573839e-07
9.6983408e-05
-1.3916008e-08
3.7766789e-07
9.5480932e-05
-6.9794453e-09
1.4893622e-06
9.2897917e-05
-2.3448943e-09
2.5738478e-06
8.9767596e-05
-3.5465126e-10
3.1209331e-06
8.6672564e-05
-1.4387718e-09
3.084204e-06
8.3968676e-05
-2.4555473e-09
2.6931544e-06
8.1789796e-05
-1.4562807e-09
2.1702037e-06
8.0130809e-05
4.2805971e-10
1.6531623e-06
7.8915611e-05
1.6092124e-09
1.2121031e-06
7.8048471e-05
2.2661858e-09
8.6599591e-07
7.7441715e-05
2.393572e-09
6.0690489e-07
7.702448e-05
2.2138129e-09
4.1799847e-07
7.6743655e-05
1.9512753e-09
2.8188096e-07
7.6561084e-05
1.820597e-09
1.8355736e-07
2.1420245e-09
1.167367e-07
8.038987e-05
-1.3684596e-06
2.3470619e-06
8.037462e-05
-1.1765796e-06
2.3684315e-06
8.017886e-05
-7.4798703e-07
1.691749e-06
7.999982e-05
-4.0888119e-07
9.9680489e-07
7.9997642e-05
-1.9494454e-07
3.9206361e-07
8.0288282e-05
-8.1118526e-08
-1.2840788e-07
8.0939134e-05
-2.8191155e-08
-5.9447293e-07
8.2029144e-05
-5.3265465e-09
-1.0793569e-06
8.3632697e-05
7.109541e-09
-1.6177686e-06
8.582874e-05
1.4090613e-08
-2.2242194e-06
8.8659653e-05
1.9579155e-08
-2.870063e-06
9.2013157e-05
2.6058877e-08
-3.4056099e-06
9.5523758e-05
3.0331295e-08
-3.5712513e-06
9.7809788e-05
2.8823635e-08
-2.3436642e-06
9.8679123e-05
2.07993e-08
-9.1092164e-07
9.8320372e-05
1.3923452e-08
3.3091167e-07
9.6842595e-05
6.9799803e-09
1.4638172e-06
9.4269603e-05
2.3413834e-09
2.5683052e-06
9.1132997e-05
3.5177121e-10
3.1358999e-06
8.8012853e-05
1.4456155e-09
3.1172593e-06
8.52708e-05
2.4715964e-09
2.7371264e-06
8.3051766e-05
1.4744149e-09
2.2161031e-06
8.1357894e-05
-4.1842104e-10
1.6947183e-06
8.0114674e-05
-1.6008564e-09
1.2464302e-06
7.9226459e-05
-2.2606299e-09
8.9274177e-07
7.8604333e-05
-2.3891063e-09
6.2690854e-07
7.8176262e-05
-2.2106409e-09
4.3249548e-07
7.7888087e-05
-1.9516804e-09
2.9207758e-07
7.770127e-05
-1.8280411e-09
1.9046621e-07
-2.1586856e-09
1.2112767e-07
7.9837144e-05
-3.5589446e-06
2.3533415e-06
7.9259233e-05
-2.9678161e-06
2.3691474e-06
7.8748325e-05
-1.9229028e-06
1.6858238e-06
7.847155e-05
-1.120614e-06
9.8850783e-07
7.849478e-05
-6.0454886e-07
3.8637409e-07
7.8853444e-05
-3.1072817e-07
-1.2905448e-07
7.9571839e-05
-1.5619804e-07
-5.9038798e-07
8.0713009e-05
-7.5550349e-08
-1.0709464e-06
8.2356176e-05
-3.0537461e-08
-1.6055193e-06
8.457901e-05
-1.1847744e-09
-2.2075588e-06
8.7423974e-05
2.3068255e-08
-2.8484531e-06
9.0783745e-05
4.3351194e-08
-3.3770634e-06
9.4283364e-05
6.2205819e-08
-3.5314932e-06
9.6542215e-05
5.7541154e-08
-2.287569e-06
9.7377657e-05
4.1092588e-08
-8.5573568e-07
9.6983411e-05
3.049629e-08
3.776733e-07
9.5480933e-05
2.0088615e-08
1.4893698e-06
9.2897915e-05
1.1502767e-08
2.5738562e-06
8.9767591e-05
9.7338528e-09
3.1209417e-06
8.6672559e-05
1.226599e-08
3.0842125e-06
8.3968672e-05
1.3197515e-08
2.6931605e-06
8.1789795e-05
1.0143842e-08
2.1702076e-06
8.0130806e-05
5.4059109e-09
1.6531649e-06
7.8915607e-05
1.4919349e-09
1.2121057e-06
7.8048466e-05
-1.1178281e-09
8.659986e-07
7.7441708e-05
-2.5382076e-09
6.0690728e-07
7.7024471e-05
-2.9737436e-09
4.1800025e-07
7.6743643e-05
-3.0059756e-09
2.8188197e-07
7.6561068e-05
-2.8115147e-09
1.8355803e-07
-4.1829069e-09
1.1673754e-07
7.4253366e-05
2.1876897e-06
6.9199902e-05
2.0856473e-06
6.581009e-05
1.4669092e-06
6.3853712e-05
8.3576414e-07
6.2946369e-05
3.0279403e-07
6.2772541e-05
-1.3690045e-07
6.3142459e-05
-5.2611526e-07
6.3996964e-05
-9.3005538e-07
6.5342059e-05
-1.3756323e-06
6.7209751e-05
-1.8688777e-06
6.961013e-05
-2.37731e-06
7.2412284e-05
-2.7588035e-06
7.5275461e-05
-2.8009708e-06
7.6956207e-05
-1.6232045e-06
7.7397345e-05
-4.0004585e-07
7.6801764e-05
6.2607709e-07
7.5329914e-05
1.491939e-06
7.2989566e-05
2.3518504e-06
7.0310503e-05
2.6887969e-06
6.7784392e-05
2.5383776e-06
6.5660429e-05
2.1371602e-06
6.3998716e-05
1.6718565e-06
6.2760103e-05
1.2440197e-06
6.1865746e-05
8.9584829e-07
6.1233457e-05
6.3117156e-07
6.0793583e-05
4.3733549e-07
6.0492415e-05
2.9819476e-07
6.0290382e-05
1.9902645e-07
6.0159642e-05
1.2792901e-07
8.0256263e-08
7.7221918e-05
3.725841e-06
1.2399309e-06
7.474677e-05
3.2446198e-06
1.3161745e-06
7.3206288e-05
2.0887716e-06
9.1861897e-07
7.2407088e-05
1.2299852e-06
4.0497615e-07
7.2150972e-05
6.7829267e-07
-1.1938498e-07
7.234379e-05
3.514449e-07
-6.8116652e-07
7.2941519e-05
1.7195843e-07
-1.2958053e-06
7.397455e-05
7.5177892e-08
-2.0382684e-06
7.5552892e-05
1.7681813e-08
-2.9716602e-06
7.7844086e-05
-2.3762028e-08
-4.1363141e-06
8.1069387e-05
-6.0425918e-08
-5.5421898e-06
8.5269186e-05
-8.1061239e-08
-6.8775458e-06
9.0069816e-05
-8.4700876e-08
-7.5169034e-06
9.1389165e-05
3.2600171e-08
-2.9751579e-06
9.1028384e-05
9.6469057e-08
-1.3573838e-07
9.0016474e-05
1.0499897e-07
1.5329798e-06
8.8298632e-05
8.1238545e-08
3.1285319e-06
8.5113967e-05
7.8041867e-08
5.4584639e-06
8.1735629e-05
4.7912409e-08
6.0192125e-06
7.8738972e-05
4.3645503e-09
5.5306619e-06
7.6343394e-05
-2.207331e-08
4.554807e-06
7.4556783e-05
-2.8772388e-08
3.4872352e-06
7.3269114e-05
-2.3866632e-08
2.5555506e-06
7.235564e-05
-1.6235982e-08
1.8255521e-06
7.1714477e-05
-9.4678636e-09
1.2817961e-06
7.1269711e-05
-4.7622258e-09
8.8685921e-07
7.0965981e-05
-1.8693297e-09
6.0379036e-07
7.0763748e-05
-1.561339e-10
4.0141313e-07
7.0635272e-05
1.028312e-09
2.5537511e-07
3.3220718e-09
1.535073e-07
8.3283765e-05
1.4466665e-06
1.3487507e-06
8.6111285e-05
1.2948306e-06
1.4914175e-06
8.8016241e-05
8.1516258e-07
1.0544759e-06
8.9302028e-05
4.5001397e-07
4.8269101e-07
9.0254321e-05
2.2203457e-07
-1.096625e-07
9.1139275e-05
9.5785939e-08
-7.5835118e-07
9.2162454e-05
3.4107443e-08
-1.4757177e-06
9.3508003e-05
6.5803867e-09
-2.3478996e-06
9.5383596e-05
-9.0578723e-09
-3.4543749e-06
9.8027315e-05
-1.8290153e-08
-4.8567524e-06
0.00010173841
-2.8369756e-08
-6.5916022e-06
0.00010667865
-3.7407167e-08
-8.3609641e-06
0.00011251563
-3.5355429e-08
-9.4178187e-06
0.00011471305
-6.3956179e-10
-4.4517491e-06
0.00011491257
2.4113778e-08
-9.8290095e-07
0.00011407731
3.0244628e-08
1.2876758e-06
0.00011230287
2.2405225e-08
3.3226425e-06
0.00010879282
1.673112e-08
6.1452058e-06
0.00010480931
8.1911115e-09
7.1441648e-06
0.00010107244
-6.1471802e-09
6.8315811e-06
9.7943871e-05
-1.598832e-08
5.8156405e-06
9.5526972e-05
-1.663973e-08
4.5749704e-06
9.3747425e-05
-1.2904462e-08
3.4217474e-06
9.247094e-05
-8.5275483e-09
2.4808791e-06
9.1570972e-05
-5.0220729e-09
1.7615184e-06
9.0945932e-05
-2.6383744e-09
1.2298208e-06
9.0519051e-05
-1.1457719e-09
8.4415606e-07
9.023461e-05
-1.9512942e-10
5.6636045e-07
9.0053635e-05
4.6328462e-10
3.6509777e-07
1.3190701e-09
2.2339014e-07
8.3889646e-05
-1.4466518e-06
1.3507346e-06
8.735267e-05
-1.2948067e-06
1.4950445e-06
8.9615543e-05
-8.1514828e-07
1.0591865e-06
9.1024875e-05
-4.5001511e-07
4.8750182e-07
9.196798e-05
-2.2204492e-07
-1.0696093e-07
9.2791398e-05
-9.5798094e-08
-7.6024202e-07
9.3747247e-05
-3.4117934e-08
-1.4820966e-06
9.5039446e-05
-6.5885356e-09
-2.3583875e-06
9.6872473e-05
9.0508576e-09
-3.4689046e-06
9.9488329e-05
1.8286332e-08
-4.8766513e-06
0.00010318143
2.8368516e-08
-6.6199048e-06
0.00010810656
3.7407431e-08
-8.4055491e-06
0.00011395307
3.5354825e-08
-9.4884778e-06
0.00011621185
6.326012e-10
-4.6037133e-06
0.00011649623
-2.4124622e-08
-1.1470602e-06
0.00011570886
-3.0266529e-08
1.1787935e-06
0.00011395865
-2.2439894e-08
3.2588699e-06
0.00011045006
-1.6773064e-08
6.1103996e-06
0.00010645115
-8.2319497e-09
7.1512323e-06
0.00010267554
6.1104065e-09
6.8806128e-06
9.9489885e-05
1.5971933e-08
5.8908196e-06
9.7017299e-05
1.6632931e-08
4.6554166e-06
9.5192234e-05
1.2900501e-08
3.4939776e-06
9.3881894e-05
8.5236795e-09
2.5397192e-06
9.2957959e-05
5.0169595e-09
1.8066375e-06
9.2316515e-05
2.6341202e-09
1.2630804e-06
9.1878706e-05
1.1424578e-09
8.6801611e-07
9.1587349e-05
1.889382e-10
5.8305088e-07
9.1402408e-05
-4.7497345e-10
3.76345e-07
-1.3409743e-09
2.3048539e-07
8.3283771e-05
-3.7258315e-06
1.3487502e-06
8.61113e-05
-3.244605e-06
1.4914171e-06
8.8016262e-05
-2.0887629e-06
1.0544762e-06
8.9302048e-05
-1.2299861e-06
4.8269209e-07
9.0254337e-05
-6.7829887e-07
-1.0966097e-07
9.1139287e-05
-3.5145198e-07
-7.5834976e-07
9.2162462e-05
-1.7196432e-07
-1.4757165e-06
9.3508009e-05
-7.518237e-08
-2.3478997e-06
9.5383599e-05
-1.7684915e-08
-3.4543735e-06
9.8027316e-05
2.3760628e-08
-4.8567509e-06
0.00010173841
6.0427333e-08
-6.5916014e-06
0.00010667865
8.1064747e-08
-8.3609643e-06
0.00011251563
8.470432e-08
-9.4178199e-06
0.00011471304
-3.2599026e-08
-4.4517505e-06
0.00011491255
-9.6473239e-08
-9.8290189e-07
0.0001140773
-1.050127e-07
1.2876753e-06
0.00011230285
-8.1264309e-08
3.3226416e-06
0.00010879281
-7.8075514e-08
6.1451993e-06
0.00010480931
-4.7947321e-08
7.1441584e-06
0.00010107245
-4.3908149e-09
6.8315769e-06
9.7943877e-05
2.2063998e-08
5.8156379e-06
9.5526976e-05
2.8771494e-08
4.5749696e-06
9.3747426e-05
2.3867629e-08
3.4217479e-06
9.247094e-05
1.6235414e-08
2.4808803e-06
9.157097e-05
9.4657912e-09
1.7615199e-06
9.0945928e-05
4.7607526e-09
1.2298225e-06
9.0519044e-05
1.8689869e-09
8.4415763e-07
9.0234598e-05
1.5498528e-10
5.6636174e-07
9.0053616e-05
-1.0347912e-09
3.6509927e-07
-3.337161e-09
2.2339181e-07
7.7221928e-05
1.2399302e-06
7.4746796e-05
1.316174e-06
7.3206323e-05
9.1861956e-07
7.2407123e-05
4.0497786e-07
7.2151001e-05
-1.1938248e-07
7.2343812e-05
-6.8116379e-07
7.2941535e-05
-1.2958024e-06
7.3974563e-05
-2.0382653e-06
7.5552902e-05
-2.9716562e-06
7.7844094e-05
-4.1363095e-06
8.1069397e-05
-5.5421853e-06
8.52692e-05
-6.8775417e-06
9.0069834e-05
-7.5169005e-06
9.1389187e-05
-2.9751569e-06
9.1028407e-05
-1.357391e-07
9.0016494e-05
1.5329778e-06
8.829864e-05
3.1285283e-06
8.5113964e-05
5.4584512e-06
8.1735613e-05
6.0192e-06
7.8738948e-05
5.5306522e-06
7.634337e-05
4.5548021e-06
7.4556763e-05
3.4872352e-06
7.3269096e-05
2.5555542e-06
7.2355622e-05
1.8255578e-06
7.1714457e-05
1.2818022e-06
7.1269688e-05
8.8686489e-07
7.0965957e-05
6.0379496e-07
7.0763722e-05
4.0141639e-07
7.0635239e-05
2.5537751e-07
1.5350938e-07
7.6996487e-05
3.7208168e-06
5.226272e-07
7.4442346e-05
3.249862e-06
6.2045311e-07
7.285393e-05
2.0883209e-06
4.1871449e-07
7.1965596e-05
1.2257994e-06
6.7510387e-08
7.1519254e-05
6.7169212e-07
-3.447351e-07
7.135946e-05
3.4242944e-07
-8.6380201e-07
7.1451765e-05
1.5855421e-07
-1.5466643e-06
7.184778e-05
5.3996754e-08
-2.4882805e-06
7.2720705e-05
-1.5393035e-08
-3.8291918e-06
7.441854e-05
-7.6667168e-08
-5.7574819e-06
7.7642339e-05
-1.4852922e-07
-8.6174597e-06
8.3263798e-05
-1.9918014e-07
-1.2299825e-05
9.2549428e-05
-2.2607826e-07
-1.6576454e-05
9.6414084e-05
2.6165838e-08
-6.8659801e-06
9.7544738e-05
1.5600933e-07
-1.4224023e-06
9.7124732e-05
1.6578885e-07
1.7871976e-06
9.5325755e-05
1.5281153e-07
4.774697e-06
8.9197683e-05
2.0365538e-07
1.138288e-05
8.3232058e-05
1.1719594e-07
1.1867642e-05
7.8278234e-05
5.1270013e-09
1.0479359e-05
7.4863021e-05
-5.2884483e-08
8.0229048e-06
7.2866738e-05
-5.8827189e-08
5.5423451e-06
7.1803401e-05
-4.2747505e-08
3.661635e-06
7.1263872e-05
-2.4834141e-08
2.3899155e-06
7.099839e-05
-1.1874201e-08
1.5591527e-06
7.0870686e-05
-4.3582519e-09
1.0189213e-06
7.0810223e-05
-6.0904498e-10
6.6486192e-07
7.0781875e-05
8.2354071e-10
4.289375e-07
7.0768157e-05
1.2460703e-09
2.6784744e-07
1.3909262e-09
1.6062322e-07
8.3061976e-05
1.4441075e-06
5.6348402e-07
8.5817626e-05
1.296983e-06
6.8864699e-07
8.7671222e-05
8.1462848e-07
4.7457197e-07
8.8848552e-05
4.4768761e-07
8.3473178e-08
8.9579275e-05
2.1901766e-07
-3.877113e-07
9.0058138e-05
9.2623249e-08
-9.8740805e-07
9.0492792e-05
3.0353633e-08
-1.7821709e-06
9.1082296e-05
1.6983229e-09
-2.8851055e-06
9.209857e-05
-1.9212492e-08
-4.4668298e-06
9.3965571e-05
-3.3210169e-08
-6.7672097e-06
9.7488618e-05
-5.3878672e-08
-1.02093e-05
0.00010378837
-7.7088121e-08
-1.4782806e-05
0.00011447996
-7.0555764e-08
-2.0264938e-05
0.00011982778
1.9826242e-08
-9.7932226e-06
0.00012211732
6.4546327e-08
-3.1809772e-06
0.00012250895
6.2739369e-08
9.990873e-07
0.00012092159
5.9374501e-08
5.003448e-06
0.00011436816
6.2335247e-08
1.2839955e-05
0.00010741455
3.2564593e-08
1.41824e-05
0.00010119144
-1.4084762e-08
1.3073905e-05
9.6539911e-05
-3.5744092e-08
1.045003e-05
9.3610523e-05
-3.43118e-08
7.479843e-06
9.1952638e-05
-2.4378626e-08
5.0612634e-06
9.1071492e-05
-1.441468e-08
3.3516056e-06
9.0621236e-05
-7.3404337e-09
2.2072409e-06
9.0397363e-05
-3.2152745e-09
1.4525502e-06
9.0288149e-05
-1.1149767e-09
9.5387637e-07
9.0235468e-05
-1.6106278e-10
6.2002608e-07
9.0209991e-05
2.7105919e-10
3.9154989e-07
3.9725333e-10
2.3809571e-07
8.3673376e-05
-1.4440937e-06
5.6555997e-07
8.707105e-05
-1.2969603e-06
6.9131397e-07
8.9282494e-05
-8.1461503e-07
4.7698566e-07
9.057984e-05
-4.4768927e-07
8.55324e-08
9.1297708e-05
-2.1902868e-07
-3.8678195e-07
9.1710882e-05
-9.2636432e-08
-9.881568e-07
9.2074117e-05
-3.036589e-08
-1.7846121e-06
9.2607604e-05
-1.6929222e-09
-2.8884825e-06
9.3572079e-05
1.9203663e-08
-4.4717959e-06
9.5401191e-05
3.3204489e-08
-6.7721779e-06
9.8890985e-05
5.3874626e-08
-1.0217452e-05
0.00010513738
7.7084064e-08
-1.480612e-05
0.00011581673
7.0550798e-08
-2.0308928e-05
0.00012127414
-1.9834575e-08
-1.0021469e-05
0.0001236983
-6.4562041e-08
-3.4421121e-06
0.00012420783
-6.2765899e-08
7.9477307e-07
0.00012267959
-5.9414017e-08
4.9058996e-06
0.00011615882
-6.2388332e-08
1.2755889e-05
0.00010920036
-3.2622151e-08
1.4174879e-05
0.00010289736
1.4029559e-08
1.3155504e-05
9.8133546e-05
3.5712243e-08
1.0583174e-05
9.5107083e-05
3.4293158e-08
7.6132742e-06
9.3381815e-05
2.4366305e-08
5.1705008e-06
9.2460133e-05
1.4404936e-08
3.4325813e-06
9.1987965e-05
7.3311233e-09
2.2641348e-06
9.1753118e-05
3.208319e-09
1.491504e-06
9.1638678e-05
1.1102767e-09
9.8023003e-07
9.1583709e-05
1.5555166e-10
6.3770384e-07
9.1557413e-05
-2.8462827e-10
4.0319632e-07
-4.1946482e-10
2.4538628e-07
8.3061981e-05
-3.7208078e-06
5.6348295e-07
8.581764e-05
-3.2498478e-06
6.886458e-07
8.7671242e-05
-2.0883126e-06
4.7457186e-07
8.8848571e-05
-1.2258005e-06
8.3474125e-08
8.9579291e-05
-6.7169878e-07
-3.8771002e-07
9.0058148e-05
-3.424371e-07
-9.8740665e-07
9.0492795e-05
-1.5856057e-07
-1.7821691e-06
9.1082305e-05
-5.3999783e-08
-2.8851021e-06
9.2098574e-05
1.5389588e-08
-4.4668284e-06
9.3965571e-05
7.6664801e-08
-6.7672091e-06
9.7488616e-05
1.4852878e-07
-1.02093e-05
0.00010378836
1.9918021e-07
-1.4782807e-05
0.00011447996
2.2607791e-07
-2.0264941e-05
0.00011982777
-2.6168215e-08
-9.7932263e-06
0.0001221173
-1.5601655e-07
-3.180983e-06
0.00012250894
-1.6580434e-07
9.990795e-07
0.00012092156
-1.5283824e-07
5.0034377e-06
0.00011436815
-2.0369323e-07
1.2839922e-05
0.00010741456
-1.172387e-07
1.4182365e-05
0.00010119145
-5.1593946e-09
1.3073874e-05
9.6539923e-05
5.2864849e-08
1.045001e-05
9.3610533e-05
5.8818716e-08
7.4798338e-06
9.1952644e-05
4.2743202e-08
5.0612602e-06
9.1071494e-05
2.4829776e-08
3.351605e-06
9.0621235e-05
1.186904e-08
2.2072413e-06
9.039736e-05
4.3546198e-09
1.4525512e-06
9.0288143e-05
6.0733922e-10
9.5387786e-07
9.0235458e-05
-8.2542573e-10
6.200279e-07
9.0209973e-05
-1.2526455e-09
3.9155213e-07
-1.4061031e-09
2.3809859e-07
7.6996497e-05
5.2262572e-07
7.4442372e-05
6.2045129e-07
7.2853965e-05
4.18714e-07
7.1965631e-05
6.7511366e-08
7.1519283e-05
-3.4473352e-07
7.1359482e-05
-8.6380012e-07
7.1451781e-05
-1.546662e-06
7.1847794e-05
-2.4882776e-06
7.2720716e-05
-3.8291885e-06
7.4418549e-05
-5.757478e-06
7.7642348e-05
-8.6174556e-06
8.3263807e-05
-1.2299821e-05
9.2549438e-05
-1.6576453e-05
9.6414096e-05
-6.8659835e-06
9.7544751e-05
-1.4224105e-06
9.712474e-05
1.7871846e-06
9.532575e-05
4.7746795e-06
8.9197678e-05
1.138283e-05
8.3232049e-05
1.186759e-05
7.8278225e-05
1.0479317e-05
7.4863012e-05
8.0228805e-06
7.2866729e-05
5.5423366e-06
7.1803391e-05
3.6616358e-06
7.1263858e-05
2.3899205e-06
7.099837e-05
1.5591586e-06
7.0870663e-05
1.0189269e-06
7.0810199e-05
6.6486658e-07
7.0781849e-05
4.2894107e-07
7.0768123e-05
2.6785047e-07
1.6062641e-07
7.6604529e-05
3.7262721e-06
1.9182619e-07
7.3742717e-05
3.2625619e-06
2.1970339e-07
7.1966774e-05
2.0920844e-06
1.0257253e-07
7.092239e-05
1.2228896e-06
-1.1099458e-07
7.0325598e-05
6.6886179e-07
-4.1680509e-07
6.9964172e-05
3.4041425e-07
-8.4279032e-07
6.9734047e-05
1.5425411e-07
-1.4707933e-06
6.9648828e-05
3.9779913e-08
-2.4428415e-06
6.9880478e-05
-5.6558701e-08
-4.0042827e-06
7.0859524e-05
-1.6395507e-07
-6.5725727e-06
7.3599315e-05
-3.1904841e-07
-1.1038202e-05
7.9839828e-05
-4.0873027e-07
-1.8131607e-05
9.0958784e-05
-1.5442429e-08
-2.7679969e-05
8.247805e-05
1.6147545e-06
7.9745085e-05
1.3105624e-06
8.0636828e-05
8.9545468e-07
8.4657344e-05
7.5418129e-07
7.7336324e-05
1.041788e-06
1.7662112e-05
7.3591441e-05
4.6618329e-07
1.5146341e-05
7.1027776e-05
5.1552098e-08
1.2991472e-05
7.0137262e-05
-1.1735659e-07
9.0307746e-06
6.9951181e-05
-1.4277233e-07
5.8711988e-06
7.0006826e-05
-1.127696e-07
3.7187593e-06
7.013515e-05
-7.4619484e-08
2.3362114e-06
7.0271613e-05
-4.5303386e-08
1.4679926e-06
7.0391178e-05
-2.6320631e-08
9.2567691e-07
7.0486593e-05
-1.494087e-08
5.8438803e-07
7.055837e-05
-8.4548677e-09
3.6561543e-07
7.0610152e-05
-4.8966951e-09
2.2096178e-07
-3.8899642e-09
1.2526413e-07
8.263851e-05
1.4445069e-06
2.0673943e-07
8.5045985e-05
1.3014916e-06
2.4224167e-07
8.6680371e-05
8.1608656e-07
1.1618388e-07
8.7662923e-05
4.4670329e-07
-1.2289169e-07
8.8194877e-05
2.1793638e-07
-4.6874e-07
8.8410718e-05
9.1663573e-08
-9.5449894e-07
8.8428293e-05
2.8323885e-08
-1.6738151e-06
8.8380619e-05
-6.5902888e-09
-2.7910614e-06
8.8484216e-05
-3.4731716e-08
-4.5922539e-06
8.9204784e-05
-7.3035253e-08
-7.5786975e-06
9.1619687e-05
-1.3190361e-07
-1.2811348e-05
9.7964211e-05
-1.8608404e-07
-2.1349977e-05
0.00011113174
-5.5101866e-08
-3.339281e-05
0.0001022793
6.7397787e-07
9.978725e-05
6.2163225e-07
0.00010129279
3.8900389e-07
0.00010676161
2.8880969e-07
9.9183799e-05
3.8772319e-07
2.1071828e-05
9.511231e-05
1.9684078e-07
1.8523232e-05
9.180326e-05
1.6679155e-08
1.6417828e-05
9.0274965e-05
-5.9636727e-08
1.1920604e-05
8.967149e-05
-6.8060037e-08
8.0086065e-06
8.9489645e-05
-5.2206696e-08
5.1825452e-06
8.9501216e-05
-3.3524196e-08
3.2989394e-06
8.9594179e-05
-1.9631565e-08
2.0886059e-06
8.9708484e-05
-1.0978214e-08
1.3229028e-06
8.9815421e-05
-6.0118377e-09
8.3801003e-07
8.9903624e-05
-3.3136591e-09
5.2668166e-07
8.9970999e-05
-1.9863019e-09
3.2126533e-07
-1.597233e-09
1.8486013e-07
8.3246613e-05
-1.4444944e-06
2.0794802e-07
8.629733e-05
-1.30147e-06
2.4355862e-07
8.8289461e-05
-8.1607286e-07
1.1701392e-07
8.9391109e-05
-4.4670344e-07
-1.2270894e-07
8.9910089e-05
-2.1794525e-07
-4.6988015e-07
9.0062757e-05
-9.1674451e-08
-9.5748695e-07
9.0013659e-05
-2.8333375e-08
-1.6788567e-06
8.9909705e-05
6.5808016e-09
-2.7976997e-06
8.9969918e-05
3.472607e-08
-4.6014663e-06
9.0640113e-05
7.3030679e-08
-7.5884392e-06
9.2982782e-05
1.3189852e-07
-1.2823923e-05
9.9177547e-05
1.8607751e-07
-2.1373046e-05
0.00011217801
5.5101842e-08
-3.341959e-05
0.00010350449
-6.739755e-07
0.00010130564
-6.2162823e-07
0.00010287842
-3.8900298e-07
0.00010836195
-2.8881858e-07
0.00010086431
-3.8776035e-07
2.102901e-05
9.68394e-05
-1.9688063e-07
1.859351e-05
9.3448315e-05
-1.6712106e-08
1.657998e-05
9.1808722e-05
5.9612451e-08
1.2103518e-05
9.1116955e-05
6.8044254e-08
8.1689368e-06
9.0877948e-05
5.2195369e-08
5.3051056e-06
9.0858608e-05
3.351486e-08
3.3848826e-06
9.0937716e-05
1.9622659e-08
2.1457724e-06
9.1047282e-05
1.0972387e-08
1.3599877e-06
9.1153628e-05
6.0091164e-09
8.6186304e-07
9.1242764e-05
3.3103127e-09
5.4194307e-07
9.1311118e-05
1.977583e-09
3.3087866e-07
1.5796121e-09
1.9054574e-07
8.2638514e-05
-3.7262639e-06
2.0673805e-07
8.5045998e-05
-3.2625483e-06
2.4223999e-07
8.668039e-05
-2.0920758e-06
1.1618345e-07
8.7662941e-05
-1.2228897e-06
-1.2289087e-07
8.8194892e-05
-6.6886708e-07
-4.6873868e-07
8.8410729e-05
-3.4042068e-07
-9.5449764e-07
8.84283e-05
-1.5425968e-07
-1.6738139e-06
8.8380623e-05
-3.9784041e-08
-2.7910602e-06
8.8484218e-05
5.6556053e-08
-4.592253e-06
8.9204783e-05
1.6395343e-07
-7.5786971e-06
9.1619683e-05
3.1904678e-07
-1.2811348e-05
9.7964204e-05
4.0872715e-07
-2.1349978e-05
0.00011113173
1.544219e-08
-3.3392812e-05
0.00010227929
-1.6147527e-06
9.9787233e-05
-1.3105589e-06
0.00010129276
-8.9545335e-07
0.00010676157
-7.5418664e-07
9.9183797e-05
-1.0418108e-06
2.1071745e-05
9.5112329e-05
-4.6620986e-07
1.8523162e-05
9.1803286e-05
-5.1573854e-08
1.6417779e-05
9.0274986e-05
1.1734316e-07
1.1920579e-05
8.9671503e-05
1.427657e-07
8.0085955e-06
8.9489652e-05
1.1276538e-07
5.1825411e-06
8.9501219e-05
7.4614643e-08
3.2989384e-06
8.9594179e-05
4.5297912e-08
2.088606e-06
8.9708481e-05
2.6317389e-08
1.322904e-06
8.9815416e-05
1.4940418e-08
8.3801204e-07
8.9903615e-05
8.4543784e-09
5.2668445e-07
8.9970984e-05
4.8918853e-09
3.2126924e-07
3.8768881e-09
1.848654e-07
7.6604538e-05
1.9182426e-07
7.374274e-05
2.1970078e-07
7.1966807e-05
1.0257136e-07
7.0922423e-05
-1.1099416e-07
7.0325626e-05
-4.1680388e-07
6.9964194e-05
-8.4278892e-07
6.9734064e-05
-1.4707917e-06
6.9648842e-05
-2.4428394e-06
6.9880489e-05
-4.0042801e-06
7.0859534e-05
-6.5725691e-06
7.3599323e-05
-1.1038198e-05
7.9839832e-05
-1.8131603e-05
9.0958789e-05
-2.7679968e-05
8.2478053e-05
7.9745084e-05
8.0636815e-05
8.4657308e-05
7.7336326e-05
1.7662001e-05
7.3591459e-05
1.5146247e-05
7.1027792e-05
1.299141e-05
7.0137269e-05
9.0307466e-06
6.995118e-05
5.8711911e-06
7.0006819e-05
3.7187621e-06
7.0135136e-05
2.3362187e-06
7.0271592e-05
1.4680001e-06
7.0391152e-05
9.2568386e-07
7.0486566e-05
5.843936e-07
7.0558341e-05
3.6561988e-07
7.0610117e-05
2.2096627e-07
1.252697e-07
7.6464728e-05
3.7270757e-06
2.2567887e-11
7.3420625e-05
3.2637701e-06
3.6243221e-11
7.1431539e-05
2.0916336e-06
2.4884611e-11
7.0101647e-05
1.2188903e-06
7.4597442e-12
6.9022733e-05
6.6211216e-07
-3.0689601e-12
6.7850436e-05
3.2951262e-07
-6.5310217e-12
6.6244018e-05
1.3563124e-07
-6.7510563e-12
6.3795246e-05
5.9371397e-09
-6.0844142e-12
5.9917339e-05
-1.2636965e-07
-5.742253e-12
5.3640481e-05
-2.9570952e-07
-5.7385155e-12
4.3277284e-05
-6.7499983e-07
-5.9148816e-12
2.6275825e-05
-1.1301414e-06
-6.5556402e-12
-1.4041359e-06
-7.848944e-12
1.6027481e-05
1.6346125e-06
1.9103154e-11
3.1240739e-05
-6.6929506e-08
1.2224683e-11
4.4438093e-05
-2.0588612e-07
4.6557973e-12
5.3853343e-05
-3.8447428e-07
-1.2358888e-12
6.0084194e-05
-3.5964659e-07
-5.6439599e-12
6.4045407e-05
-2.4244483e-07
-9.0907453e-12
6.6520351e-05
-1.3872068e-07
-1.1636025e-11
6.8061868e-05
-7.3510609e-08
-1.3786647e-11
6.9024788e-05
-3.7226848e-08
-1.6582416e-11
6.9627291e-05
-1.809512e-08
-1.9903499e-11
7.0001735e-05
-8.8032253e-09
-2.4680854e-11
7.0227666e-05
-4.9383806e-09
-3.1498796e-11
-6.6087526e-09
-3.9620922e-11
8.2489389e-05
1.4443998e-06
2.6078323e-11
8.4693542e-05
1.301819e-06
3.9602976e-11
8.608555e-05
8.1578615e-07
2.4145917e-11
8.6736378e-05
4.4516888e-07
1.5425485e-12
8.6713996e-05
2.1576709e-07
-1.2907397e-11
8.600031e-05
8.8716715e-08
-1.7602341e-11
8.4438206e-05
2.3936972e-08
-1.6966979e-11
8.1669311e-05
-1.6214616e-08
-1.4406189e-11
7.7002152e-05
-5.1452617e-08
-1.1431779e-11
6.924009e-05
-1.1233652e-07
-8.4562081e-12
5.5992634e-05
-2.388858e-07
-5.6456933e-12
3.3976053e-05
-4.63534e-07
-3.1533778e-12
-8.2088956e-07
-3.760893e-12
2.1824665e-05
8.8177598e-07
-4.6361277e-13
4.0252e-05
2.8971117e-08
-2.7317159e-12
5.6601592e-05
-1.3764783e-07
-2.0355827e-12
6.8317928e-05
-1.8020278e-07
-3.5284552e-12
7.6135405e-05
-1.6851082e-07
-6.1138228e-12
8.1190599e-05
-1.1508382e-07
-9.8829099e-12
8.4416417e-05
-6.5584838e-08
-1.4224592e-11
8.6465746e-05
-3.4215061e-08
-1.9249729e-11
8.7768419e-05
-1.6971924e-08
-2.5277483e-11
8.8596403e-05
-8.0363845e-09
-3.2093595e-11
8.9118117e-05
-3.7965763e-09
-3.9366959e-11
8.9436778e-05
-2.2865357e-09
-4.734088e-11
-2.7860855e-09
-5.5556317e-11
8.3096712e-05
-1.4443893e-06
2.5250525e-11
8.5943851e-05
-1.3018e-06
3.8082495e-11
8.7692402e-05
-8.1577338e-07
2.2756849e-11
8.846003e-05
-4.4516839e-07
3.2729632e-13
8.8421706e-05
-2.1577477e-07
-1.420138e-11
8.7641681e-05
-8.8726495e-08
-1.9016564e-11
8.6010725e-05
-2.394535e-08
-1.8347013e-11
8.318062e-05
1.6206954e-08
-1.5572356e-11
7.8476265e-05
5.1447612e-08
-1.23042e-11
7.0663168e-05
1.1233114e-07
-9.0382419e-12
5.7361487e-05
2.3887804e-07
-6.0950056e-12
3.5061384e-05
4.6352581e-07
-3.6017127e-12
8.2090722e-07
-2.5833716e-12
2.2792454e-05
-8.8163656e-07
-3.1516117e-11
4.1443836e-05
-2.8870552e-08
-2.9934482e-11
5.77485e-05
1.3768386e-07
-1.5915487e-11
6.9491618e-05
1.8020672e-07
-1.0127185e-11
7.7323552e-05
1.685021e-07
-9.7693765e-12
8.2398515e-05
1.150713e-07
-1.2590952e-11
8.5652257e-05
6.5572462e-08
-1.6701248e-11
8.7729632e-05
3.4203773e-08
-2.1469846e-11
8.9055709e-05
1.6965648e-08
-2.7096743e-11
8.9901534e-05
8.0352381e-09
-3.3589652e-11
9.0435924e-05
3.7964562e-09
-4.0332956e-11
9.0762281e-05
2.282847e-09
-4.7192918e-11
2.775191e-09
-5.386893e-11
8.2489393e-05
-3.7270686e-06
2.4325726e-11
8.4693554e-05
-3.2637579e-06
3.7423092e-11
8.6085566e-05
-2.0916254e-06
2.3405002e-11
8.6736394e-05
-1.2188898e-06
2.240918e-12
8.6714009e-05
-6.6211672e-07
-1.1663963e-11
8.600032e-05
-3.2951852e-07
-1.649008e-11
8.4438213e-05
-1.3563629e-07
-1.6079547e-11
8.1669314e-05
-5.9408906e-09
-1.3790337e-11
7.7002152e-05
1.2636747e-07
-1.0875289e-11
6.9240088e-05
2.9570708e-07
-8.2484095e-12
5.5992628e-05
6.749951e-07
-6.069195e-12
3.3976046e-05
1.1301344e-06
-3.7973956e-12
1.4041429e-06
-1.8933299e-12
2.1824691e-05
-1.6345261e-06
-5.6923566e-11
4.0252046e-05
6.6987731e-08
-5.0761577e-11
5.660163e-05
2.0590443e-07
-2.5639891e-11
6.8317954e-05
3.8447586e-07
-1.4191327e-11
7.6135421e-05
3.5964131e-07
-1.0582568e-11
8.1190608e-05
2.4243707e-07
-1.1881822e-11
8.4416422e-05
1.3871206e-07
-1.4897809e-11
8.6465748e-05
7.3502249e-08
-1.9053738e-11
8.7768418e-05
3.7222675e-08
-2.3483716e-11
8.8596399e-05
1.8095639e-08
-2.9375839e-11
8.9118111e-05
8.8052033e-09
-3.5510274e-11
8.9436767e-05
4.9370687e-09
-4.1520619e-11
6.6001197e-09
-4.7350212e-11
7.6464736e-05
2.0078041e-11
7.3420646e-05
3.2768855e-11
7.1431569e-05
2.2993626e-11
7.0101677e-05
7.3417322e-12
6.9022759e-05
-2.4327863e-12
6.7850458e-05
-5.8870843e-12
6.6244036e-05
-6.0485124e-12
6.3795261e-05
-5.1478481e-12
5.9917352e-05
-4.1890052e-12
5.3640493e-05
-3.0182411e-12
4.3277292e-05
-2.1326318e-12
2.6275825e-05
-9.0424206e-13
-9.7822862e-14
1.6027529e-05
-5.3605443e-11
3.124081e-05
-4.6224137e-11
4.4438144e-05
-1.9665228e-11
5.3853374e-05
-7.1651879e-12
6.0084208e-05
-1.6318971e-12
6.4045407e-05
-1.6110716e-13
6.6520339e-05
-1.4771095e-12
6.8061846e-05
-4.0060447e-12
6.902476e-05
-8.00024e-12
6.9627263e-05
-1.3555275e-11
7.0001707e-05
-1.9423694e-11
7.0227636e-05
-2.5471339e-11
-3.1227671e-11
7.6464732e-05
3.7270751e-06
-1.917844e-07
7.3420635e-05
3.2637699e-06
-2.1963633e-07
7.1431552e-05
2.0916344e-06
-1.0252714e-07
7.0101658e-05
1.2188917e-06
1.1100957e-07
6.9022742e-05
6.6211366e-07
4.1679953e-07
6.7850443e-05
3.2951397e-07
8.4277847e-07
6.6244023e-05
1.3563236e-07
1.4707812e-06
6.3795248e-05
5.9382655e-09
2.4428308e-06
5.9917338e-05
-1.2636866e-07
4.0042728e-06
5.3640478e-05
-2.9570928e-07
6.572563e-06
4.3277282e-05
-6.7500134e-07
1.1038192e-05
2.6275824e-05
-1.1301444e-06
1.8131595e-05
-1.4041378e-06
2.7679954e-05
1.6027472e-05
1.6346382e-06
-1.7662091e-05
3.1240735e-05
-6.6921803e-08
-1.5146328e-05
4.4438088e-05
-2.0588147e-07
-1.2991467e-05
5.3853339e-05
-3.8447387e-07
-9.030778e-06
6.0084191e-05
-3.5964811e-07
-5.8712092e-06
6.4045405e-05