/*--------------------------------*- C++ -*----------------------------------*\
| =========                 |                                                 |
| \\      /  F ield         | OpenFOAM: The Open Source CFD Toolbox           |
|  \\    /   O peration     | Version:  2412                                  |
|   \\  /    A nd           | Website:  www.openfoam.com                      |
|    \\/     M anipulation  |                                                 |
\*---------------------------------------------------------------------------*/
FoamFile
{
    version     2.0;
    format      ascii;
    arch        "LSB;label=32;scalar=64";
    class       volScalarField;
    location    "10/bottomWater";
    object      T;
}
// * * * * * * * * * * * * * * * * * * * * * * * * * * * * * * * * * * * * * //

dimensions      [0 0 0 1 0 0 0];

internalField   nonuniform List<scalar> 
1460
(
300
300
300
300
300
300
300
300
300
300
300
300
300.00003
300.00002
300.00001
300
300
300
300
300
300
300
300
300
300
300
300
300
300
300
300
300
300
300
300
300
300
300
300
300
300
300
300.00001
300.00001
300
300
300
300
300
300
300
300
300
300
300
300
300
300
300
300
300
300
300
300
300
300
300
300
300
300
300
300
300
300
300
300
300
300
300
300
300
300
300
300
300
300
300
300
300
300
300
300
300
300
300
300
300
300
300
300
300
300
300
300
300
300
300
300
300
300
300
300
300
300
300
300
300
300
300
300
300
300
300
300
300
300
300
300
300
300
300
300
300
300.00023
300.00025
300.00022
300.00018
300.00012
300.00007
300.00004
300.00001
300
300
300
300
300
300
300
300
300
300
300
300
300
300
300
300
300
300
300
300
300.00004
300.00251
300.00258
300.00104
300.0004
300.00018
300.00009
300.00004
300.00001
300
300
300
300
300
300
300
300
300
300
300
300
300
300
300
300
300
300
300
300
300
300.00001
300.00122
300.00147
300.00068
300.00024
300.00009
300.00004
300.00001
300
300
300
300
300
300
300
300
300
300
300
300
300
300
300
300
300
300
300
300
300
300
300
300.00041
300.00054
300.00025
300.00008
300.00003
300.00001
300
300
300
300
300
300
300
300
300
300
300
300
300
300
300
300
300
300
300
300
300
300
300
300
300.00013
300.00018
300.00008
300.00002
300.00001
300
300
300
300
300
300
300
300
300
300
300
300
300
300
300
300
300
300
300
300
300
300
300
300
300
300.00003
300.001
300.0011
300.001
300.00081
300.00054
300.0003
300.00015
300.00006
300.00002
300.00001
300
300
300
300
300
300
300
300
300
300
300
300
300
300
300
300
300
300.00001
300.00121
300.08043
300.12469
300.08192
300.04341
300.02927
300.016
300.00676
300.00223
300.00059
300.00013
300.00002
300
300
300
300
300
300
300
300
300
300
300
300
300
300
300
300
300
300
300.0005
300.03861
300.06718
300.04976
300.02384
300.01417
300.00737
300.00311
300.00106
300.00029
300.00007
300.00001
300
300
300
300
300
300
300
300
300
300
300
300
300
300
300
300
300
300
300.00016
300.01449
300.02793
300.02058
300.00927
300.0054
300.00264
300.00103
300.00033
300.00008
300.00002
300
300
300
300
300
300
300
300
300
300
300
300
300
300
300
300
300
300
300
300.00005
300.00511
300.01058
300.0074
300.0032
300.00188
300.00087
300.00032
300.00009
300.00002
300
300
300
300
300
300
300
300
300
300
300
300
300
300
300
300
300
300
300
300
300.00001
300.00136
300.00752
300.00685
300.00556
300.00441
300.00273
300.00139
300.00061
300.00024
300.00008
300.00003
300.00001
300
300
300
300
300
300
300
300
300
300
300
300
300
300
300
300
300.00012
300.01449
301.03059
302.43695
303.31696
303.67375
303.7158
301.73146
300.63007
300.18676
300.04622
300.00984
300.00184
300.00031
300.00005
300.00001
300
300
300
300
300
300
300
300
300
300
300
300
300
300
300.00004
300.00596
300.50232
301.24261
301.68609
301.86679
301.88439
300.87067
300.3197
300.09707
300.02489
300.00553
300.00109
300.00019
300.00003
300
300
300
300
300
300
300
300
300
300
300
300
300
300
300
300.00001
300.0022
300.21136
300.59449
300.79402
300.86665
300.86937
300.36045
300.11974
300.03321
300.00784
300.00162
300.0003
300.00005
300.00001
300
300
300
300
300
300
300
300
300
300
300
300
300
300
300
300
300.00076
300.08304
300.26286
300.34401
300.36994
300.36911
300.13575
300.0403
300.01009
300.00217
300.00041
300.00007
300.00001
300
300
300
300
300
300
300
300
300
300
300
300
300
300
300
300
300
300.00023
300.0274
300.12895
300.1615
300.16662
300.16023
300.05129
300.01426
300.00379
300.00102
300.00028
300.00008
300.00002
300.00001
300
300
300
300
300
300
300
300
300
300
300
300
300
300
300
300.00068
300.08076
306.83212
307.45551
301.14311
300.22936
300.04889
300.01009
300.00194
300.00034
300.00005
300.00001
300
300
300
300
300
300
300
300
300
300
300
300
300
300
300.00024
300.03384
303.44994
303.81725
300.57912
300.11406
300.02432
300.00511
300.00101
300.00019
300.00003
300
300
300
300
300
300
300
300
300
300
300
300
300
300
300
300.00008
300.01376
301.63858
301.78329
300.2357
300.04128
300.00796
300.00153
300.00028
300.00005
300.00001
300
300
300
300
300
300
300
300
300
300
300
300
300
300
300
300.00002
300.00526
300.72133
300.76321
300.08426
300.01289
300.00223
300.00039
300.00007
300.00001
300
300
300
300
300
300
300
300
300
300
300
300
300
300
300
300
300.00001
300.00195
300.29728
300.32535
300.03279
300.00621
300.0016
300.00046
300.00013
300.00004
300.00001
300
300
300
300
300
300
300
300
300
300
300
300
300
300
300
300.00068
300.08076
306.83208
307.45552
301.14311
300.22936
300.04889
300.01009
300.00194
300.00034
300.00005
300.00001
300
300
300
300
300
300
300
300
300
300
300
300
300
300
300.00024
300.03384
303.44991
303.81729
300.57913
300.11406
300.02432
300.00511
300.00101
300.00019
300.00003
300
300
300
300
300
300
300
300
300
300
300
300
300
300
300
300.00008
300.01376
301.63858
301.78334
300.23571
300.04129
300.00796
300.00153
300.00028
300.00005
300.00001
300
300
300
300
300
300
300
300
300
300
300
300
300
300
300
300.00002
300.00526
300.72133
300.76326
300.08427
300.01289
300.00223
300.00039
300.00007
300.00001
300
300
300
300
300
300
300
300
300
300
300
300
300
300
300
300
300.00001
300.00195
300.29729
300.32538
300.0328
300.00622
300.0016
300.00046
300.00013
300.00004
300.00001
300
300
300
300
300
300
300
300
300
300
300
300
300
300
300
300.00012
300.01449
301.03058
302.43693
303.31695
303.67374
303.7158
301.73146
300.63007
300.18676
300.04622
300.00984
300.00184
300.00031
300.00004
300.00001
300
300
300
300
300
300
300
300
300
300
300
300
300
300
300.00004
300.00596
300.50231
301.2426
301.68608
301.86679
301.8844
300.87068
300.3197
300.09707
300.02489
300.00553
300.00109
300.00019
300.00003
300
300
300
300
300
300
300
300
300
300
300
300
300
300
300
300.00001
300.0022
300.21136
300.59449
300.79402
300.86666
300.86939
300.36046
300.11974
300.03321
300.00784
300.00162
300.0003
300.00005
300.00001
300
300
300
300
300
300
300
300
300
300
300
300
300
300
300
300
300.00076
300.08305
300.26286
300.34402
300.36996
300.36913
300.13576
300.04031
300.01009
300.00217
300.00041
300.00007
300.00001
300
300
300
300
300
300
300
300
300
300
300
300
300
300
300
300
300
300.00023
300.0274
300.12895
300.16151
300.16663
300.16025
300.05129
300.01427
300.00379
300.00102
300.00028
300.00008
300.00002
300.00001
300
300
300
300
300
300
300
300
300
300
300
300
300
300
300
300.00001
300.00121
300.08043
300.12469
300.08192
300.04341
300.02927
300.016
300.00676
300.00223
300.00059
300.00013
300.00002
300
300
300
300
300
300
300
300
300
300
300
300
300
300
300
300
300
300
300.0005
300.0386
300.06718
300.04976
300.02384
300.01417
300.00737
300.00311
300.00106
300.00029
300.00007
300.00001
300
300
300
300
300
300
300
300
300
300
300
300
300
300
300
300
300
300
300.00016
300.01449
300.02793
300.02058
300.00927
300.0054
300.00264
300.00103
300.00033
300.00008
300.00002
300
300
300
300
300
300
300
300
300
300
300
300
300
300
300
300
300
300
300
300.00005
300.00511
300.01058
300.0074
300.0032
300.00188
300.00087
300.00032
300.00009
300.00002
300
300
300
300
300
300
300
300
300
300
300
300
300
300
300
300
300
300
300
300
300.00001
300.00136
300.00752
300.00685
300.00556
300.00441
300.00273
300.00139
300.00061
300.00024
300.00008
300.00003
300.00001
300
300
300
300
300
300
300
300
300
300
300
300
300
300
300
300
300
300.00004
300.00251
300.00258
300.00104
300.0004
300.00018
300.00009
300.00004
300.00001
300
300
300
300
300
300
300
300
300
300
300
300
300
300
300
300
300
300
300
300
300
300.00001
300.00122
300.00147
300.00068
300.00024
300.00009
300.00004
300.00001
300
300
300
300
300
300
300
300
300
300
300
300
300
300
300
300
300
300
300
300
300
300
300
300.00041
300.00054
300.00025
300.00008
300.00003
300.00001
300
300
300
300
300
300
300
300
300
300
300
300
300
300
300
300
300
300
300
300
300
300
300
300
300.00013
300.00018
300.00008
300.00002
300.00001
300
300
300
300
300
300
300
300
300
300
300
300
300
300
300
300
300
300
300
300
300
300
300
300
300
300.00003
300.001
300.0011
300.001
300.00081
300.00054
300.0003
300.00015
300.00006
300.00002
300.00001
300
300
300
300
300
300
300
300
300
300
300
300
300
300
300
300
300
300
300
300.00003
300.00002
300.00001
300
300
300
300
300
300
300
300
300
300
300
300
300
300
300
300
300
300
300
300
300
300
300
300
300
300
300
300.00001
300.00001
300
300
300
300
300
300
300
300
300
300
300
300
300
300
300
300
300
300
300
300
300
300
300
300
300
300
300
300
300
300
300
300
300
300
300
300
300
300
300
300
300
300
300
300
300
300
300
300
300
300
300
300
300
300
300
300
300
300
300
300
300
300
300
300
300
300
300
300
300
300
300
300
300
300
300
300
300
300
300
300
300
300
300
300
300
300
300
300
300
300.00023
300.00025
300.00022
300.00018
300.00012
300.00007
300.00004
300.00001
300
300
300
300
300
300
300
300
300
)
;

boundaryField
{
    minX
    {
        type            fixedValue;
        value           uniform 300;
    }
    maxX
    {
        type            inletOutlet;
        inletValue      uniform 300;
        value           uniform 300;
    }
    minY
    {
        type            zeroGradient;
    }
    minZ
    {
        type            zeroGradient;
    }
    maxZ
    {
        type            zeroGradient;
    }
    bottomWater_to_rightSolid
    {
        type            compressible::turbulentTemperatureRadCoupledMixed;
        refValue        nonuniform List<scalar> 
130
(
300.01899
300.01125
300.00587
300.00275
300.00117
300.00046
300.00017
300.00006
300.00002
300.00001
300
300
300
300.06934
300.03896
300.01923
300.00853
300.00346
300.0013
300.00046
300.00016
300.00006
300.00002
300.00001
300.00001
300.00001
300.26849
300.14029
300.06466
300.027
300.01039
300.00374
300.00128
300.00043
300.00016
300.00007
300.00004
300.00003
300.00003
300.90728
300.42354
300.17798
300.06899
300.02502
300.00859
300.00284
300.00095
300.00035
300.00017
300.00011
300.00009
300.00008
302.4063
300.93964
300.3514
300.12563
300.04298
300.01415
300.00456
300.00151
300.00058
300.00029
300.0002
300.00017
300.00015
302.40648
300.93972
300.35144
300.12564
300.04298
300.01415
300.00456
300.00151
300.00058
300.00029
300.0002
300.00017
300.00015
300.90742
300.42361
300.17802
300.06901
300.02502
300.00859
300.00284
300.00095
300.00035
300.00017
300.00011
300.00009
300.00008
300.26857
300.14032
300.06468
300.027
300.01039
300.00374
300.00128
300.00043
300.00016
300.00007
300.00004
300.00003
300.00003
300.06937
300.03897
300.01924
300.00854
300.00346
300.0013
300.00046
300.00016
300.00006
300.00002
300.00001
300.00001
300.00001
300.019
300.01126
300.00587
300.00275
300.00117
300.00046
300.00017
300.00006
300.00002
300.00001
300
300
300
)
;
        refGradient     uniform 0;
        valueFraction   uniform 0.99248593;
        source          uniform 0;
        logInterval     -1;
        writePrecision  8;
        updateHeader    1;
        writeToFile     0;
        useUserTime     1;
        kappaMethod     fluidThermo;
        value           nonuniform List<scalar> 
130
(
300.01885
300.01117
300.00583
300.00273
300.00116
300.00045
300.00017
300.00006
300.00002
300.00001
300
300
300
300.06882
300.03867
300.01909
300.00847
300.00343
300.00129
300.00046
300.00016
300.00006
300.00002
300.00001
300.00001
300.00001
300.2665
300.13924
300.06418
300.02679
300.01031
300.00371
300.00127
300.00043
300.00016
300.00007
300.00004
300.00003
300.00003
300.90084
300.42046
300.17667
300.06848
300.02483
300.00852
300.00282
300.00094
300.00035
300.00017
300.00011
300.00009
300.00008
302.39064
300.93283
300.3488
300.1247
300.04266
300.01404
300.00453
300.0015
300.00057
300.00029
300.0002
300.00017
300.00015
302.39082
300.9329
300.34885
300.12471
300.04266
300.01404
300.00453
300.0015
300.00057
300.00029
300.0002
300.00017
300.00015
300.90099
300.42053
300.17671
300.0685
300.02484
300.00852
300.00282
300.00094
300.00035
300.00017
300.00011
300.00009
300.00008
300.26657
300.13928
300.0642
300.0268
300.01031
300.00371
300.00127
300.00043
300.00016
300.00007
300.00004
300.00003
300.00003
300.06885
300.03868
300.0191
300.00847
300.00344
300.00129
300.00046
300.00016
300.00006
300.00002
300.00001
300.00001
300.00001
300.01886
300.01117
300.00583
300.00273
300.00116
300.00046
300.00017
300.00006
300.00002
300.00001
300
300
300
)
;
    }
    bottomWater_to_leftSolid
    {
        type            compressible::turbulentTemperatureRadCoupledMixed;
        refValue        nonuniform List<scalar> 
130
(
300
300
300
300
300
300
300
300
300
300
300
300
300.00001
300
300
300
300
300
300
300
300
300
300
300.00001
300.00002
300.00003
300
300
300
300
300
300
300
300
300
300.00001
300.00003
300.00007
300.00013
300
300
300
300
300
300
300
300
300.00001
300.00004
300.00011
300.00027
300.00057
300
300
300
300
300
300
300
300.00001
300.00003
300.00008
300.00025
300.00072
300.00198
300
300
300
300
300
300
300
300.00001
300.00003
300.00008
300.00025
300.00072
300.00198
300
300
300
300
300
300
300
300
300.00001
300.00004
300.00011
300.00027
300.00057
300
300
300
300
300
300
300
300
300
300.00001
300.00003
300.00007
300.00013
300
300
300
300
300
300
300
300
300
300
300.00001
300.00002
300.00003
300
300
300
300
300
300
300
300
300
300
300
300
300.00001
)
;
        refGradient     uniform 0;
        valueFraction   uniform 0.99248593;
        source          uniform 0;
        logInterval     -1;
        writePrecision  8;
        updateHeader    1;
        writeToFile     0;
        useUserTime     1;
        kappaMethod     fluidThermo;
        value           nonuniform List<scalar> 
130
(
300
300
300
300
300
300
300
300
300
300
300
300
300.00001
300
300
300
300
300
300
300
300
300
300
300.00001
300.00002
300.00003
300
300
300
300
300
300
300
300
300
300.00001
300.00003
300.00007
300.00014
300
300
300
300
300
300
300
300
300.00001
300.00004
300.00011
300.00027
300.00077
300
300
300
300
300
300
300
300.00001
300.00003
300.00008
300.00025
300.00073
300.00418
300
300
300
300
300
300
300
300.00001
300.00003
300.00008
300.00025
300.00073
300.00418
300
300
300
300
300
300
300
300
300.00001
300.00004
300.00011
300.00027
300.00077
300
300
300
300
300
300
300
300
300
300.00001
300.00003
300.00007
300.00014
300
300
300
300
300
300
300
300
300
300
300.00001
300.00002
300.00003
300
300
300
300
300
300
300
300
300
300
300
300
300.00001
)
;
    }
    bottomWater_to_heater
    {
        type            compressible::turbulentTemperatureRadCoupledMixed;
        refValue        nonuniform List<scalar> 
92
(
300.04259
300.04031
300.03539
300.02776
300.16039
300.15262
300.13487
300.10536
300.64838
300.62173
300.55554
300.43351
466.74064
467.44145
467.44253
466.74513
408.63058
409.31415
409.31256
408.62776
363.94859
364.38818
364.37613
363.91843
333.97122
334.19279
334.14523
333.84393
302.36937
316.43631
302.29845
316.48711
302.09591
316.32913
301.65204
315.95679
466.74064
466.74513
408.63058
408.62776
363.94859
363.91843
333.97122
333.84393
316.43631
315.95679
466.74021
466.74021
467.44116
467.44233
466.74506
466.74506
408.62989
408.62989
409.3138
409.31244
408.62798
408.62798
363.9481
363.9481
364.38811
364.37634
363.91904
363.91904
333.97104
333.97104
334.19297
334.14566
333.84471
333.84471
316.43635
316.43635
316.4874
316.3296
315.95749
315.95749
302.36931
302.29857
302.09614
301.65233
300.64833
300.62177
300.55564
300.43364
300.16037
300.15263
300.1349
300.10541
300.04258
300.04031
300.0354
300.02778
)
;
        refGradient     uniform 0;
        valueFraction   uniform 0.99248593;
        source          uniform 0;
        logInterval     -1;
        writePrecision  8;
        updateHeader    1;
        writeToFile     0;
        useUserTime     1;
        kappaMethod     fluidThermo;
        value           nonuniform List<scalar> 
92
(
300.04227
300.04001
300.03512
300.02755
300.1592
300.15148
300.13386
300.10457
300.64356
300.61711
300.55141
300.43028
465.50599
466.20813
466.21187
465.52002
407.82362
408.50538
408.50514
407.82562
363.47252
363.9103
363.89888
363.44464
333.71792
333.93843
333.89142
333.59238
302.35253
316.31377
302.28238
316.36443
302.0814
316.20767
301.64081
315.83808
465.53892
465.54804
407.84014
407.84008
363.48032
363.45147
333.72134
333.59532
316.31502
315.83931
465.5385
465.50558
466.20784
466.21168
465.54797
465.51996
407.83945
407.82293
408.50503
408.50502
407.8403
407.82584
363.47984
363.47204
363.91022
363.89909
363.45207
363.44524
333.72116
333.71774
333.93861
333.89185
333.59609
333.59315
316.31506
316.31381
316.36472
316.20814
315.84
315.83877
302.35247
302.2825
302.08163
301.64111
300.64351
300.61715
300.55151
300.43042
300.15917
300.15149
300.1339
300.10462
300.04226
300.04001
300.03514
300.02757
)
;
    }
}


// ************************************************************************* //
