/*--------------------------------*- C++ -*----------------------------------*\
| =========                 |                                                 |
| \\      /  F ield         | OpenFOAM: The Open Source CFD Toolbox           |
|  \\    /   O peration     | Version:  2412                                  |
|   \\  /    A nd           | Website:  www.openfoam.com                      |
|    \\/     M anipulation  |                                                 |
\*---------------------------------------------------------------------------*/
FoamFile
{
    version     2.0;
    format      ascii;
    arch        "LSB;label=32;scalar=64";
    class       volVectorField;
    location    "10/bottomWater";
    object      U;
}
// * * * * * * * * * * * * * * * * * * * * * * * * * * * * * * * * * * * * * //

dimensions      [0 1 -1 0 0 0 0];

internalField   nonuniform List<vector> 
1460
(
(0.000914058 5.0990093e-05 3.5853006e-05)
(0.00090280147 4.4894738e-05 3.4660094e-05)
(0.00084449826 2.9466372e-05 2.4364693e-05)
(0.00080715399 1.7722849e-05 1.4974807e-05)
(0.00079007613 1.0182837e-05 7.8458396e-06)
(0.00078435866 5.7344641e-06 2.5026717e-06)
(0.00078596201 3.2421444e-06 -1.6458463e-06)
(0.00079364634 1.8406632e-06 -5.0353071e-06)
(0.00080732042 1.0059216e-06 -7.9523371e-06)
(0.00082730513 4.5673886e-07 -1.0335082e-05)
(0.00085399913 3.3097421e-08 -1.1639834e-05)
(0.00088680697 -3.1074351e-07 -1.0404259e-05)
(0.00092367795 -7.3982267e-07 -4.9543682e-06)
(0.0009536167 -8.0803622e-07 9.240354e-06)
(0.00096753024 -7.5180084e-07 1.9411409e-05)
(0.00096636245 -6.7028602e-07 2.2508733e-05)
(0.00095316199 -5.4827564e-07 2.2499611e-05)
(0.00092911003 -3.8407508e-07 2.2561512e-05)
(0.00089681641 -3.6314927e-07 2.0313258e-05)
(0.00086287654 -4.0965787e-07 1.6292453e-05)
(0.00083299094 -4.0024614e-07 1.2142097e-05)
(0.0008091848 -3.169838e-07 8.6779754e-06)
(0.00079120575 -2.1009127e-07 6.0657256e-06)
(0.00077808726 -1.2002558e-07 4.2020765e-06)
(0.00076874758 -5.8651097e-08 2.9087851e-06)
(0.00076221316 -2.1901727e-08 2.0173702e-06)
(0.0007577086 -9.2136822e-10 1.3998323e-06)
(0.00075465903 1.1073701e-08 9.6702827e-07)
(0.00075262817 1.1644878e-08 6.5484319e-07)
(0.00075094457 4.1897915e-08 4.7807644e-07)
(0.00097400561 4.6073826e-05 3.8584687e-05)
(0.00099651951 3.8709535e-05 3.997803e-05)
(0.00099054642 2.4745143e-05 2.8936481e-05)
(0.00098244943 1.3715193e-05 1.825336e-05)
(0.00098009833 6.679189e-06 9.8919718e-06)
(0.00098259961 2.8703291e-06 3.4540975e-06)
(0.00098934623 1.0507025e-06 -1.6184494e-06)
(0.001000795 2.2741769e-07 -5.8007252e-06)
(0.0010179804 -1.6159471e-07 -9.4820739e-06)
(0.001041954 -4.1065081e-07 -1.2675606e-05)
(0.0010735809 -6.4374162e-07 -1.4842287e-05)
(0.001112652 -8.6022299e-07 -1.435586e-05)
(0.0011571999 -9.7971565e-07 -9.0419066e-06)
(0.0011951338 -8.3173119e-07 6.6743996e-06)
(0.0012155004 -5.4591744e-07 1.9352047e-05)
(0.0012180504 -3.3572032e-07 2.448378e-05)
(0.0012059512 -1.4524664e-07 2.5401771e-05)
(0.0011801807 -3.2720416e-08 2.5996854e-05)
(0.0011434112 8.1708398e-09 2.4121693e-05)
(0.0011027563 -1.8677698e-08 1.9978425e-05)
(0.0010653341 -4.6992187e-08 1.533794e-05)
(0.001034495 -2.6480071e-08 1.1282001e-05)
(0.0010106299 2.1098879e-08 8.1075387e-06)
(0.00099291696 6.1963577e-08 5.7630299e-06)
(0.00098016255 8.1845325e-08 4.0828069e-06)
(0.00097117469 8.4058252e-08 2.8899073e-06)
(0.00096495003 7.665865e-08 2.0400238e-06)
(0.00096072014 6.698249e-08 1.4283129e-06)
(0.00095789883 6.1842775e-08 9.7605412e-07)
(0.00095558535 7.0823789e-08 7.0237676e-07)
(0.00097775526 1.1730168e-10 3.8219992e-05)
(0.001006857 1.9431458e-10 3.9760143e-05)
(0.0010070342 1.2470597e-10 2.8934403e-05)
(0.0010014858 1.2230366e-11 1.8348606e-05)
(0.00099928565 -5.2085334e-11 9.9810658e-06)
(0.0010010207 -5.8329231e-11 3.4907894e-06)
(0.0010068496 -3.9989296e-11 -1.6372842e-06)
(0.0010175335 -1.6380162e-11 -5.8652734e-06)
(0.0010341503 3.3057274e-12 -9.5828785e-06)
(0.0010577092 2.1665264e-11 -1.2807889e-05)
(0.0010890834 4.4190917e-11 -1.4996487e-05)
(0.0011280301 6.1677905e-11 -1.4535646e-05)
(0.0011726054 6.4632946e-11 -9.2803257e-06)
(0.0012107955 5.7803984e-11 6.3416447e-06)
(0.0012315791 4.5688808e-11 1.9056737e-05)
(0.00123456 1.5637877e-11 2.436829e-05)
(0.0012228513 -2.2967397e-11 2.5444817e-05)
(0.0011973117 -3.663049e-11 2.6158628e-05)
(0.0011605679 -4.0392435e-11 2.4367699e-05)
(0.0011196998 1.3586918e-11 2.0286382e-05)
(0.0010818592 6.6289053e-11 1.568409e-05)
(0.0010505122 6.9567587e-11 1.1622911e-05)
(0.0010261674 5.9928512e-11 8.4114907e-06)
(0.001008059 4.5628397e-11 6.0161243e-06)
(0.00099500013 2.514328e-11 4.2845423e-06)
(0.00098578858 2.0646386e-11 3.0451649e-06)
(0.00097940379 1.0601482e-11 2.1557151e-06)
(0.00097506309 -2.0030095e-11 1.5115113e-06)
(0.00097217156 -7.8904203e-11 1.032969e-06)
(0.00096981127 -1.4978547e-10 7.3815576e-07)
(0.00097400562 -4.6073642e-05 3.8584685e-05)
(0.00099651962 -3.8709221e-05 3.9978032e-05)
(0.00099054663 -2.474492e-05 2.8936493e-05)
(0.00098244967 -1.3715139e-05 1.8253378e-05)
(0.00098009854 -6.6792245e-06 9.8919941e-06)
(0.00098259977 -2.8703688e-06 3.4541212e-06)
(0.00098934633 -1.0507066e-06 -1.6184223e-06)
(0.001000795 -2.2738266e-07 -5.8006932e-06)
(0.0010179804 1.6167095e-07 -9.4820304e-06)
(0.001041954 4.1076783e-07 -1.2675561e-05)
(0.001073581 6.4391548e-07 -1.4842251e-05)
(0.0011126521 8.6044769e-07 -1.4355835e-05)
(0.0011571999 9.7997436e-07 -9.0418826e-06)
(0.0011951338 8.3199733e-07 6.6744404e-06)
(0.0012155005 5.4615916e-07 1.9352111e-05)
(0.0012180504 3.3589065e-07 2.4483889e-05)
(0.0012059512 1.4530627e-07 2.540193e-05)
(0.0011801807 3.2716729e-08 2.5997058e-05)
(0.0011434112 -8.1768731e-09 2.4121922e-05)
(0.0011027564 1.8796137e-08 1.997863e-05)
(0.0010653341 4.7252585e-08 1.533808e-05)
(0.0010344949 2.6776487e-08 1.1282086e-05)
(0.0010106298 -2.0836782e-08 8.1075944e-06)
(0.00099291689 -6.1769419e-08 5.7630814e-06)
(0.0009801625 -8.171265e-08 4.0828595e-06)
(0.00097117465 -8.3954655e-08 2.8899506e-06)
(0.00096494996 -7.6577645e-08 2.040051e-06)
(0.00096072002 -6.6955538e-08 1.4283233e-06)
(0.00095789864 -6.1922806e-08 9.7605696e-07)
(0.00095558508 -7.1048935e-08 7.0238651e-07)
(0.00091405803 -5.0990032e-05 3.5853009e-05)
(0.00090280165 -4.4894647e-05 3.4660111e-05)
(0.00084449862 -2.9466325e-05 2.436472e-05)
(0.00080715439 -1.7722864e-05 1.497484e-05)
(0.00079007647 -1.0182874e-05 7.8458758e-06)
(0.00078435892 -5.734501e-06 2.5027137e-06)
(0.0007859622 -3.2421718e-06 -1.6457961e-06)
(0.00079364649 -1.8406853e-06 -5.0352477e-06)
(0.00080732053 -1.0059317e-06 -7.9522679e-06)
(0.00082730525 -4.5673514e-07 -1.0335008e-05)
(0.00085399928 -3.306223e-08 -1.1639764e-05)
(0.00088680716 3.1080354e-07 -1.0404193e-05)
(0.00092367821 7.3989451e-07 -4.9543024e-06)
(0.00095361704 8.0809018e-07 9.2404375e-06)
(0.00096753064 7.5180064e-07 1.9411522e-05)
(0.00096636279 6.7019199e-07 2.2508896e-05)
(0.00095316223 5.4805833e-07 2.2499832e-05)
(0.00092911009 3.8378571e-07 2.2561772e-05)
(0.00089681628 3.6287157e-07 2.031352e-05)
(0.00086287629 4.0950697e-07 1.6292662e-05)
(0.00083299055 4.0024859e-07 1.2142235e-05)
(0.00080918439 3.1704681e-07 8.6780745e-06)
(0.00079120542 2.1014077e-07 6.0658127e-06)
(0.00077808699 1.2003378e-07 4.2021694e-06)
(0.00076874736 5.8642243e-08 2.9088752e-06)
(0.00076221296 2.1899024e-08 2.0174452e-06)
(0.00075770837 9.3655763e-10 1.3998809e-06)
(0.00075465876 -1.1061729e-08 9.6705052e-07)
(0.00075262782 -1.1672057e-08 6.5485154e-07)
(0.00075094406 -4.2005118e-08 4.7808818e-07)
(0.00094811348 5.33745e-05 3.9530811e-05)
(0.00095249358 4.9330521e-05 3.9357581e-05)
(0.00092667166 3.2619135e-05 2.7801208e-05)
(0.00090866398 1.9818417e-05 1.4578472e-05)
(0.00090206644 1.1535324e-05 2.6045501e-06)
(0.00090218309 6.4710826e-06 -8.1747432e-06)
(0.00090721839 3.5204055e-06 -1.8965697e-05)
(0.00091727429 1.7993662e-06 -3.0990996e-05)
(0.00093330755 7.0757567e-07 -4.5203169e-05)
(0.00095704905 -6.6091164e-08 -6.1970715e-05)
(0.00099107131 -7.0901368e-07 -8.0652995e-05)
(0.0010369043 -9.7873295e-07 -9.729418e-05)
(0.0010974522 -1.2296312e-06 -0.00010533969)
(0.0011407463 8.6356566e-07 -7.4452162e-05)
(0.0011461186 1.7617643e-06 -3.6440435e-05)
(0.0011342448 1.8053639e-06 -1.0099588e-06)
(0.0011166001 1.4229936e-06 3.1322296e-05)
(0.0010868689 1.5386049e-06 6.4267463e-05)
(0.0010443214 9.9045848e-07 7.9407094e-05)
(0.0010019426 2.4389574e-07 7.8424955e-05)
(0.00096737264 -2.2496013e-07 6.8123908e-05)
(0.00094142904 -3.5893126e-07 5.4392271e-05)
(0.00092261064 -3.1724345e-07 4.104105e-05)
(0.00090919785 -2.2496522e-07 2.9839576e-05)
(0.00089974995 -1.3839049e-07 2.115173e-05)
(0.00089316152 -7.3619438e-08 1.4700002e-05)
(0.00088862584 -3.0022847e-08 1.0023897e-05)
(0.00088556605 -2.1869271e-09 6.666935e-06)
(0.00088355594 1.0097253e-08 4.2468285e-06)
(0.00088198714 4.667553e-08 2.5697233e-06)
(0.0010156884 4.8523747e-05 4.2808385e-05)
(0.0010582068 4.2390488e-05 4.4467139e-05)
(0.0010902334 2.6750412e-05 3.1556373e-05)
(0.0011098259 1.4961632e-05 1.7029286e-05)
(0.0011229292 7.524804e-06 3.6228113e-06)
(0.0011337684 3.3392729e-06 -8.8090786e-06)
(0.0011452028 1.2449302e-06 -2.1427291e-05)
(0.0011595802 2.7112127e-07 -3.5558552e-05)
(0.0011792299 -2.1799206e-07 -5.2377181e-05)
(0.0012068454 -5.7688437e-07 -7.2461087e-05)
(0.0012458979 -9.4055998e-07 -9.533017e-05)
(0.0012991049 -1.2414671e-06 -0.00011688966)
(0.0013707908 -1.1449773e-06 -0.00012923402)
(0.0014273568 -4.5826864e-09 -9.7615759e-05)
(0.0014426301 8.562809e-07 -5.4392935e-05)
(0.0014350532 1.0603492e-06 -1.1913964e-05)
(0.0014177144 7.9679196e-07 2.8391476e-05)
(0.0013856783 6.0424738e-07 6.9372482e-05)
(0.0013373409 3.1133283e-07 9.1927842e-05)
(0.0012859807 -1.3903656e-07 9.5211829e-05)
(0.0012416481 -4.3362241e-07 8.5810536e-05)
(0.0012070142 -4.7285695e-07 7.05435e-05)
(0.0011812126 -3.7440363e-07 5.442785e-05)
(0.0011625378 -2.4948335e-07 4.0226471e-05)
(0.0011492909 -1.4644731e-07 2.8862991e-05)
(0.001140034 -7.5435384e-08 2.025134e-05)
(0.0011336607 -3.1248023e-08 1.3926001e-05)
(0.0011293607 -4.2628721e-09 9.348084e-06)
(0.0011265381 1.6269705e-08 6.0338618e-06)
(0.0011243671 4.365939e-08 3.7186545e-06)
(0.0010199852 1.3050252e-10 4.2922682e-05)
(0.0010697956 2.0700391e-10 4.4639259e-05)
(0.0011085253 1.1639806e-10 3.1756824e-05)
(0.0011311741 -2.2996571e-11 1.7220561e-05)
(0.0011447128 -1.0885375e-10 3.7311027e-06)
(0.0011548941 -1.2908112e-10 -8.8238155e-06)
(0.0011654314 -1.1825988e-10 -2.156667e-05)
(0.0011790256 -1.002781e-10 -3.581366e-05)
(0.0011980681 -7.7583322e-11 -5.2739756e-05)
(0.0012252463 -6.0974999e-11 -7.2960375e-05)
(0.001264012 -4.6743573e-11 -9.6002081e-05)
(0.0013170062 -4.2131865e-11 -0.00011780763)
(0.0013885762 -5.8474279e-11 -0.00013052833)
(0.0014456313 -9.3320034e-11 -9.9452568e-05)
(0.0014619408 -1.6394501e-10 -5.6254597e-05)
(0.0014552257 -2.6242267e-10 -1.3464168e-05)
(0.0014383179 -3.7366084e-10 2.7384995e-05)
(0.001406452 -4.3232967e-10 6.8920952e-05)
(0.0013580292 -4.2554588e-10 9.2121941e-05)
(0.0013062952 -3.0727757e-10 9.6035921e-05)
(0.0012613404 -1.7740898e-10 8.7044002e-05)
(0.0012259756 -1.1214306e-10 7.1883132e-05)
(0.0011995256 -8.866771e-11 5.5658632e-05)
(0.0011803547 -7.6829114e-11 4.1248966e-05)
(0.0011667527 -7.7550168e-11 2.9659221e-05)
(0.0011572502 -6.3211484e-11 2.084464e-05)
(0.0011507113 -5.0706759e-11 1.4354161e-05)
(0.0011463036 -6.6252007e-11 9.648115e-06)
(0.0011434156 -1.2219516e-10 6.2361548e-06)
(0.0011412013 -1.9713305e-10 3.8464768e-06)
(0.0010156885 -4.8523543e-05 4.280838e-05)
(0.001058207 -4.2390153e-05 4.4467139e-05)
(0.0010902336 -2.6750196e-05 3.1556386e-05)
(0.0011098261 -1.4961622e-05 1.7029312e-05)
(0.0011229295 -7.5249158e-06 3.6228435e-06)
(0.0011337685 -3.3394065e-06 -8.8090447e-06)
(0.0011452029 -1.2450369e-06 -2.1427256e-05)
(0.0011595802 -2.7119358e-07 -3.5558527e-05)
(0.00117923 2.1795861e-07 -5.2377132e-05)
(0.0012068454 5.768895e-07 -7.2461037e-05)
(0.0012458979 9.4061487e-07 -9.5330133e-05)
(0.0012991049 1.2415594e-06 -0.00011688963)
(0.0013707907 1.1450733e-06 -0.000129234)
(0.0014273567 4.6463452e-09 -9.7615744e-05)
(0.00144263 -8.5630929e-07 -5.4392895e-05)
(0.001435053 -1.0605361e-06 -1.1913882e-05)
(0.0014177141 -7.9717965e-07 2.8391599e-05)
(0.0013856782 -6.0476744e-07 6.9372597e-05)
(0.0013373409 -3.1186867e-07 9.1927947e-05)
(0.0012859808 1.3867683e-07 9.5211928e-05)
(0.0012416482 4.3350496e-07 8.5810611e-05)
(0.0012070142 4.7288074e-07 7.0543556e-05)
(0.0011812126 3.7446278e-07 5.4427894e-05)
(0.0011625378 2.4952081e-07 4.0226518e-05)
(0.0011492909 1.4645007e-07 2.886304e-05)
(0.001140034 7.5436225e-08 2.0251386e-05)
(0.0011336607 3.1253736e-08 1.392604e-05)
(0.0011293606 4.2326343e-09 9.3481099e-06)
(0.0011265378 -1.6404311e-08 6.0338838e-06)
(0.0011243668 -4.3954274e-08 3.7186762e-06)
(0.00094811352 -5.3374433e-05 3.9530805e-05)
(0.0009524938 -4.9330425e-05 3.9357583e-05)
(0.00092667208 -3.2619097e-05 2.7801232e-05)
(0.00090866446 -1.9818453e-05 1.4578519e-05)
(0.00090206685 -1.1535393e-05 2.6046081e-06)
(0.0009021834 -6.4711549e-06 -8.1746762e-06)
(0.00090721861 -3.5204712e-06 -1.8965623e-05)
(0.00091727446 -1.7994283e-06 -3.0990913e-05)
(0.00093330768 -7.0763363e-07 -4.5203074e-05)
(0.00095704917 6.60456e-08 -6.1970614e-05)
(0.00099107144 7.0899947e-07 -8.0652899e-05)
(0.0010369044 9.7874225e-07 -9.7294092e-05)
(0.0010974524 1.2296387e-06 -0.00010533961)
(0.0011407465 -8.6358759e-07 -7.4452089e-05)
(0.0011461189 -1.7618533e-06 -3.6440349e-05)
(0.001134245 -1.8055712e-06 -1.0098379e-06)
(0.0011166003 -1.4233462e-06 3.1322453e-05)
(0.0010868689 -1.539053e-06 6.4267584e-05)
(0.0010443213 -9.9091983e-07 7.9407184e-05)
(0.0010019424 -2.4423959e-07 7.8425011e-05)
(0.00096737236 2.2480248e-07 6.8123956e-05)
(0.00094142868 3.5888226e-07 5.439234e-05)
(0.00092261033 3.1721473e-07 4.1041145e-05)
(0.0009091976 2.2491197e-07 2.9839699e-05)
(0.00089974973 1.3832544e-07 2.1151858e-05)
(0.00089316131 7.3573907e-08 1.4700119e-05)
(0.00088862559 3.000698e-08 1.0023987e-05)
(0.00088556574 2.1767516e-09 6.6669957e-06)
(0.00088355553 -1.0142824e-08 4.2468709e-06)
(0.00088198652 -4.6812491e-08 2.5697587e-06)
(0.00094684509 5.3274459e-05 1.0709739e-05)
(0.00094878665 4.9344612e-05 1.2715658e-05)
(0.00092254909 3.2585274e-05 8.6043469e-06)
(0.00090387097 1.9751237e-05 1.7773931e-06)
(0.00089557703 1.1433125e-05 -6.4603531e-06)
(0.000892386 6.3092578e-06 -1.6090414e-05)
(0.0008921037 3.2588141e-06 -2.7951895e-05)
(0.00089495894 1.380672e-06 -4.3241329e-05)
(0.00090241538 3.6617914e-08 -6.3243422e-05)
(0.00091733884 -1.0790502e-06 -8.8973636e-05)
(0.00094651377 -2.3858758e-06 -0.00012127852)
(0.00099648128 -3.0500572e-06 -0.00015197882)
(0.0010981451 -4.1703883e-06 -0.00016363769)
(0.0011923548 -6.8555417e-08 -2.5648348e-05)
(0.0012226405 1.9878719e-06 3.3134466e-05)
(0.001221673 2.3462395e-06 6.2678983e-05)
(0.0012088702 2.0793568e-06 9.0365206e-05)
(0.0011623116 3.440078e-06 0.00014687612)
(0.0010796916 2.078877e-06 0.00014892445)
(0.0010049333 5.2002534e-07 0.00012992385)
(0.00095188948 -3.4683946e-07 0.00010242471)
(0.00091952312 -5.2637583e-07 7.5721977e-05)
(0.00090189302 -3.92179e-07 5.4079948e-05)
(0.00089294407 -2.1143736e-07 3.7953654e-05)
(0.00088852714 -7.9956353e-08 2.6341839e-05)
(0.00088637956 -7.3746748e-09 1.8093849e-05)
(0.00088535731 2.4497216e-08 1.2265619e-05)
(0.0008848796 3.4170655e-08 8.1375137e-06)
(0.00088465566 3.1352813e-08 5.1794211e-06)
(0.00088449624 2.6914605e-08 3.1358849e-06)
(0.0010147784 4.8463189e-05 1.1640577e-05)
(0.0010548797 4.2487696e-05 1.4296998e-05)
(0.0010861934 2.6751861e-05 9.9235191e-06)
(0.0011050027 1.4898489e-05 2.2786089e-06)
(0.0011161429 7.4342664e-06 -7.142643e-06)
(0.0011231654 3.2399856e-06 -1.830782e-05)
(0.0011284571 1.1212287e-06 -3.2179386e-05)
(0.0011343898 8.804046e-08 -5.0214057e-05)
(0.001143753 -5.0722341e-07 -7.4090946e-05)
(0.0011603829 -1.0613734e-06 -0.00010542297)
(0.001192146 -1.7638251e-06 -0.00014583712)
(0.0012476387 -2.5152045e-06 -0.00018755248)
(0.0013609646 -2.2534517e-06 -0.00020924452)
(0.0014757756 7.1503603e-07 -5.4287817e-05)
(0.0015239927 2.2188386e-06 2.2513089e-05)
(0.0015359476 2.1639713e-06 6.4227894e-05)
(0.0015287415 2.0539151e-06 0.00010081062)
(0.0014815697 2.1486657e-06 0.00016843882)
(0.0013904129 1.1472595e-06 0.00017899227)
(0.0012996135 -3.5305554e-07 0.00016212276)
(0.0012295344 -1.101777e-06 0.00013217763)
(0.0011834094 -1.0942579e-06 0.00010040699)
(0.0011565042 -7.8645103e-07 7.3153007e-05)
(0.0011420544 -4.70508e-07 5.2086649e-05)
(0.0011346188 -2.4305848e-07 3.6553362e-05)
(0.0011308792 -1.0860669e-07 2.5340886e-05)
(0.0011290404 -3.8962376e-08 1.7326366e-05)
(0.001128153 -6.3378437e-09 1.160439e-05)
(0.0011277277 6.980737e-09 7.4837324e-06)
(0.0011274544 1.2451441e-08 4.6057123e-06)
(0.0010191228 1.2247212e-10 1.1629846e-05)
(0.001066601 1.9565933e-10 1.4291943e-05)
(0.0011046422 1.0839362e-10 9.9265311e-06)
(0.0011264864 -2.8128979e-11 2.2885948e-06)
(0.0011380147 -1.147817e-10 -7.1488383e-06)
(0.0011443293 -1.3827562e-10 -1.8348066e-05)
(0.0011486739 -1.3292112e-10 -3.225799e-05)
(0.0011537762 -1.3378844e-10 -5.0323743e-05)
(0.001162461 -9.3587216e-11 -7.4239616e-05)
(0.0011785433 -7.8068768e-11 -0.00010561593)
(0.0012098532 -7.2723765e-11 -0.000146148)
(0.0012648605 -7.9439282e-11 -0.00018821472)
(0.0013774489 -9.2616905e-11 -0.0002104749)
(0.0014929069 -1.3483098e-10 -5.7941326e-05)
(0.0015428699 -2.0534532e-10 1.8555354e-05)
(0.0015566288 -3.0591638e-10 6.1516048e-05)
(0.0015504155 -4.1959779e-10 9.9393523e-05)
(0.0015038762 -5.3175694e-10 0.00016756229)
(0.0014129505 -5.6852179e-10 0.00017905166)
(0.0013215365 -4.6219314e-10 0.00016315565)
(0.0012501697 -3.1705752e-10 0.00013379426)
(0.001202656 -2.1744368e-10 0.00010210515)
(0.0011747049 -1.6377768e-10 7.4641093e-05)
(0.0011596023 -1.3163517e-10 5.327178e-05)
(0.0011518011 -1.1914626e-10 3.7445735e-05)
(0.0011478729 -9.2104774e-11 2.5989932e-05)
(0.0011459431 -6.7956634e-11 1.7787751e-05)
(0.0011450147 -7.5419598e-11 1.1925903e-05)
(0.0011445729 -1.1883572e-10 7.701123e-06)
(0.0011442926 -1.9077567e-10 4.7442673e-06)
(0.0010147784 -4.8462996e-05 1.1640562e-05)
(0.0010548799 -4.2487376e-05 1.4296982e-05)
(0.0010861936 -2.6751655e-05 9.9235199e-06)
(0.001105003 -1.4898485e-05 2.278625e-06)
(0.0011161431 -7.4343874e-06 -7.1426208e-06)
(0.0011231656 -3.2401321e-06 -1.8307798e-05)
(0.0011284571 -1.1213532e-06 -3.2179364e-05)
(0.0011343898 -8.8134181e-08 -5.0214033e-05)
(0.0011437531 5.0717059e-07 -7.4090927e-05)
(0.0011603829 1.0613574e-06 -0.00010542296)
(0.001192146 1.7638451e-06 -0.00014583713)
(0.0012476386 2.5152368e-06 -0.00018755251)
(0.0013609645 2.253483e-06 -0.00020924458)
(0.0014757755 -7.1504164e-07 -5.4287877e-05)
(0.0015239926 -2.2189331e-06 2.2513017e-05)
(0.0015359473 -2.1642137e-06 6.4227792e-05)
(0.0015287412 -2.0543503e-06 0.00010081047)
(0.0014815695 -2.149311e-06 0.00016843844)
(0.0013904128 -1.1479983e-06 0.00017899191)
(0.0012996137 3.5245055e-07 0.00016212249)
(0.0012295346 1.1014385e-06 0.00013217745)
(0.0011834095 1.0941163e-06 0.00010040691)
(0.0011565043 7.8639517e-07 7.3152979e-05)
(0.0011420545 4.7046576e-07 5.2086647e-05)
(0.0011346188 2.4300251e-07 3.655337e-05)
(0.0011308793 1.0856868e-07 2.5340901e-05)
(0.0011290404 3.89453e-08 1.7326387e-05)
(0.0011281529 6.2957853e-09 1.1604415e-05)
(0.0011277275 -7.1198696e-09 7.4837648e-06)
(0.0011274541 -1.2747185e-08 4.6057515e-06)
(0.00094684513 -5.3274395e-05 1.0709718e-05)
(0.00094878687 -4.9344519e-05 1.2715634e-05)
(0.0009225495 -3.2585237e-05 8.6043448e-06)
(0.00090387143 -1.9751273e-05 1.7774132e-06)
(0.00089557743 -1.1433198e-05 -6.4603223e-06)
(0.00089238631 -6.3093363e-06 -1.6090378e-05)
(0.00089210392 -3.2588866e-06 -2.7951856e-05)
(0.00089495912 -1.3807266e-06 -4.3241282e-05)
(0.00090241552 -3.6684455e-08 -6.3243365e-05)
(0.00091733897 1.0789944e-06 -8.8973567e-05)
(0.00094651389 2.3858423e-06 -0.00012127845)
(0.00099648139 3.0500273e-06 -0.00015197876)
(0.0010981452 4.1703475e-06 -0.00016363766)
(0.001192355 6.849665e-08 -2.5648385e-05)
(0.0012226406 -1.9879833e-06 3.3134358e-05)
(0.0012216732 -2.3464418e-06 6.2678785e-05)
(0.0012088702 -2.0796853e-06 9.0364908e-05)
(0.0011623115 -3.4405218e-06 0.0001468755)
(0.0010796915 -2.0793681e-06 0.00014892389)
(0.0010049333 -5.2043481e-07 0.00012992344)
(0.00095188938 3.4661556e-07 0.00010242448)
(0.00091952294 5.2627322e-07 7.5721909e-05)
(0.00090189283 3.9211079e-07 5.4079988e-05)
(0.00089294388 2.1135438e-07 3.7953744e-05)
(0.00088852695 7.9864949e-08 2.6341939e-05)
(0.00088637937 7.3101852e-09 1.8093944e-05)
(0.00088535706 -2.4525379e-08 1.2265699e-05)
(0.00088487929 -3.4188036e-08 8.1375733e-06)
(0.00088465524 -3.1410063e-08 5.1794673e-06)
(0.00088449562 -2.7061776e-08 3.1359271e-06)
(0.00094461745 5.3442937e-05 7.569975e-06)
(0.00094167878 4.9575158e-05 9.1893764e-06)
(0.00091234874 3.2665899e-05 6.0609644e-06)
(0.00089172381 1.9724201e-05 3.6594615e-07)
(0.00088166404 1.1408884e-05 -7.3134393e-06)
(0.00087639885 6.3105593e-06 -1.7520865e-05)
(0.00087301732 3.2442733e-06 -3.1687934e-05)
(0.00087107126 1.2530182e-06 -5.2440152e-05)
(0.00087194644 -4.0946112e-07 -8.4064785e-05)
(0.00087802585 -2.0164084e-06 -0.00013310641)
(0.00090279228 -4.3397914e-06 -0.00021256115)
(0.00095152253 -5.1122689e-06 -0.00032824647)
(0.0010705133 8.5838269e-07 -0.0004927661)
(0.0011308719 2.0546104e-05 -0.00025360896)
(0.00099321247 1.5459922e-05 -9.3384246e-05)
(0.0009857732 1.2197257e-05 -1.5610479e-06)
(0.0010382577 1.1501307e-05 8.0384774e-05)
(0.0010388711 1.5884847e-05 0.00027751671)
(0.0009321862 6.5053368e-06 0.00028946179)
(0.00089503018 9.9779569e-07 0.00026344636)
(0.00087842545 -1.3927767e-06 0.00019597367)
(0.0008735267 -1.8259135e-06 0.00013075396)
(0.00087377846 -1.4853593e-06 8.313357e-05)
(0.00087554136 -1.0094825e-06 5.2063266e-05)
(0.00087745745 -6.3066602e-07 3.2622832e-05)
(0.00087915372 -3.7681679e-07 2.0573443e-05)
(0.00088053369 -2.1932476e-07 1.3038376e-05)
(0.00088158681 -1.2605223e-07 8.2200464e-06)
(0.00088236588 -7.0199e-08 5.0371131e-06)
(0.00088311541 -5.6490132e-08 2.9582574e-06)
(0.0010125624 4.8463084e-05 8.1374687e-06)
(0.0010473719 4.262163e-05 1.0108725e-05)
(0.001074927 2.6788959e-05 6.7891378e-06)
(0.0010912767 1.4856807e-05 4.2998311e-07)
(0.0011001519 7.3900561e-06 -8.2814896e-06)
(0.0011044563 3.1988549e-06 -1.9987073e-05)
(0.0011057273 1.0421414e-06 -3.6337845e-05)
(0.0011053933 -1.375671e-07 -6.0391979e-05)
(0.0011056731 -1.1204441e-06 -9.7187095e-05)
(0.0011094257 -2.4456085e-06 -0.00015466683)
(0.0011309353 -4.4104323e-06 -0.00024820298)
(0.0011782445 -6.1569908e-06 -0.00038748875)
(0.0013009634 -1.4993459e-06 -0.00059131105)
(0.0013895205 2.2734626e-05 -0.00034137939)
(0.0012433909 2.0567031e-05 -0.00015284438)
(0.0012359831 1.2799545e-05 -3.1530135e-05)
(0.0013036038 9.5255834e-06 7.7893142e-05)
(0.001318412 1.2872512e-05 0.00031041432)
(0.0012061391 6.5192637e-06 0.00034437372)
(0.0011579435 5.9132744e-07 0.00032782323)
(0.0011329802 -1.8656653e-06 0.00025648568)
(0.0011218851 -2.1738831e-06 0.00017793891)
(0.0011183062 -1.681266e-06 0.00011612771)
(0.001118069 -1.0873804e-06 7.3885702e-05)
(0.0011191225 -6.415871e-07 4.6721505e-05)
(0.0011205907 -3.6144578e-07 2.9629968e-05)
(0.001122052 -1.9923275e-07 1.8863188e-05)
(0.0011233014 -1.103747e-07 1.1959536e-05)
(0.00112429 -6.6113658e-08 7.3994011e-06)
(0.0011252715 -5.1975539e-08 4.4012343e-06)
(0.0010168976 1.110404e-10 8.2046755e-06)
(0.0010590635 1.850385e-10 1.0192372e-05)
(0.0010933401 1.1020106e-10 6.8613763e-06)
(0.0011127253 -1.4889468e-11 4.8679737e-07)
(0.0011219835 -9.5772731e-11 -8.2523512e-06)
(0.0011255958 -1.1753671e-10 -1.9996981e-05)
(0.0011259676 -1.0901995e-10 -3.6384905e-05)
(0.0011248331 -9.061003e-11 -6.0456926e-05)
(0.0011244941 -7.6237791e-11 -9.7281779e-05)
(0.0011277038 -7.3657151e-11 -0.00015473211)
(0.0011484563 -8.4083541e-11 -0.0002482714)
(0.0011948462 -9.8075257e-11 -0.0003877478)
(0.0013140155 -3.5392915e-11 -0.00059176362)
(0.0014029756 -1.6066571e-11 -0.00034648703)
(0.001260901 -7.0532004e-12 -0.00015894473)
(0.0012555808 -3.8632763e-11 -3.5952069e-05)
(0.0013231303 -1.305775e-10 7.5774584e-05)
(0.0013389863 -3.9080106e-10 0.00030758427)
(0.0012278453 -4.0677027e-10 0.00034407987)
(0.0011791212 -3.5001515e-10 0.00032998738)
(0.0011528796 -2.6253995e-10 0.00025988145)
(0.0011404482 -1.9591802e-10 0.00018125334)
(0.0011359439 -1.5487566e-10 0.00011875486)
(0.0011351788 -1.2663014e-10 7.5749717e-05)
(0.0011359731 -1.1449218e-10 4.7971143e-05)
(0.0011373392 -8.1389774e-11 3.0448989e-05)
(0.0011387761 -4.9680045e-11 1.9396573e-05)
(0.0011400323 -5.0989465e-11 1.2305805e-05)
(0.0011410349 -9.0765924e-11 7.6213744e-06)
(0.0011420319 -1.5423017e-10 4.5364012e-06)
(0.0010125624 -4.8462907e-05 8.1374451e-06)
(0.001047372 -4.2621324e-05 1.0108698e-05)
(0.0010749273 -2.6788749e-05 6.7891328e-06)
(0.001091277 -1.4856781e-05 4.2999963e-07)
(0.0011001521 -7.3901469e-06 -8.2814636e-06)
(0.0011044564 -3.1989704e-06 -1.9987045e-05)
(0.0011057274 -1.0422345e-06 -3.6337815e-05)
(0.0011053933 1.3750952e-07 -6.0391934e-05)
(0.0011056731 1.1204241e-06 -9.7187072e-05)
(0.0011094257 2.4456125e-06 -0.00015466682)
(0.0011309353 4.4104399e-06 -0.00024820298)
(0.0011782444 6.1569813e-06 -0.00038748878)
(0.0013009633 1.4994157e-06 -0.0005913111)
(0.0013895204 -2.2734519e-05 -0.00034137947)
(0.0012433907 -2.056689e-05 -0.00015284453)
(0.0012359829 -1.2799439e-05 -3.1530308e-05)
(0.0013036033 -9.5255999e-06 7.7892923e-05)
(0.0013184116 -1.2872897e-05 0.00031041357)
(0.0012061393 -6.5197052e-06 0.00034437278)
(0.0011579439 -5.9170739e-07 0.00032782236)
(0.0011329805 1.8654453e-06 0.00025648513)
(0.0011218853 2.1737862e-06 0.00017793866)
(0.0011183063 1.6812234e-06 0.00011612762)
(0.0011180691 1.0873419e-06 7.3885682e-05)
(0.0011191225 6.4153652e-07 4.6721513e-05)
(0.0011205907 3.6142489e-07 2.962999e-05)
(0.001122052 1.9924596e-07 1.8863221e-05)
(0.0011233013 1.1037071e-07 1.1959578e-05)
(0.0011242898 6.6019331e-08 7.3994551e-06)
(0.0011252712 5.1732265e-08 4.4013048e-06)
(0.00094461748 -5.3442877e-05 7.5699424e-06)
(0.00094167897 -4.9575067e-05 9.1893339e-06)
(0.00091234911 -3.2665857e-05 6.0609488e-06)
(0.00089172425 -1.9724229e-05 3.6595956e-07)
(0.00088166443 -1.1408948e-05 -7.3134103e-06)
(0.00087639915 -6.3106311e-06 -1.7520831e-05)
(0.00087301755 -3.2443435e-06 -3.1687894e-05)
(0.00087107145 -1.2530861e-06 -5.2440101e-05)
(0.0008719466 4.0940295e-07 -8.4064725e-05)
(0.00087802599 2.0163565e-06 -0.00013310633)
(0.0009027924 4.339737e-06 -0.00021256106)
(0.00095152262 5.1121889e-06 -0.00032824638)
(0.0010705134 -8.5846046e-07 -0.00049276606)
(0.0011308719 -2.0546161e-05 -0.00025360905)
(0.00099321249 -1.5459962e-05 -9.3384467e-05)
(0.00098577314 -1.2197326e-05 -1.5613151e-06)
(0.0010382573 -1.1501449e-05 8.0384435e-05)
(0.0010388707 -1.5885128e-05 0.00027751556)
(0.00093218648 -6.5056687e-06 0.00028946041)
(0.00089503046 -9.9808042e-07 0.00026344517)
(0.00087842559 1.3926087e-06 0.000195973)
(0.00087352669 1.8258176e-06 0.00013075371)
(0.00087377836 1.485279e-06 8.3133563e-05)
(0.00087554119 1.0093805e-06 5.2063366e-05)
(0.00087745724 6.3055766e-07 3.2622956e-05)
(0.0008791535 3.7674384e-07 2.0573561e-05)
(0.00088053341 2.1929897e-07 1.3038473e-05)
(0.00088158646 1.2604257e-07 8.2201225e-06)
(0.00088236544 7.0154421e-08 5.0371824e-06)
(0.00088311478 5.6354895e-08 2.9583362e-06)
(0.00094388867 5.3461135e-05 2.2419805e-07)
(0.00093893379 4.958228e-05 -3.5542347e-07)
(0.00090710232 3.2642783e-05 -1.8240885e-06)
(0.00088347547 1.9644252e-05 -4.1067944e-06)
(0.00086883407 1.1272652e-05 -7.4915753e-06)
(0.00085584602 6.0849477e-06 -1.2799196e-05)
(0.00083938784 2.8558455e-06 -2.1440741e-05)
(0.00081514282 5.5626824e-07 -3.5860885e-05)
(0.0007779684 -1.8155411e-06 -6.0541885e-05)
(0.00071530395 -4.367387e-06 -0.00010381007)
(0.00062966423 -1.0689197e-05 -0.00018441078)
(0.00044102943 -1.5777816e-05 -0.00032133832)
(0.00023329731 -1.0283585e-05 -0.00048969753)
(0.00018314448 1.4607705e-05 0.00036230411)
(0.00024602169 -3.25318e-06 0.00027702329)
(0.00050624379 -1.6095472e-06 0.00021754086)
(0.00062023065 -4.9012291e-06 0.00014542243)
(0.00071639702 -4.5000146e-06 9.2314359e-05)
(0.00078042203 -2.9831865e-06 5.7918051e-05)
(0.00081939974 -1.7091499e-06 3.621816e-05)
(0.00084320463 -9.1318421e-07 2.2590173e-05)
(0.00085806337 -4.6540617e-07 1.4070207e-05)
(0.00086739262 -2.2748083e-07 8.7420085e-06)
(0.00087320867 -1.1107444e-07 5.3689053e-06)
(0.00087680657 -5.5283287e-08 3.1751202e-06)
(0.00087948929 -8.8956321e-08 1.7476026e-06)
(0.0010117903 4.8463247e-05 2.3144128e-07)
(0.0010444121 4.2638142e-05 -4.0570219e-07)
(0.0010691508 2.6785852e-05 -2.0256667e-06)
(0.0010820382 1.4812434e-05 -4.6015399e-06)
(0.0010856625 7.3239657e-06 -8.4368362e-06)
(0.0010811429 3.1051421e-06 -1.4466951e-05)
(0.0010674704 8.9501341e-07 -2.4312103e-05)
(0.0010415902 -3.9932552e-07 -4.0803813e-05)
(0.00099787097 -1.6764159e-06 -6.9164619e-05)
(0.00092193532 -3.7578937e-06 -0.00011936236)
(0.00081271408 -7.9667491e-06 -0.0002138941)
(0.00057236114 -1.5351484e-05 -0.00037952105)
(0.00030084034 -2.7323745e-05 -0.0005959496)
(0.00025539844 2.9422896e-05 0.00045313878)
(0.00032768558 1.0815533e-06 0.00035416221)
(0.00064261996 -4.0967953e-06 0.00028203816)
(0.000789639 -5.7783161e-06 0.00019486434)
(0.00090790951 -5.462167e-06 0.00012661619)
(0.00098896324 -3.7450295e-06 8.0640366e-05)
(0.0010394477 -2.144377e-06 5.0925847e-05)
(0.0010707986 -1.1260711e-06 3.196187e-05)
(0.0010906963 -5.6363293e-07 1.9975732e-05)
(0.0011034054 -2.7010037e-07 1.2436594e-05)
(0.0011114522 -1.2928581e-07 7.6616203e-06)
(0.0011164857 -7.7998393e-08 4.5703621e-06)
(0.0011202157 -9.1777833e-08 2.5642088e-06)
(0.0010161196 9.2333018e-11 2.1690113e-07)
(0.0010560914 1.6173858e-10 -4.3255851e-07)
(0.0010875469 1.0183204e-10 -2.0619963e-06)
(0.0011034487 -9.2691352e-12 -4.6479885e-06)
(0.0011074216 -8.5062624e-11 -8.500604e-06)
(0.0011021724 -1.0747272e-10 -1.4557766e-05)
(0.001087571 -1.0048971e-10 -2.4440409e-05)
(0.0010608468 -8.3293512e-11 -4.097542e-05)