/*--------------------------------*- C++ -*----------------------------------*\
| =========                 |                                                 |
| \\      /  F ield         | OpenFOAM: The Open Source CFD Toolbox           |
|  \\    /   O peration     | Version:  2412                                  |
|   \\  /    A nd           | Website:  www.openfoam.com                      |
|    \\/     M anipulation  |                                                 |
\*---------------------------------------------------------------------------*/
FoamFile
{
    version     2.0;
    format      ascii;
    arch        "LSB;label=32;scalar=64";
    class       volVectorField;
    location    "2.5";
    object      flux;
}
// * * * * * * * * * * * * * * * * * * * * * * * * * * * * * * * * * * * * * //

dimensions      [0 1 -1 1 0 0 0];

internalField   nonuniform List<vector> 
5712
(
(-0.311551 0.506994 0.286487)
(-0.380543 0.278547 0.87077)
(-0.712537 0.883719 0.217184)
(-1.11222 0.578274 0.952997)
(-1.07556 0.850733 0.119064)
(-2.09865 0.722915 1.01017)
(-0.744381 1.2554 0.203448)
(-2.23957 1.55365 1.60203)
(-0.768157 1.91004 0.332687)
(-1.79622 2.41647 2.01215)
(-0.944313 1.0113 0.340744)
(-1.55204 0.887934 1.42634)
(-0.722753 0.622807 0.363509)
(-0.954937 0.428826 1.2671)
(-0.388694 0.410742 0.358143)
(-0.394228 0.233815 1.08803)
(-0.504239 0.845344 0.168445)
(-0.569243 0.765386 0.0910504)
(-0.69319 0.763232 0.507649)
(-0.627735 0.757386 0.238942)
(-0.482625 0.970675 0.157168)
(-0.726664 0.933666 0.0719955)
(-0.720317 1.11977 0.547916)
(-0.721475 0.965764 0.22024)
(-0.203428 0.298905 0.218844)
(-0.146886 0.210216 0.160746)
(-0.275953 0.155556 0.646335)
(-0.196907 0.107617 0.471102)
(-0.461021 0.435711 0.146665)
(-0.297584 0.282048 0.114884)
(-0.853896 0.241356 0.650208)
(-0.593944 0.156383 0.490843)
(-0.71133 0.856224 0.32923)
(-0.719891 0.908175 0.119489)
(-0.720466 0.769959 0.248602)
(-0.725336 0.630638 0.0897814)
(-0.164006 0.623799 0.11324)
(-0.147812 0.485753 0.304691)
(-1.65855 0.527178 1.56537)
(-2.05151 0.503079 0.478536)
(-0.881773 0.705599 0.469379)
(-1.17747 0.69259 0.217174)
(-2.14113 1.43317 1.90233)
(-2.63493 1.57764 0.596692)
(-0.991891 1.02892 0.438759)
(-1.22054 1.0869 0.206586)
(-1.24069 0.738988 1.03494)
(-1.62264 0.581632 0.345106)
(-0.987859 0.756187 0.527159)
(-1.36939 0.531338 0.240434)
(-0.566911 0.321184 0.841128)
(-0.718799 0.276924 0.26759)
(-0.115273 0.238766 0.191739)
(-0.036423 0.351163 0.104063)
(-0.150129 0.11867 0.341717)
(-0.0519247 0.160313 0.137908)
(-0.257767 0.316722 0.169833)
(-0.105875 0.469302 0.107744)
(-0.448331 0.198726 0.358932)
(-0.164298 0.27066 0.135064)
(-0.292858 0.323701 0.228274)
(-0.0972358 0.562999 0.145136)
(-0.297498 0.246539 0.224865)
(-0.0841392 0.402483 0.0940269)
(-0.58598 0.0773195 0.402089)
(-0.170481 0.27077 0.144957)
(-0.76872 0.0136618 0.158392)
(-0.240743 0.194027 0.0584171)
(-0.993673 0.72747 0.490248)
(-0.566787 0.875549 0.36795)
(-0.841303 0.761388 0.297842)
(-0.581033 0.86546 0.266543)
(-1.02174 0.919805 0.55145)
(-0.65786 0.938325 0.4829)
(-0.811156 0.93534 0.299266)
(-0.657104 0.914044 0.319204)
(-0.649655 0.676376 0.275076)
(-0.468003 0.817579 0.23525)
(-0.711339 0.677684 0.357123)
(-0.448719 0.806826 0.30475)
(-0.817893 0.761941 0.222184)
(-0.604133 0.858039 0.1908)
(-0.845466 0.747221 0.129332)
(-0.620724 0.851723 0.110964)
(-0.795358 0.941028 0.222288)
(-0.673789 0.899765 0.221699)
(-0.826486 0.94038 0.127482)
(-0.688051 0.891613 0.127558)
(-0.671744 0.634562 0.212204)
(-0.497653 0.818505 0.165837)
(-0.724788 0.578651 0.12425)
(-0.517081 0.814529 0.0873331)
(-0.714907 0.693567 0.235602)
(-0.292454 0.738978 0.132497)
(-0.406217 0.873767 0.235827)
(-0.462213 1.21694 0.260979)
(-0.767824 0.725604 0.311868)
(-0.336341 0.850004 0.237644)
(-0.400963 0.868343 0.33651)
(-0.481281 1.32555 0.445445)
(-0.717995 0.656698 0.172658)
(-0.273552 0.656065 0.0737525)
(-0.42695 0.86959 0.151813)
(-0.457167 1.15764 0.15715)
(-0.74285 0.631379 0.0979893)
(-0.275663 0.603183 0.0341613)
(-0.449849 0.868552 0.069674)
(-0.462174 1.12859 0.060343)
(-0.111366 0.172885 0.217581)
(-0.124921 0.21732 0.441795)
(-0.0390762 0.470394 0.159336)
(-0.0767559 0.762443 0.500357)
(-0.321316 0.208103 0.235228)
(-0.376562 0.232193 0.447942)
(-0.131311 0.583362 0.190053)
(-0.248145 0.858114 0.533149)
(-0.522034 0.248951 0.311252)
(-0.619602 0.259059 0.445734)
(-0.23315 0.715001 0.264091)
(-0.416598 0.971589 0.5436)
(-0.695739 0.991438 0.348912)
(-0.367934 1.10813 0.422921)
(-0.69942 0.828318 0.266054)
(-0.833981 0.752623 0.266519)
(-0.416689 1.01323 0.327607)
(-0.271048 1.13021 0.278909)
(-0.433489 0.972297 0.304396)
(-0.489166 0.829961 0.417816)
(-0.84695 0.69679 0.486509)
(-0.532095 1.14244 0.714731)
(-0.394335 1.03602 0.376629)
(-0.514624 0.949756 0.30149)
(-0.567336 0.791591 0.285745)
(-0.545868 0.804321 0.362382)
(-0.678059 1.49058 0.579351)
(-0.123681 0.0628638 0.55116)
(-0.127114 0.0827388 0.533936)
(-0.0761686 0.167276 0.644516)
(-0.081424 0.3414 0.649153)
(-0.366858 0.0893316 0.538475)
(-0.351835 0.123525 0.539736)
(-0.234276 0.22315 0.64698)
(-0.238535 0.40093 0.644083)
(-0.550302 0.135163 0.497465)
(-0.507121 0.130585 0.516846)
(-0.346022 0.300429 0.621197)
(-0.348781 0.480138 0.627717)
(-0.386463 1.10676 0.351344)
(-0.432828 1.11293 0.373025)
(-0.611015 0.913892 0.340318)
(-0.648211 0.881866 0.3594)
(-0.674054 0.763782 0.41263)
(-0.634855 0.685816 0.412624)
(-0.796478 0.554528 0.481778)
(-0.733136 0.494733 0.468637)
(-0.543589 0.422934 0.607649)
(-0.542501 0.625323 0.614669)
(-0.518083 0.978185 0.320789)
(-0.567145 0.890622 0.351879)
(-0.667235 0.898707 0.360715)
(-0.616595 0.849791 0.384057)
(-0.625506 0.75356 0.401213)
(-0.529695 0.701971 0.432083)
(-0.557002 0.643084 0.461344)
(-0.451686 0.572584 0.505274)
(-0.613737 0.504591 0.606939)
(-0.491776 0.687842 0.65877)
(-0.566369 0.920283 0.374725)
(-0.311032 0.981956 0.255582)
(-0.443922 0.950891 0.303488)
(-0.435426 1.04564 0.306847)
(-0.625147 0.933013 0.421684)
(-0.732114 0.864543 0.481455)
(-0.638363 0.944612 0.342961)
(-0.835034 0.90774 0.45507)
(-0.373353 0.826287 0.277478)
(-0.371349 0.836903 0.283005)
(-0.511977 0.815513 0.352712)
(-0.24035 0.812429 0.252927)
(-0.427575 0.966304 0.127469)
(-0.67759 1.07053 0.22159)
(-0.440968 0.957954 0.0521804)
(-0.721527 1.05884 0.0824815)
(-0.647172 0.955372 0.212379)
(-1.0221 0.944549 0.337599)
(-0.667765 0.942941 0.0833617)
(-1.04363 0.936131 0.126524)
(-0.360277 0.818447 0.106284)
(-0.592792 0.830456 0.19366)
(-0.371419 0.828016 0.039565)
(-0.640673 0.835962 0.0704505)
(-0.442869 0.705077 0.263322)
(-0.333442 0.69801 0.225128)
(-0.563894 0.482486 0.268669)
(-0.25779 0.575349 0.167845)
(-0.481392 0.711001 0.370495)
(-0.18868 0.687523 0.263986)
(-0.534079 0.495832 0.420926)
(-0.138296 0.593838 0.280634)
(-0.458301 0.685911 0.12239)
(-0.473946 0.688222 0.143515)
(-0.589584 0.476885 0.152769)
(-0.305884 0.576506 0.0865658)
(-0.412233 0.691945 0.0947849)
(-0.544953 0.680529 0.103779)
(-0.540719 0.472417 0.105808)
(-0.388053 0.562881 0.080349)
(-0.119699 0.0721858 0.463269)
(-0.11206 0.0595484 0.304541)
(-0.0977908 0.0443527 0.0993632)
(-0.0771925 0.0405746 0.501849)
(-0.0758997 0.0352923 0.315276)
(-0.0669192 0.0348487 0.108899)
(-0.325494 0.107726 0.456531)
(-0.283446 0.0776932 0.297911)
(-0.2499 0.0613738 0.101037)
(-0.211063 0.0942636 0.501628)
(-0.178367 0.0850061 0.314491)
(-0.152059 0.0743549 0.106405)
(-0.427771 0.115653 0.436653)
(-0.366658 0.11377 0.28056)
(-0.337834 0.121947 0.0939459)
(-0.303601 0.170323 0.493646)
(-0.247489 0.149825 0.309864)
(-0.225984 0.13831 0.106454)
(-0.39148 1.07219 0.266035)
(-0.322136 0.965501 0.151169)
(-0.30826 0.889175 0.0390849)
(-0.607348 0.888887 0.313313)
(-0.458947 0.842022 0.213751)
(-0.376757 0.801047 0.069414)
(-0.542552 0.605223 0.358389)
(-0.403342 0.584775 0.252493)
(-0.316627 0.574356 0.0851144)
(-0.601321 0.426099 0.395544)
(-0.47709 0.407965 0.257092)
(-0.40583 0.400903 0.0841195)
(-0.459439 0.276723 0.478551)
(-0.316305 0.207291 0.300212)
(-0.238784 0.171059 0.106147)
(-0.731956 0.847388 0.294267)
(-0.602136 0.789891 0.160801)
(-0.539434 0.747059 0.0524873)
(-0.533773 0.841843 0.281482)
(-0.428036 0.792713 0.181661)
(-0.358798 0.763767 0.0628612)
(-0.46742 0.624701 0.315149)
(-0.355937 0.561878 0.207348)
(-0.283497 0.527031 0.0706869)
(-0.41414 0.447358 0.374152)
(-0.313529 0.399004 0.239874)
(-0.252121 0.377424 0.0817476)
(-0.441603 0.293426 0.453773)
(-0.267708 0.219784 0.263925)
(-0.169384 0.181365 0.0911992)
(-0.453768 1.12421 -0.0197329)
(-0.741571 1.16895 0.0395955)
(-0.383815 1.19451 0.0178595)
(-0.551544 1.09998 0.105471)
(-0.366588 1.09605 0.0702802)
(-0.756978 1.0988 0.0713041)
(-0.306272 1.30546 0.181448)
(-0.619994 1.12755 0.159314)
(-0.00812491 0.718278 0.0239932)
(-0.0693526 0.792381 0.0390127)
(0.00918134 0.71519 0.0254277)
(-0.0405716 0.705903 0.0409307)
(-0.14268 0.953259 0.0134976)
(-0.268319 0.840532 0.0377725)
(-0.0893989 0.931083 0.0250106)
(-0.161452 0.736521 0.0553967)
(-0.0744312 1.02599 0.0758235)
(-0.158414 1.07273 0.045385)
(-0.437765 0.880297 0.15295)
(-0.65443 0.99114 0.108102)
(-0.347846 1.15649 0.0701539)
(-0.256629 1.01285 0.115455)
(-0.461137 1.14234 0.116932)
(-0.40303 1.18448 0.0338227)
(-0.616273 1.20818 0.232985)
(-0.659301 1.29333 0.0743618)
(0.0214073 0.981646 -0.162953)
(0.216567 1.00605 -0.0226505)
(-0.333447 0.85429 0.0279745)
(-0.234756 0.841183 0.0291319)
(-0.258486 0.97596 0.00217729)
(-0.149122 0.941378 0.00876307)
(-0.0638224 0.661515 0.413792)
(-0.0409197 0.373545 0.184021)
(-0.0508562 0.617048 0.109961)
(-0.0309504 0.413571 0.0660507)
(-0.156558 0.641935 0.407787)
(-0.0514031 0.365498 0.186833)
(-0.0772532 0.593707 0.119942)
(-0.00933634 0.40011 0.0780667)
(-0.398526 0.587015 0.395249)
(-0.121727 0.337984 0.205305)
(-0.297659 0.551245 0.162153)
(-0.0928785 0.380081 0.116563)
(-0.337393 0.540928 0.124158)
(-0.10195 0.394975 0.0821217)
(-0.382102 0.519027 0.0704302)
(-0.126808 0.394362 0.0641312)
(-0.487969 0.902374 0.523664)
(-0.485311 0.716158 0.458136)
(-0.380632 0.880904 0.229855)
(-0.482641 0.718431 0.293772)
(-0.733993 1.00771 0.583478)
(-0.664056 0.90566 0.545071)
(-0.601924 1.0069 0.284113)
(-0.633102 0.887774 0.340938)
(-0.285585 0.812353 0.2107)
(-0.377962 0.566058 0.254275)
(-0.333006 0.847361 0.447123)
(-0.348297 0.549102 0.369803)
(-0.356891 0.895417 0.14657)
(-0.481202 0.719118 0.191865)
(-0.375522 0.918006 0.084926)
(-0.486634 0.716713 0.111902)
(-0.575157 1.02826 0.190164)
(-0.622463 0.880196 0.222348)
(-0.596341 1.04413 0.110222)
(-0.62789 0.875176 0.12769)
(-0.253032 0.788476 0.120351)
(-0.384509 0.571885 0.16792)
(-0.245598 0.781728 0.0681225)
(-0.390241 0.571191 0.102365)
(-0.0388206 0.482136 0.1892)
(-0.0652856 0.329586 0.136696)
(-0.309347 0.428181 0.215254)
(-0.181035 0.266975 0.147812)
(-0.0381614 0.446427 0.32443)
(-0.0564875 0.294314 0.197401)
(-0.270802 0.401699 0.2894)
(-0.15373 0.243755 0.194498)
(-0.0381039 0.492364 0.113048)
(-0.0587664 0.349876 0.093493)
(-0.327372 0.439583 0.149469)
(-0.199203 0.280023 0.101522)
(-0.0504338 0.49484 0.0640996)
(-0.0636311 0.363493 0.0591511)
(-0.331464 0.442311 0.0946398)
(-0.210299 0.287825 0.0625984)
(0.00611044 0.105877 0.485042)
(0.011565 0.0569215 0.329042)
(-0.0199267 0.194738 0.241447)
(-0.0145382 0.106269 0.25532)
(0.0312687 0.109524 0.480977)
(0.0518931 0.0659439 0.327498)
(-0.0336482 0.197162 0.23912)
(-0.0244833 0.117686 0.250589)
(-0.0523464 0.119461 0.486442)
(-0.0113802 0.0886112 0.313643)
(-0.108925 0.194975 0.244159)
(-0.0979351 0.136438 0.233042)
(0.307041 0.543668 0.527948)
(0.156373 0.908636 0.507203)
(0.177962 0.350539 0.495342)
(0.113541 0.316109 0.383728)
(-0.0085368 0.220046 0.225811)
(0.282897 0.930841 0.309284)
(0.415581 0.600591 0.375396)
(0.196154 0.335362 0.400026)
(0.194068 0.297268 0.37866)
(-0.00778159 0.169301 0.271138)
(-0.371495 0.897405 0.438928)
(-0.27512 0.65139 0.395926)
(-0.231107 0.47716 0.330767)
(-0.242374 0.347092 0.270308)
(-0.149696 0.206495 0.180637)
(0.0204212 0.0408205 0.287024)
(0.0161836 0.0401975 0.289354)
(-0.00894119 0.0713089 0.291188)
(-0.0142364 0.0674836 0.35791)
(0.0569374 0.0510603 0.284769)
(0.0646865 0.0398374 0.278947)
(-0.025685 0.0876168 0.284098)
(-0.035719 0.0802864 0.349446)
(0.0463248 0.0725536 0.269807)
(0.072511 0.0646783 0.26136)
(-0.0652413 0.107432 0.269302)
(-0.0811917 0.0964589 0.333319)
(0.125939 0.94738 0.347739)
(0.0682325 0.912225 0.32887)
(0.32406 0.606154 0.326813)
(0.232628 0.558862 0.282082)
(0.171071 0.38018 0.247648)
(0.124241 0.36973 0.249658)
(0.151449 0.290181 0.242375)
(0.126917 0.281713 0.255159)
(-0.0217139 0.155061 0.235122)
(-0.0563555 0.140258 0.313309)
(-0.195544 0.826105 0.254755)
(-0.134741 0.714514 0.288866)
(0.0194172 0.604407 0.214955)
(0.0908988 0.524992 0.245065)
(0.023348 0.451933 0.193865)
(0.0775011 0.416199 0.22265)
(-0.0237673 0.317898 0.193187)
(0.0213489 0.309738 0.233669)
(-0.0457236 0.191085 0.179576)
(-0.0644856 0.218748 0.287516)
(-0.163986 0.570622 0.189413)
(-0.182044 0.456322 0.151933)
(-0.391211 0.574947 0.129564)
(-0.248978 0.429501 0.0685193)
(-0.343989 0.725979 0.28887)
(-0.337081 0.54133 0.219678)
(-0.518597 0.734843 0.233415)
(-0.406772 0.530588 0.146942)
(-0.305192 0.46911 0.100243)
(-0.189813 0.382661 0.0576474)
(-0.105976 0.464616 0.14845)
(-0.134366 0.409006 0.134341)
(-0.463172 0.592576 0.169173)
(-0.196004 0.408724 0.0731287)
(-0.496519 0.596571 0.0790822)
(-0.180325 0.412363 0.0434831)
(-0.595887 0.769002 0.218731)
(-0.3913 0.543327 0.124699)
(-0.633756 0.765878 0.090201)
(-0.37496 0.546467 0.0621015)
(-0.367041 0.471749 0.138575)
(-0.139482 0.358633 0.0594174)
(-0.39862 0.478654 0.0707472)
(-0.12087 0.372773 0.0356072)
(-0.238616 0.33278 0.0868001)
(-0.198819 0.309247 0.104488)
(-0.19123 0.212664 0.109271)
(-0.332879 0.293694 0.185438)
(-0.121885 0.337836 0.130854)
(-0.161371 0.3248 0.160638)
(-0.129532 0.216564 0.132478)
(-0.281375 0.290236 0.241605)
(-0.262153 0.331391 0.103099)
(-0.187433 0.300217 0.0761823)
(-0.230039 0.206278 0.0797863)
(-0.381381 0.307173 0.132326)
(-0.313879 0.348494 0.0471325)
(-0.178838 0.302398 0.0193045)
(-0.267997 0.215058 0.0183766)
(-0.379199 0.303571 0.0341753)
(0.0230496 0.101107 0.229977)
(0.031495 0.0812218 0.105468)
(0.0373278 0.0637612 0.0303128)
(-0.00916608 0.383231 0.249623)
(0.00583579 0.187699 0.0665075)
(0.00832182 0.143836 0.0175416)
(0.084673 0.092598 0.222768)
(0.105305 0.0871426 0.10923)
(0.11459 0.0743012 0.0340394)
(-0.0141711 0.399607 0.247315)
(0.0248822 0.217674 0.0682691)
(0.030813 0.175567 0.0188592)
(0.101981 0.113915 0.20136)
(0.150082 0.121547 0.0993582)
(0.170903 0.122164 0.0255922)
(-0.0441923 0.417731 0.234614)
(0.0437631 0.266922 0.0630032)
(0.0622664 0.23411 0.014204)
(0.0395886 0.827654 0.222004)
(0.0619272 0.755677 0.120923)
(0.0562202 0.703367 0.0316986)
(0.184242 0.531859 0.18884)
(0.199671 0.503837 0.101032)
(0.186261 0.484353 0.0280425)
(0.143936 0.386682 0.187425)
(0.171787 0.374311 0.0938965)
(0.16725 0.367247 0.0266999)
(0.15152 0.340672 0.187043)
(0.195627 0.324212 0.0883752)
(0.204104 0.317107 0.0204069)
(-0.0281025 0.477152 0.221719)
(0.0637704 0.347174 0.0553621)
(0.0618836 0.311426 0.00937077)
(-0.157814 0.61391 0.24665)
(-0.0757646 0.555512 0.129404)
(-0.0424188 0.515811 0.0399343)
(0.0600121 0.469347 0.214771)
(0.111107 0.431819 0.116979)
(0.12755 0.409539 0.0384829)
(0.0681967 0.414365 0.196239)
(0.125101 0.37622 0.102813)
(0.139698 0.348152 0.0337276)
(0.0392384 0.398106 0.19122)
(0.109768 0.357436 0.078163)
(0.124856 0.335398 0.0210712)
(-0.081136 0.61367 0.229737)
(0.0432119 0.4317 0.0568165)
(0.052396 0.394714 0.0180089)
(-0.00318117 0.198161 0.0718724)
(0.000317033 0.118531 0.0276817)
(0.00164153 0.0877451 0.0131377)
(0.0034846 0.0839341 0.000339213)
(0.00443361 0.223254 0.0291268)
(0.00438598 0.128449 0.0118543)
(0.00514833 0.0915055 0.00611751)
(0.00531825 0.0860922 0.00118004)
(-0.00869527 0.192026 0.0743871)
(0.000356812 0.116539 0.0297069)
(0.0044047 0.0874029 0.0156583)
(0.00920911 0.0849303 0.00294763)
(0.0101592 0.221531 0.0353411)
(0.0100782 0.128758 0.0159761)
(0.0112294 0.0923989 0.0102456)
(0.0121215 0.0866143 0.00479633)
(-0.0176447 0.181107 0.08551)
(-0.00212338 0.113619 0.0355821)
(0.00478579 0.0879516 0.0205041)
(0.0141496 0.0834609 0.00635279)
(0.00154951 0.215209 0.0610586)
(0.00839223 0.129874 0.0316498)
(0.0101581 0.0946947 0.0181308)
(0.0139049 0.0848458 0.00848)
(0.00182384 0.226188 0.0452756)
(0.00549447 0.135501 0.0284584)
(0.00419119 0.095678 0.0141439)
(0.00466596 0.0903044 0.00470555)
(-0.00681045 0.232799 0.0473309)
(-0.000386453 0.141455 0.0325011)
(0.00214577 0.0998625 0.0192973)
(0.0049707 0.0939964 0.0108606)
(-0.0444449 0.193235 0.0718111)
(-0.0132008 0.120659 0.0342976)
(-0.00445202 0.0912301 0.0179131)
(0.00832035 0.0844982 0.00186692)
(-0.0668861 0.15301 0.0686248)
(-0.0210636 0.104202 0.0316726)
(-0.0118606 0.0844017 0.018559)
(0.0116176 0.0795418 -0.00165932)
(-0.037562 0.165848 0.0902744)
(-0.00999773 0.108229 0.038104)
(-0.00127547 0.0865703 0.0222187)
(0.0137549 0.0773076 0.00489651)
(-0.054587 0.135805 0.0812043)
(-0.016829 0.0960501 0.0336704)
(-0.010171 0.0804578 0.0204795)
(0.0116997 0.0755694 -0.00280874)
(-0.0410374 0.209433 0.0546416)
(-0.0127235 0.129718 0.0300634)
(-0.00437987 0.0950083 0.0158525)
(0.00701761 0.08903 0.00210169)
(-0.0737167 0.163636 0.0534658)
(-0.0233562 0.110581 0.028061)
(-0.0126225 0.087364 0.0172066)
(0.0143601 0.0821735 0.00279531)
(-0.0435762 0.218675 0.0407755)
(-0.0149215 0.13613 0.0262569)
(-0.00436234 0.0984317 0.0167486)
(0.00927591 0.0912106 0.00979503)
(-0.0772821 0.169668 0.0373204)
(-0.0247168 0.115286 0.0235347)
(-0.0133099 0.0900177 0.016299)
(0.0157438 0.0831791 0.0094144)
(-0.00322065 0.147473 0.0922976)
(-0.000183181 0.10177 0.0337725)
(0.000672667 0.0817188 0.0160012)
(0.00314869 0.0791058 -0.00345687)
(-0.00287083 0.0929736 0.0971101)
(-9.55203e-05 0.0816042 0.0329625)
(0.000136374 0.0738378 0.0175329)
(0.00329912 0.072901 -0.0106527)
(-0.00884816 0.142451 0.0920908)
(-0.000737578 0.0999581 0.034284)
(0.00189944 0.0814874 0.0173751)
(0.00833343 0.0790498 -0.00213805)
(-0.00513017 0.0920541 0.093254)
(0.000702603 0.0812625 0.0318325)
(0.000955754 0.0736837 0.0174897)
(0.00899919 0.0732912 -0.00990192)
(-0.0305505 0.134677 0.0928468)
(-0.00767125 0.0971528 0.0353004)
(-0.00112476 0.0812906 0.0200904)
(0.0128509 0.0784327 -3.99285e-05)
(-0.0240417 0.0946242 0.0836004)
(-0.00491214 0.0823534 0.0288522)
(-0.00102292 0.0737567 0.0173746)
(0.0143389 0.0747296 -0.00719853)
(-0.0160616 0.125997 0.0862946)
(-0.00154502 0.0927153 0.0340694)
(0.00258241 0.0793031 0.0222036)
(0.014047 0.0780199 0.00567645)
(-0.010869 0.0951398 0.0921599)
(-0.00039069 0.0823798 0.0327053)
(0.00047587 0.0748686 0.0224304)
(0.0139125 0.0747538 -0.00707172)
(-0.0465548 0.113171 0.0674218)
(-0.0130682 0.0879806 0.0265184)
(-0.00719561 0.0756227 0.0175313)
(0.015994 0.0727782 0.00175093)
(0.00134226 0.0321305 0.0808365)
(0.00124356 0.0623674 0.0242446)
(0.000959742 0.0581739 0.0129658)
(0.00259079 0.018191 -0.00998623)
(0.00528439 -0.0403701 0.0319049)
(0.00236919 0.0515688 0.00862066)
(0.00144015 0.0502493 0.00395265)
(0.00157959 0.0174822 -0.00240748)
(0.000472155 0.0390726 0.0797002)
(0.00238568 0.0649428 0.0246025)
(0.00187944 0.0592359 0.0134162)
(0.00683977 0.0192428 -0.00894192)
(0.0127723 -0.0296211 0.0324621)
(0.00610641 0.0546061 0.00908292)
(0.00360712 0.0511286 0.00440769)
(0.00419298 0.0177872 -0.0018424)
(-0.00450785 0.0501678 0.0746792)
(0.00166068 0.0687854 0.0239943)
(0.00203779 0.0602698 0.0140528)
(0.0107088 0.0191567 -0.00699602)
(0.0168555 -0.0130965 0.0311789)
(0.00872943 0.0594353 0.00918042)
(0.00540746 0.0522198 0.00497058)
(0.00643968 0.0178727 -0.00102165)
(-0.00623962 0.0652406 0.0628456)
(0.00212325 0.0734542 0.0206049)
(0.00258217 0.061687 0.0135521)
(0.0142059 0.0203793 -0.00484445)
(0.0166898 0.00548831 0.0274533)
(0.0101821 0.065251 0.0081462)
(0.00618282 0.0539554 0.0053488)
(0.00764863 0.0185179 4.05208e-05)
(-0.0157187 0.0858761 0.055113)
(0.000193821 0.0796332 0.0192958)
(-0.000277721 0.0642993 0.0133101)
(0.0139447 0.0227938 -0.00192623)
(0.00792523 0.0227663 0.0246545)
(0.00905344 0.0705669 0.00826556)
(0.00489243 0.0556496 0.00608597)
(0.00713992 0.0190474 0.00157432)
(-0.0482922 0.0995113 0.0434531)
(-0.0058682 0.086766 0.0188038)
(-0.00436495 0.0660124 0.0112787)
(0.0133355 0.0212181 0.000676918)
(-0.014949 0.0170218 0.0226171)
(0.00292567 0.0762214 0.0115524)
(0.00176038 0.0592125 0.00722654)
(0.00528628 0.0198379 0.00388101)
(-0.0324414 0.0978216 0.0463406)
(-0.00190706 0.0836349 0.0170509)
(-0.00263404 0.0644943 0.0112295)
(0.0134921 0.0213291 -0.000613087)
(-0.00626959 0.019944 0.0224056)
(0.00605363 0.0741046 0.00925617)
(0.00326937 0.0572837 0.00647105)
(0.00628968 0.0193175 0.00284513)
(-0.0616833 0.098297 0.0385924)
(-0.0113697 0.0890842 0.0202272)
(-0.00687806 0.0676347 0.0123043)
(0.0143631 0.0199617 0.00303055)
(-0.0208021 0.0119247 0.0230002)
(-0.000447557 0.0782169 0.013733)
(0.000149558 0.0608013 0.00851149)
(0.00474066 0.0199045 0.00534186)
(-0.0711233 0.0977079 0.0300572)
(-0.0173507 0.09219 0.0195807)
(-0.00987441 0.0705489 0.0132791)
(0.0142146 0.0206544 0.008034)
(-0.0264183 0.0185114 0.0213286)
(-0.00475761 0.0813948 0.0148562)
(-0.00191491 0.0630141 0.010127)
(0.00401425 0.0204988 0.00759378)
(0.0014102 0.0818264 0.000608596)
(0.000677753 0.0637937 0.0004953)
(0.000363947 0.0450818 0.000329364)
(0.000219284 0.0267392 0.000217413)
(0.000161337 0.00885139 0.000165338)
(0.00191938 0.0819859 0.000355376)
(0.00102493 0.0638574 0.000256694)
(0.000577476 0.0451333 0.000167669)
(0.000356127 0.0267688 0.000111125)
(0.000264028 0.00886074 8.51385e-05)
(0.00302356 0.0832843 0.00150162)
(0.00144157 0.0643148 0.00104005)
(0.000770597 0.0453222 0.000654741)
(0.000465708 0.0268487 0.000424451)
(0.000345312 0.00888308 0.000320486)
(0.00506275 0.0832031 0.00160687)
(0.00278829 0.064463 0.00102333)
(0.00159695 0.04544 0.000622458)
(0.000996598 0.0269137 0.000398637)
(0.000743538 0.00890344 0.000299909)
(0.00429502 0.0841816 0.00360151)
(0.00207386 0.0648811 0.00237684)
(0.00112893 0.04559 0.00146554)
(0.000690986 0.0269708 0.000947141)
(0.000515794 0.00891838 0.000715646)
(0.007267 0.0835938 0.0071787)
(0.00396208 0.0653157 0.0044037)
(0.00229113 0.0459022 0.00267089)
(0.00144221 0.0271384 0.00171384)
(0.00108076 0.00897069 0.00129039)
(0.00246593 0.0864451 0.00739131)
(0.00130258 0.0664699 0.00464574)
(0.000754564 0.0465561 0.00285331)
(0.00047721 0.0274708 0.00184187)
(0.000358284 0.00907232 0.00139185)
(0.00140569 0.08801 0.00804399)
(0.000710414 0.0675596 0.00489803)
(0.000400682 0.0472149 0.00297361)
(0.000251416 0.0278117 0.0019123)
(0.000187937 0.00917705 0.00144503)
(0.00379384 0.0864527 0.00479203)
(0.00172528 0.0660362 0.00318189)
(0.000943665 0.0461953 0.00198248)
(0.000582683 0.0272679 0.00128569)
(0.000433483 0.00900817 0.000968791)
(0.000891183 0.0889487 0.00378216)
(0.000259774 0.0664008 0.00250256)
(0.000111636 0.04626 0.00156153)
(6.12753e-05 0.0272813 0.00101616)
(4.36065e-05 0.00901036 0.000767034)
(0.00555584 0.0849717 0.00497309)
(0.00283682 0.0654932 0.00317679)
(0.00161345 0.0458721 0.0019461)
(0.00101119 0.0271004 0.00125907)
(0.000757199 0.00895613 0.000950349)
(0.00156051 0.0883453 0.00386589)
(0.000634913 0.066058 0.00224844)
(0.000332848 0.0460626 0.0013533)
(0.0002013 0.0271796 0.000873314)
(0.000147826 0.00897872 0.000656626)
(0.00137184 0.0875803 0.00537618)
(0.000375889 0.0666806 0.00372603)
(0.000150161 0.0465881 0.00234668)
(8.01543e-05 0.0274731 0.00152784)
(5.67485e-05 0.00907171 0.00115608)
(0.000927315 0.0899952 0.0052171)
(0.000290611 0.067036 0.00344686)
(0.000133336 0.0466409 0.00214759)
(7.70936e-05 0.0274798 0.00139548)
(5.6252e-05 0.00907192 0.00105492)
(0.00132224 0.0886278 0.00717158)
(0.00034448 0.0678203 0.0044734)
(0.000130855 0.047302 0.00272887)
(6.85022e-05 0.0278451 0.00175722)
(4.69098e-05 0.0091864 0.00132746)
(0.000679427 0.0912251 0.00688729)
(0.000103951 0.0681422 0.0043138)
(1.65715e-05 0.0473353 0.00263559)
(1.61409e-06 0.0278435 0.00169773)
(-1.62238e-06 0.00918461 0.00128088)
(0.00114865 0.0817529 0.000240461)
(0.000511864 0.0637567 0.000391364)
(0.000263132 0.0450299 0.000273306)
(0.000154177 0.0267074 0.000182006)
(0.000112057 0.0088412 0.000138887)
(0.00106316 0.0830714 -2.18341e-05)
(0.000480718 0.0638108 0.000146064)
(0.00024875 0.0450038 0.000107469)
(0.000145951 0.0266887 7.30459e-05)
(0.000106109 0.00883515 5.66585e-05)
(0.00263776 0.0827349 0.000771685)
(0.00115957 0.0641776 0.000690441)
(0.000598042 0.045214 0.00045128)
(0.000352119 0.0267881 0.000296182)
(0.000257538 0.00886403 0.00022571)
(0.00246779 0.0839678 9.24597e-05)
(0.00109118 0.0641888 0.00021485)
(0.000566736 0.0451661 0.000148803)
(0.000333927 0.0267591 9.95485e-05)
(0.000243193 0.00885505 7.72586e-05)
(0.0034381 0.0842347 0.00131519)
(0.0014182 0.0647435 0.00106559)
(0.000725531 0.0454539 0.000680067)
(0.000426131 0.0268934 0.0004459)
(0.000311987 0.00889383 0.000341129)
(0.00296749 0.0858279 0.000763196)
(0.00134054 0.0647312 0.000558919)
(0.000712973 0.0453891 0.000341179)
(0.000424453 0.0268563 0.000218221)
(0.000312547 0.00888246 0.000166851)
(0.00399392 0.0864619 0.00416077)
(0.00200599 0.0653656 0.00262408)
(0.00113208 0.0457191 0.0015897)
(0.00070417 0.027013 0.0010303)
(0.000527505 0.00892809 0.000782741)
(0.00196799 0.0877091 0.00207502)
(0.000979095 0.065241 0.00130451)
(0.000541831 0.0456263 0.000781552)
(0.000328771 0.026965 0.000504157)
(0.000245751 0.00891314 0.000383919)
(0.00230035 0.0878349 0.00532221)
(0.00120799 0.0657596 0.00289254)
(0.000695678 0.0459062 0.00169531)
(0.00043877 0.0271017 0.00108304)
(0.000329304 0.00895445 0.000814691)
(-0.0203642 0.329721 0.0942287)
(-0.0244157 0.509359 0.163457)
(-0.0560477 0.348181 0.088663)
(-0.0692619 0.524448 0.158492)
(-0.0856867 0.378866 0.0822864)
(-0.110657 0.549112 0.14731)
(-0.10426 0.415532 0.0799747)
(-0.146545 0.591593 0.14147)
(-0.10457 0.456574 0.0877124)
(-0.146778 0.664253 0.162315)
(-0.094306 0.423946 0.0509816)
(-0.123816 0.523301 0.075624)
(-0.0885264 0.43447 0.0714556)
(-0.106339 0.559324 0.113702)
(-0.105889 0.422278 0.0334324)
(-0.142903 0.517653 0.0450916)
(-0.109053 0.417587 0.012734)
(-0.148638 0.516581 0.0178514)
(-0.0192854 0.264176 0.278833)
(-0.00421418 0.0472474 0.0670499)
(-0.000915431 0.0103794 0.0153536)
(-0.000193867 0.00232951 0.00339559)
(-4.69701e-05 0.000410151 0.000848766)
(-0.00841143 0.314259 0.0742009)
(-0.00299124 0.0867004 0.0196505)
(-0.000334487 0.0210851 0.00525626)
(-9.3791e-05 0.00477627 0.00117551)
(-3.711e-05 0.000833648 0.000261453)
(-0.0622696 0.27075 0.277007)
(-0.0137076 0.0467002 0.0656777)
(-0.00299506 0.0100685 0.014927)
(-0.000639164 0.00223882 0.00327682)
(-0.000155984 0.000391919 0.000815258)
(-0.0218609 0.321221 0.0766447)
(-0.00465427 0.0873128 0.0222943)
(-0.000943037 0.0209581 0.00547328)
(-0.000183802 0.00468548 0.00126701)
(-3.93498e-05 0.000814869 0.000316727)
(-0.109787 0.282745 0.267821)
(-0.0243091 0.0469471 0.0623996)
(-0.00534239 0.00986771 0.0140259)
(-0.00115041 0.00216491 0.00305478)
(-0.000283217 0.000376398 0.000755642)
(-0.0381263 0.334625 0.0744056)
(-0.00901947 0.0889677 0.0215776)
(-0.00198507 0.0209656 0.00525703)
(-0.000430979 0.00463105 0.00120457)
(-0.000103782 0.000799583 0.000298257)
(-0.157758 0.297302 0.251974)
(-0.0351272 0.0470395 0.057542)
(-0.00779534 0.00963768 0.012813)
(-0.00169789 0.00209357 0.00277947)
(-0.0004232 0.000362888 0.000686878)
(-0.0534363 0.351905 0.0716546)
(-0.0137797 0.0910675 0.0203157)
(-0.00324179 0.0211265 0.00485018)
(-0.000740363 0.00463194 0.00109341)
(-0.000187043 0.000797292 0.000266894)
(-0.220445 0.309767 0.221702)
(-0.0504887 0.0470862 0.0498421)
(-0.0114437 0.00958275 0.0110843)
(-0.00253823 0.00209195 0.00241323)
(-0.000643648 0.000364838 0.000600278)
(-0.0710411 0.368073 0.0668862)
(-0.0207083 0.0929256 0.0180956)
(-0.00516679 0.0215221 0.00422149)
(-0.00121934 0.00474329 0.000939655)
(-0.000316433 0.000821037 0.000227233)
(-0.298319 0.302935 0.125078)
(-0.074574 0.0547025 0.0300063)
(-0.0178416 0.0123482 0.00690697)
(-0.00411855 0.00286319 0.001538)
(-0.00107682 0.00051703 0.00038908)
(-0.0822152 0.341355 0.0340151)
(-0.0254642 0.0970753 0.00863616)
(-0.0065676 0.024268 0.00187361)
(-0.001579 0.00565362 0.000385857)
(-0.00041675 0.00101562 8.77743e-05)
(-0.271318 0.307287 0.17427)
(-0.0657264 0.0517062 0.0406438)
(-0.0153464 0.0111237 0.00919075)
(-0.00347396 0.00250117 0.00202171)
(-0.000894293 0.000443402 0.000507409)
(-0.0797197 0.352807 0.0475214)
(-0.0248983 0.0956478 0.0124255)
(-0.00640983 0.0230077 0.00283786)
(-0.00153723 0.00520126 0.000623872)
(-0.00040226 0.00091568 0.000150057)
(-0.311261 0.300768 0.078476)
(-0.0788709 0.056701 0.0193077)
(-0.0191056 0.0131676 0.00450804)
(-0.00445917 0.00311537 0.00101347)
(-0.00117608 0.000569973 0.000257797)
(-0.0838483 0.338156 0.0217037)
(-0.0252643 0.0980177 0.00563356)
(-0.00641764 0.0250264 0.00120027)
(-0.00152586 0.00594353 0.000234851)
(-0.000401574 0.00108318 5.08129e-05)
(-0.32086 0.299177 0.0287869)
(-0.0810763 0.0559617 0.00716449)
(-0.0197273 0.0130533 0.00168533)
(-0.00463008 0.00311366 0.000381387)
(-0.0012275 0.000573441 9.75117e-05)
(-0.0837432 0.33632 0.0105133)
(-0.0253134 0.0973687 0.00247048)
(-0.00642638 0.0250345 0.000492684)
(-0.00141848 0.00599228 0.000133707)
(-0.000395815 0.00109811 1.87572e-05)
(-0.0103135 1.4047 -0.048405)
(-0.258098 1.95233 0.0252597)
(-0.253765 1.74846 0.165115)
(-0.144018 1.32186 -0.140805)
(0.145954 0.740362 0.0386681)
(0.200857 0.776791 0.0412416)
(0.405027 1.17964 0.10328)
(0.532375 1.18189 0.125949)
(0.229203 0.794783 0.085106)
(0.463744 0.847822 0.137487)
(0.0896855 1.26584 0.113445)
(0.281045 1.68353 0.171452)
(0.227466 1.86938 0.108092)
(0.377325 2.53451 0.14125)
(0.413688 0.953613 0.0516945)
(0.570396 1.04628 0.0754046)
(0.499065 0.771735 0.0564561)
(0.567505 0.751766 0.0657384)
(0.285016 0.53536 0.0394773)
(0.322382 0.549978 0.0409032)
(-0.753862 0.166727 0.114415)
(-0.564755 0.119554 0.090544)
(-0.180946 0.0344531 -0.0154245)
(-0.142036 0.027511 -0.0378731)