/*--------------------------------*- C++ -*----------------------------------*\
| =========                 |                                                 |
| \\      /  F ield         | OpenFOAM: The Open Source CFD Toolbox           |
|  \\    /   O peration     | Version:  2412                                  |
|   \\  /    A nd           | Website:  www.openfoam.com                      |
|    \\/     M anipulation  |                                                 |
\*---------------------------------------------------------------------------*/
FoamFile
{
    version     2.0;
    format      ascii;
    arch        "LSB;label=32;scalar=64";
    class       volScalarField;
    location    "2.5";
    object      gradTx;
}
// * * * * * * * * * * * * * * * * * * * * * * * * * * * * * * * * * * * * * //

dimensions      [0 -1 0 1 0 0 0];

internalField   nonuniform List<scalar> 
5712
(
-7788.78
-9513.57
-17813.4
-27805.4
-26888.9
-52466.3
-18609.5
-55989.2
-19203.9
-44905.5
-23607.8
-38800.9
-18068.8
-23873.4
-9717.35
-9855.71
-12606
-14231.1
-17329.7
-15693.4
-12065.6
-18166.6
-18007.9
-18036.9
-5085.7
-3672.16
-6898.82
-4922.67
-11525.5
-7439.59
-21347.4
-14848.6
-17783.3
-17997.3
-18011.6
-18133.4
-4100.15
-3695.31
-41463.7
-51287.7
-22044.3
-29436.7
-53528.2
-65873.1
-24797.3
-30513.5
-31017.2
-40566
-24696.5
-34234.8
-14172.8
-17970
-2881.83
-910.574
-3753.22
-1298.12
-6444.17
-2646.87
-11208.3
-4107.45
-7321.44
-2430.9
-7437.46
-2103.48
-14649.5
-4262.03
-19218
-6018.57
-24841.8
-14169.7
-21032.6
-14525.8
-25543.4
-16446.5
-20278.9
-16427.6
-16241.4
-11700.1
-17783.5
-11218
-20447.3
-15103.3
-21136.6
-15518.1
-19884
-16844.7
-20662.2
-17201.3
-16793.6
-12441.3
-18119.7
-12927
-17872.7
-7311.36
-10155.4
-11555.3
-19195.6
-8408.54
-10024.1
-12032
-17949.9
-6838.79
-10673.7
-11429.2
-18571.3
-6891.57
-11246.2
-11554.4
-2784.16
-3123.02
-976.905
-1918.9
-8032.9
-9414.05
-3282.78
-6203.62
-13050.8
-15490
-5828.74
-10415
-17393.5
-9198.34
-17485.5
-20849.5
-10417.2
-6776.2
-10837.2
-12229.2
-21173.7
-13302.4
-9858.39
-12865.6
-14183.4
-13646.7
-16951.5
-3092.03
-3177.85
-1904.21
-2035.6
-9171.44
-8795.87
-5856.89
-5963.39
-13757.5
-12678
-8650.55
-8719.54
-9661.58
-10820.7
-15275.4
-16205.3
-16851.3
-15871.4
-19912
-18328.4
-13589.7
-13562.5
-12952.1
-14178.6
-16680.9
-15414.9
-15637.7
-13242.4
-13925.1
-11292.1
-15343.4
-12294.4
-14159.2
-7775.79
-11098
-10885.7
-15628.7
-18302.9
-15959.1
-20875.8
-9333.82
-9283.73
-12799.4
-6008.75
-10689.4
-16939.7
-11024.2
-18038.2
-16179.3
-25552.5
-16694.1
-26090.7
-9006.93
-14819.8
-9285.47
-16016.8
-11071.7
-8336.06
-14097.4
-6444.75
-12034.8
-4716.99
-13352
-3457.39
-11457.5
-11848.6
-14739.6
-7647.11
-10305.8
-13623.8
-13518
-9701.34
-2992.48
-2801.49
-2444.77
-1929.81
-1897.49
-1672.98
-8137.35
-7086.14
-6247.5
-5276.59
-4459.17
-3801.47
-10694.3
-9166.46
-8445.86
-7590.03
-6187.22
-5649.59
-9787.01
-8053.39
-7706.51
-15183.7
-11473.7
-9418.94
-13563.8
-10083.6
-7915.68
-15033
-11927.2
-10145.8
-11486
-7907.63
-5969.6
-18298.9
-15053.4
-13485.9
-13344.3
-10700.9
-8969.94
-11685.5
-8898.43
-7087.44
-10353.5
-7838.21
-6303.01
-11040.1
-6692.69
-4234.61
-11344.2
-18539.3
-9595.38
-13788.6
-9164.7
-18924.5
-7656.8
-15499.9
-203.123
-1733.81
229.534
-1014.29
-3567
-6707.98
-2234.97
-4036.3
-1860.78
-3960.34
-10944.1
-16360.7
-8696.14
-6415.71
-11528.4
-10075.7
-15406.8
-16482.5
535.182
5414.18
-8336.17
-5868.9
-6462.15
-3728.06
-1595.56
-1022.99
-1271.4
-773.76
-3913.95
-1285.08
-1931.33
-233.408
-9963.15
-3043.19
-7441.47
-2321.96
-8434.82
-2548.75
-9552.56
-3170.19
-12199.2
-12132.8
-9515.81
-12066
-18349.8
-16601.4
-15048.1
-15827.5
-7139.61
-9449.05
-8325.15
-8707.42
-8922.29
-12030
-9388.05
-12165.9
-14378.9
-15561.6
-14908.5
-15697.3
-6325.8
-9612.72
-6139.95
-9756.02
-970.515
-1632.14
-7733.68
-4525.89
-954.036
-1412.19
-6770.05
-3843.24
-952.598
-1469.16
-8184.31
-4980.06
-1260.85
-1590.78
-8286.6
-5257.47
152.761
289.125
-498.167
-363.456
781.718
1297.33
-841.206
-612.081
-1308.66
-284.504
-2723.13
-2448.38
7676.02
3909.33
4449.05
2838.51
-213.42
7072.43
10389.5
4903.86
4851.7
-194.54
-9287.39
-6878
-5777.67
-6059.35
-3742.4
510.529
404.591
-223.53
-355.91
1423.43
1617.16
-642.124
-892.975
1158.12
1812.77
-1631.03
-2029.79
3148.47
1705.81
8101.51
5815.69
4276.79
3106.04
3786.23
3172.94
-542.848
-1408.89
-4888.6
-3368.51
485.429
2272.47
583.7
1937.53
-594.183
533.722
-1143.09
-1612.14
-4099.66
-4551.11
-9780.26
-6224.45
-8599.72
-8427.03
-12964.9
-10169.3
-7629.8
-4745.33
-2649.39
-3359.16
-11579.3
-4900.09
-12413
-4508.12
-14897.2
-9782.5
-15843.9
-9374.01
-9176.02
-3487.05
-9965.51
-3021.76
-5965.41
-4970.48
-4780.75
-8321.98
-3047.11
-4034.27
-3238.31
-7034.38
-6553.83
-4685.81
-5750.99
-9534.54
-7846.98
-4470.95
-6699.91
-9479.98
576.24
787.374
933.194
-229.152
145.895
208.045
2116.82
2632.63
2864.74
-354.276
622.055
770.325
2549.52
3752.06
4272.57
-1104.81
1094.08
1556.66
989.715
1548.18
1405.5
4606.04
4991.76
4656.53
3598.39
4294.67
4181.24
3787.99
4890.69
5102.6
-702.563
1594.26
1547.09
-3945.36
-1894.11
-1060.47
1500.3
2777.67
3188.76
1704.92
3127.52
3492.45
980.959
2744.19
3121.41
-2028.4
1080.3
1309.9
-79.5293
7.92582
41.0383
87.115
110.84
109.649
128.708
132.956
-217.382
8.9203
110.117
230.228
253.981
251.955
280.735
303.038
-441.117
-53.0846
119.645
353.74
38.7378
209.806
253.953
347.621
45.596
137.362
104.78
116.649
-170.261
-9.66132
53.6442
124.267
-1111.12
-330.019
-111.301
208.009
-1672.15
-526.59
-296.515
290.439
-939.049
-249.943
-31.8868
343.874
-1364.68
-420.725
-254.275
292.493
-1025.94
-318.089
-109.497
175.44
-1842.92
-583.906
-315.563
359.003
-1089.41
-373.038
-109.058
231.898
-1932.05
-617.92
-332.748
393.595
-80.5163
-4.57953
16.8167
78.7173
-71.7707
-2.38801
3.40934
82.478
-221.204
-18.4395
47.486
208.336
-128.254
17.5651
23.8938
224.98
-763.763
-191.781
-28.119
321.274
-601.043
-122.804
-25.573
358.473
-401.541
-38.6255
64.5601
351.176
-271.724
-9.76726
11.8968
347.813
-1163.87
-326.704
-179.89
399.849
33.5566
31.089
23.9936
64.7698
132.11
59.2298
36.0037
39.4897
11.8039
59.6421
46.9861
170.994
319.307
152.66
90.1781
104.824
-112.696
41.517
50.9448
267.72
421.387
218.236
135.187
160.992
-155.991
53.0812
64.5541
355.148
417.246
254.553
154.571
191.216
-392.966
4.84552
-6.94303
348.617
198.131
226.336
122.311
178.498
-1207.31
-146.705
-109.124
333.387
-373.725
73.1418
44.0095
132.157
-811.034
-47.6764
-65.851
337.303
-156.74
151.341
81.7343
157.242
-1542.08
-284.241
-171.952
359.078
-520.052
-11.1889
3.73895
118.516
-1778.08
-433.768
-246.86
355.364
-660.458
-118.94
-47.8727
100.356
35.255
16.9438
9.09868
5.48209
4.03343
47.9845
25.6233
14.4369
8.90318
6.60071
75.589
36.0392
19.2649
11.6427
8.6328
126.569
69.7073
39.9237
24.9149
18.5884
107.375
51.8466
28.2233
17.2746
12.8948
181.675
99.0519
57.2783
36.0553
27.019
61.6482
32.5644
18.8641
11.9302
8.95709
35.1424
17.7604
10.0171
6.28539
4.69843
94.8459
43.132
23.5916
14.5671
10.8371
22.2796
6.49436
2.79091
1.53188
1.09016
138.896
70.9205
40.3362
25.2798
18.93
39.0126
15.8728
8.32121
5.03249
3.69564
34.2959
9.39723
3.75403
2.00386
1.41871
23.1829
7.26528
3.3334
1.92734
1.4063
33.0559
8.61201
3.27138
1.71255
1.17274
16.9857
2.59876
0.414287
0.0403523
-0.0405596
28.7163
12.7966
6.5783
3.85442
2.80143
26.5791
12.0179
6.21874
3.64877
2.65273
65.9439
28.9892
14.9511
8.80298
6.43844
61.6948
27.2796
14.1684
8.34818
6.07982
85.9526
35.4549
18.1383
10.6533
7.79967
74.1873
33.5135
17.8243
10.6113
7.81367
99.8479
50.1497
28.3021
17.6042
13.1876
49.1997
24.4774
13.5458
8.21928
6.14378
57.5087
30.1999
17.392
10.9692
8.23261
-509.105
-610.392
-1401.19
-1731.55
-2142.17
-2766.43
-2606.49
-3663.62
-2614.25
-3669.44
-2357.65
-3095.4
-2213.16
-2658.48
-2647.23
-3572.57
-2726.33
-3715.95
-482.135
-105.354
-22.8858
-4.84668
-1.17425
-210.286
-74.781
-8.36219
-2.34478
-0.927751
-1556.74
-342.69
-74.8766
-15.9791
-3.89961
-546.523
-116.357
-23.5759
-4.59506
-0.983746
-2744.69
-607.726
-133.56
-28.7604
-7.08041
-953.157
-225.487
-49.6268
-10.7745
-2.59455
-3943.96
-878.18
-194.884
-42.4473
-10.58
-1335.91
-344.493
-81.0448
-18.5091
-4.67607
-5511.13
-1262.22
-286.093
-63.4559
-16.0912
-1776.03
-517.706
-129.17
-30.4835
-7.91083
-7457.97
-1864.35
-446.04
-102.964
-26.9204
-2055.38
-636.604
-164.19
-39.475
-10.4187
-6782.94
-1643.16
-383.66
-86.8489
-22.3573
-1992.99
-622.458
-160.246
-38.4307
-10.0565
-7781.52
-1971.77
-477.64
-111.479
-29.4021
-2096.21
-631.607
-160.441
-38.1465
-10.0393
-8021.5
-2026.91
-493.183
-115.752
-30.6874
-2093.58
-632.836
-160.659
-35.462
-9.89537
-257.839
-6452.44
-6344.13
-3600.45
3648.86
5021.41
10125.7
13309.4
5730.08
11593.6
2242.14
7026.13
5686.64
9433.12
10342.2
14259.9
12476.6
14187.6
7125.4
8059.56
-18846.6
-14118.9
-4523.66
-3550.89
-2773.91
-4467.28
-3111.37
-12383
-12248.1
-10484.5
-11144.8
-9217.3
-6389.87
-8739.74
-5403.84
-4152
-5153.51
-3301.97
-20420.6
-10230.8
-3098.3
-5166.6
-7750.29
-5291.4
-6296.15
-4765.75
-2337.63
-3962.98
-3443.16
-4010.11
-18941.4
-11834.7
-11903
-7599.41
-8105.47
-8113.22
-4119.76
-5267.53
-5391.73
-12876.7
-12411
-10797.3
-10925.1
-10185.5
-10139.4
-7618.48
-6421.59
-5437.2
-2540.78
-4010.21
-3336.75
-2510.3
-1567.77
-534.075
-3177.77
-2666.56
-2011.85
-1252.82
-425.662
-2465.66
-2052.52
-1536.18
-950.688
-322.045
-3998.71
-3354.01
-2526.36
-1569.5
-532.427
-2767.28
-2306.74
-1730.86
-1074.5
-364.722
-8291.12
-7126.29
-5799.39
-5539.97
-6156.01
-6747.88
-5393.66
-3880.91
-3220.95
-2748.44
-7291.28
-5009.94
-3836.73
-2923.69
-1319.2
-6045.78
-4559.93
-3190.11
-2531.21
-1802.12
-4683.35
-3280.88
-2193.36
-1819.91
-1098.09
-5099.58
-3847.63
-2747.04
-1718.48
-611.666
-6273.77
-4355.66
-3114.3
-2073.33
-838.236
-3792.93
-2497.93
-1696.36
-1077.07
-412.442
-3437.44
-2671.77
-1918.73
-1179.4
-405.819
-4161.02
-3147.15
-2216.53
-1348.77
-463.793
-2764.43
-2167.38
-1557.84
-950.617
-323.52
-14003.8
-11697.7
-9875.89
-9374.91
-8989.34
-7903.17
-5936.92
-4578.65
-3330.3
-1437.12
-2584.82
-2029.58
-1476.46
-920.419
-319.877
-4392.89
-3522.56
-2615.02
-1657.3
-580.415
-6420.33
-5059.44
-3807.84
-2517.91
-924.584
-4536.12
-3668.19
-2748.84
-1753.5
-610.902
-5493.06
-4503.46
-3378.06
-2127.44
-727.335
-4164.52
-3416.88
-2547.88
-1589.04
-543.338
-2019.76
-1633.12
-1196.39
-733.402
-248.288
-3491.25
-2881.31
-2145.21
-1326.57
-450.007
-2935.18
-2347.13
-1715.55
-1059.18
-362.204
-3478.14
-2832.35
-2100.26
-1307
-447.55
-12845.8
-11633.3
-10117.1
-9952.8
-9043.12
-8829.79
-6666.49
-5470.43
-4385.9
-2018.05
-9629.77
-7905.88
-6379.06
-5084.01
-2311.91
-6246.17
-4762.69
-3683.07
-2560.36
-827.406
-6858.3
-5458.03
-4131.72
-2704.93
-922.286
-6640.51
-5028.81
-3872.78
-2685.73
-844.399
-3565.65
-2900.98
-2161.57
-1357.48
-466.805
-4647.24
-3845.75
-2877.28
-1789.65
-609.158
-4660.12
-3791.23
-2832.36
-1786.63
-616.505
-6176.6
-13542.4
-10872.6
-35299.1
-10271.7
-46146.6
-6869
-18142.4
-8972.16
-7544.98
-17575.5
-13727.1
-9155.34
-11027.4
-19258.3
-16020.4
-3873.1
-2636.55
-8902.24
-6244.47
-6799.41
-3549.11
-24542
-17272.1
-14900.3
-10380.9
-15437.3
-10050
1663.04
-1472.01
-42420.3
-51646.7
-21404.8
-29336
-54153.1
-66115.8
-24020.2
-30326.2
-31677.9
-40943.6
-24078
-34214.7
-15223.8
-18389.8
-2077.51
-396.252
-4526.91
-1456.49
-3933.35
-1849.34
-12682.5
-4525.44
-1985.07
-935.315
-5577.2
-1541.68
-14713.8
-4231.24
-19396.8
-6061.59
-18216.5
-11149.4
-18789
-13001
-17765.8
-12654.1
-17692.1
-14592
-14738.8
-10574.2
-13520.8
-9082.19
-19548.7
-14392.3
-20913.7
-15313.6
-18825.1
-16022.8
-20369.3
-16962.9
-16243.5
-11903.1
-17995.7
-12770.8
-17029.7
-7122.01
-9369.95
-11267.8
-16590.6
-7766.24
-8471.41
-11493.7
-17706.5
-6781.79
-10303
-11282.1
-18541.8
-6886.08
-11137.4
-11510.8
-641.568
-478.06
107.14
-644.567
-2376.44
-2926.48
-1664.67
-4314.83
-3525.44
-4700.96
-3655.53
-7928.13
-16561.1
-15920.1
-13148.2
-15400.2
-9248.17
-10735.8
-8559.11
-7296.79
-15232.4
-12388.3
-12387.4
-11699.5
-11078.7
-10400.8
-15819.2
-678.913
-863.776
-430.4
-647.163
-2924.41
-2617.83
-3301.06
-3277.05
-2792.18
-1443.96
-5479.4
-5237.28
-11703.9
-12602.1
-10938.1
-10909.1
-9798.66
-8165.31
-13165.7
-11345.7
-11640.1
-11034
-15063.7
-15589.3
-14147.8
-12794.3
-11553.6
-9597.75
-10342.1
-8177.59
-13798.5
-10300.5
-13063.6
-7875.29
-10705.9
-10878.6
-16089.4
-19095.2
-16060.2
-21132.8
-8698.54
-9069.41
-11154.3
-5688.32
-10550.3
-16860.3
-10982.8
-18004.3
-16265
-25769.6
-16703.4
-26097.9
-8754.44
-14641.1
-9215.3
-15962.3
-10489.8
-8113.27
-13782.8
-6326.8
-10643.6
-4428.44
-12731.5
-3394.66
-11213.7
-11695
-14593.6
-7581.88
-10238.1
-13574.4
-13481.5
-9674.08
-1055.06
-802.515
-589.843
-728.419
-1990.03
-933.686
-2750.24
-2739.68
-374.16
-220.797
-4890.45
-4759.99
-13615.3
-11745.1
-10701.8
-8299.64
-6870.41
-4690.21
-9093.89
-6942.25
-9590.01
-6451.45
-19867
-16975.3
-10368.6
-8441.48
-7990.54
-5929.72
-6906.01
-4820.11
-7719.13
-3971.69
-5865.71
-11156.7
-5412.96
-10866.7
-7284.75
-11895.6
-8553.98
-13285.3
-1654.49
-1574.73
-1486.83
-1506.53
-4631.69
-4871.62
-4347.48
-4529.79
-2019.09
-2360.31
-9153.51
-10068.3
-5596.33
-6316.99
-10470.6
-9847.05
-14400.2
-16207.9
527.984
5247.56
-7797.11
-5824.74
-6253.91
-3762.16
-1411.89
-1346.49
-1537.41
-1318.25
-3173.44
-2172.3
-2524.58
-1585.37
-8349.24
-4203.81
-7808.33
-3828.5
-8577.6
-3407.27
-9640.4
-3521.91
-6739.01
-9714.43
-7583.14
-10743.3
-11329.5
-12851.6
-12589.1
-13978.8
-6069.85
-8848
-5311.6
-7873.77
-8135.21
-11467.1
-9154.17
-12004
-13338.1
-14763.6
-14601.8
-15466.6
-5911.5
-9366.82
-6020.28
-9687.82
-1153.69
-2141.95
-7776.37
-4823.7
-1327.96
-2275.56
-7019.47
-4287.02
-1171.41
-1875.24
-8228.29
-5193.08
-1354.79
-1759.36
-8286.34
-5352.06
-1298.68
-1483.83
-1366.07
-1568.31
-3181.59
-3557.89
-2441.68
-2840.18
-7704.59
-8376.12
-4571.59
-5067.7
-4262.68
-9430.38
-2949.11
-762.73
-1820.76
-4183.3
-1247.01
-2033.55
1579.58
-1283.15
-13659
-10110.9
-7967.45
-7908.66
-4664.99
-1793.6
-1982.35
-1844.5
-2290.78
-4228.78
-4566.49
-3383.75
-4280.07
-8922.42
-10101.9
-5133.82
-6586.75
-6182.89
-7503.24
-2244.17
-4263.49
-3597.22
-4912.44
-1269.09
-2144
-2368.09
-3659.45
-11291.6
-8826.94
-6328.66
-4361.4
-4883.64
-3356.76
-4826.22
-3374.43
-3021.45
-3760.84
-7594.52
-8106.17
-11409.1
-7795.81
-11228.8
-11234.8
-13986
-11411.7
-9577.83
-6369.98
-6077.73
-6785.24
-12376.8
-5800.92
-12633.1
-4720.9
-15367.4
-10519.4
-15956.7
-9527.28
-10181.9
-4417.24
-10258.3
-3263.61
-7883.44
-6520.49
-6507.22
-10149.4
-6061.08
-7065.07
-5439.43
-9915.33
-7592.71
-5617.36
-6801.24
-10640.4
-8169.86
-4755.59
-7038.52
-9772.67
-1676.1
-1742.42
-1644.13
-1302.32
-4964.98
-5595.12
-2661.61
-1500.28
-10935.4
-9049.14
-3996.78
-498.696
-9369.23
-8110.33
-6078.32
-5035.15
-5188.25
-4090.96
-2065.46
-930.614
-2599.18
620.74
-8441.98
-6990.37
-4186.6
-2885.66
-2875.69
-1364.12
-2403.54
-646.959
-4335.94
432.885
-321.777
-136.733
-45.4793
38.3552
-342.847
-174.823
-50.8451
19.7101
-829.893
-356.397
-98.7911
128.341
-784.26
-408.638
-155.657
-5.44451
-1253.2
-540.997
-184.719
181.556
-1226.78
-617.26
-348.3
-129.548
-731.753
-387.875
-250.352
-92.0092
-508.251
-244.879
-106.417
25.5483
-1565.73
-624.239
-337.193
30.8202
-1823.23
-591.563
-356.995
296.088
-1582.65
-626.398
-325.906
64.6233
-1559.03
-505.965
-332.247
298.484
-1375.59
-551.008
-256.637
120.922
-1958.57
-636.395
-372.436
331.086
-1239.88
-475.93
-177.271
198.082
-1982.75
-643.172
-355.354
386.748
-303.051
-116.139
-43.7693
56.0608
-304.35
-101.57
-55.1434
62.972
-786.789
-306.025
-110.175
150.369
-773.894
-268.763
-139.633
177.314
-1396.33
-526.966
-227.623
268.526
-1350.79
-473.406
-245.195
298.914
-1399.44
-568.932
-282.535
120.472
-1026.59
-381.122
-201.203
300.704
-1581.69
-528.704
-348.072
350.1
-221.667
-73.9612
-29.7841
39.2006
-127.993
-52.345
-18.5191
4.28248
-615.318
-206.394
-96.9958
102.77
-361.164
-149.759
-63.2914
6.634
-871.314
-302.642
-149.948
165.014
-522.634
-236.345
-100.754
10.9062
-1045.07
-386.215
-200.812
211.203
-701.695
-322.863
-144.276
7.62086
-1258.55
-435.47
-287.127
183.747
-954.051
-378.13
-204.016
-27.9592
-2164.48
-708.141
-464.016
128.999
-1158.79
-407.133
-237.13
-42.7893
-1869.33
-614.673
-424.146
129.11
-1206.9
-424.763
-244.98
-51.127
-2166.56
-676.093
-420.605
220.249
-1000.44
-331.938
-186.574
6.35278
-1987.83
-570.831
-333.966
307.885
-815.249
-228.017
-113.156
62.5847
-7.05581
-11.4323
-8.45515
-5.82674
-4.51295
-27.6068
-21.2048
-13.974
-9.30924
-7.14737
-15.2529
-24.0433
-17.7187
-12.1421
-9.33215
-87.6493
-60.7178
-38.7227
-25.411
-19.3856
-37.9821
-38.6734
-26.5567
-17.791
-13.5608
-134.906
-89.0454
-55.3317
-35.8659
-27.227
-44.5962
-29.3785
-18.1486
-11.713
-8.88145
-20.0452
-14.6441
-9.4275
-6.16934
-4.7221
-35.5169
-33.2653
-21.9997
-14.5257
-11.1021
8.53468
-1.97113
-2.32252
-1.73895
-1.37782
-91.7731
-62.2204
-38.6385
-25.0203
-18.9793
-6.72703
-11.2159
-7.79594
-5.23474
-4.04152
14.0815
-1.39092
-2.64669
-2.08876
-1.67633
4.61282
-3.01768
-2.75749
-1.95913
-1.52997
16.5169
-0.565845
-2.22961
-1.84621
-1.56425
15.483
2.04688
0.0928291
-0.186365
-0.242387
0.0120473
-7.57303
-6.16173
-4.37266
-3.41871
-3.03849
-7.7218
-5.9442
-4.17368
-3.25508
-3.77598
-18.471
-14.347
-10.0405
-7.7923
-9.38532
-18.7831
-13.9356
-9.66997
-7.51653
-3.24982
-23.7793
-18.0021
-12.5074
-9.67535
-25.3512
-27.2158
-18.5481
-12.5909
-9.67358
-66.7489
-45.0217
-27.8454
-18.0919
-13.6994
-33.4602
-23.0139
-14.4451
-9.5642
-7.24704
-48.1527
-28.0774
-16.7505
-10.7055
-8.08901
-182.364
-301.469
-613.037
-967.637
-1198.65
-1818.53
-1770.87
-2772.26
-2015.86
-3036.55
-2253.17
-3016.64
-1940.03
-2460.58
-2615.05
-3541.78
-2721.61
-3709.46
-480.972
-107.303
-23.4666
-4.97917
-1.20677
-146.705
-67.9517
-6.61203
-2.11145
-0.919127
-1571.26
-351.199
-77.1
-16.4712
-4.01854
-385.616
-89.2123
-19.0154
-3.82647
-0.834393
-2772.02
-621.103
-137.068
-29.5528
-7.27518
-757.818
-192.556
-44.1216
-9.87252
-2.42562
-3962.28
-890.542
-198.421
-43.2904
-10.7962
-1159.66
-314.213
-75.9118
-17.6649
-4.51989
-5513.2
-1271.16
-289.082
-64.2304
-16.3027
-1660.16
-496.506
-125.493
-29.8855
-7.80538
-7443.33
-1864.31
-446.723
-103.247
-27.0206
-2035.34
-631.565
-163.134
-39.2818
-10.3816
-6773.79
-1647.24
-385.555
-87.4186
-22.529
-1938.81
-610.696
-158.052
-38.0639
-9.99241
-7769.3
-1970.57
-477.756
-111.59
-29.4499
-2090.28
-629.994
-160.069
-38.0737
-10.0239
-8017.31
-2026.41
-493.192
-115.783
-30.7022
-2092.88
-632.62
-160.602
-35.4497
-9.89252
-168.084
-6328.42
-5891.57
-2889.66
-1481.74
-877.598
-3175.67
-2498.35
-5410.83
-5888.59
-3078.37
-2895.83
-421.214
-638.038
-1069.5
-1648.76
-2320.62
-2978.07
-289.927
-601.791
-1218.09
-2058.58
-3016.3
-3966.21
-328.587
-142.978
-577.678
-358.903
-1066.21
-796.552
-1696.57
-1463.59
-2314.22
-2293.47
-2826.16
-3098.87
-3650.9
-4353.19
-5201.87
-7232.4
-7548.25
-9073.93
-4796.81
-5349.53
-5447.6
-5179.94
-4250.06
-3780.17
-380.725
-322.751
-245.307
-153.236
-52.1019
-576.399
-488.332
-370.941
-231.617
-78.7351
-965.585
-817.496
-620.601
-387.355
-131.653
-1487.27
-1258.01
-954.302
-595.387
-202.327
-2090.53
-1765.9
-1338.29
-834.612
-283.602
-2676.81
-2256.33
-1707.75
-1064.78
-361.888
-261.952
-221.984
-168.661
-105.328
-35.8054
-543.431
-460.204
-349.44
-218.135
-74.1414
-1099.35
-930.412
-706.132
-440.68
-149.77
-1856.28
-1569.64
-1190.51
-742.761
-252.425
-2716.17
-2293.74
-1738.26
-1084.29
-368.527
-3563.94
-3003.86
-2274.2
-1418.8
-482.455
-297.088
-251.897
-191.485
-119.633
-40.6835
-129.276
-109.613
-83.3251
-52.0577
-17.7034
-522.023
-442.379
-336.108
-209.9
-71.3616
-324.36
-274.906
-208.888
-130.458
-44.3539
-962.928
-815.496
-619.227
-386.545
-131.387
-719.501
-609.442
-462.825
-288.931
-98.209
-1530.82
-1295.15
-982.58
-613.012
-208.306
-1320.67
-1117.37
-847.665
-528.788
-179.671
-2085.09
-1761.41
-1334.69
-832.127
-282.69
-2066.01
-1744.74
-1321.45
-823.469
-279.66
-2539.54
-2139.57
-1618.29
-1008.3
-342.529
-2783.05
-2342.61
-1769.55
-1101.04
-373.716
-3268.86
-2745.85
-2075.03
-1294.53
-440.436
-3869.99
-3231.65
-2438.83
-1526.48
-521.141
-4561.56
-3768.99
-2845.57
-1800.71
-620.715
-6186.64
-5019.83
-3820.35
-2493.67
-879.233
-6144.93
-4872.87
-3807.12
-2676.97
-1043.3
-7096.49
-5539.71
-4440.67
-3319.82
-1364.68
-4296.17
-3611.09
-2731.47
-1705.84
-580.856
-4767.24
-3991.65
-3018.04
-1890.37
-645.719
-4816.27
-4010.06
-3034.11
-1913.32
-657.94
-4515.04
-3723.78
-2827.73
-1811.53
-632.184
-3604.09
-2929.42
-2251.24
-1497.45
-546.122
-3100.45
-2478.38
-1937.48
-1351.38
-516.076
-445.695
-712.258
-1194.98
-1824
-2543.05
-3228.73
-321.964
-698.791
-1380.47
-2281.07
-3281.34
-4237.11
-354.401
-163.112
-656.401
-421.235
-1201.61
-907.155
-1891.34
-1635.01
-2574.78
-2586.49
-3129.65
-3604.54
-3914.91
-4620.99
-5466.8
-7412.86
-7670.13
-9120.29
-5024.9
-5488.18
-5475.71
-5110.02
-4158.94
-3740.38
-402.958
-341.71
-259.806
-162.339
-55.2058
-643.851
-545.895
-415
-259.3
-88.1783
-1079.77
-915.102
-695.445
-434.448
-147.731
-1647.08
-1395
-1059.66
-661.842
-225.047
-2294.07
-1941.1
-1473.62
-920.293
-312.957
-2907.56
-2456.42
-1863.51
-1164.03
-396.018
-291.05
-246.79
-187.625
-117.233
-39.8646
-631.56
-535.39
-406.972
-254.272
-86.4666
-1247.07
-1056.67
-802.921
-501.572
-170.557
-2059.17
-1743.53
-1324.22
-827.099
-281.257
-2958.73
-2502.56
-1899.6
-1186.45
-403.533
-3813.42
-3220.28
-2442.76
-1526.25
-519.415
-320.507
-271.849
-206.73
-129.197
-43.943
-147.536
-125.159
-95.194
-59.4995
-20.2394
-593.52
-503.346
-382.734
-239.175
-81.3444
-380.936
-323.116
-245.729
-153.574
-52.2337
-1086.09
-920.722
-699.869
-437.264
-148.698
-820.07
-695.332
-528.62
-330.298
-112.325
-1708.45
-1447.41
-1099.68
-686.881
-233.561
-1477.13
-1251.63
-951.028
-594.045
-201.992
-2323.51
-1966.62
-1493.2
-932.481
-317.072
-2334.45
-1976.13
-1500.47
-936.965
-318.577
-2818.93
-2381.86
-1806.92
-1128.51
-383.864
-3247.84
-2744.96
-2082.3
-1300.14
-442.148
-3514.62
-2961.74
-2245.37
-1404.3
-478.424
-4124.23
-3459.92
-2622.97
-1647.39
-563.415
-4821.98
-4011.05
-3047.64
-1937.45
-669.28
-6384.8
-5221.14
-4003.07
-2627.11
-928.079
-6292.25
-5029.16
-3956.74
-2795.43
-1091.66
-7157.86
-5607.6
-4509.05
-3377.99
-1388.84
-4508.84
-3798.29
-2879.51
-1801.42
-613.971
-4900.84
-4113.62
-3118.06
-1956.92
-669.169
-4851.24
-4049.55
-3072.55
-1942.25
-668.789
-4462.34
-3689.38
-2810.73
-1806.78
-631.796
-3530.54
-2874.96
-2217.48
-1482.26
-542.697
-3068.53
-2454.81
-1923.2
-1345.61
-515.006
-18764.5
-14175.6
-4920.76
-3958.69
-3324.96
-5153.37
-3617.58
-13117.7
-14242.1
-11883.7
-13662.2
-7388.02
-11505.6
-5402.05
-5667.65
-4000.94
-21131.5
-11081.1
-3610.38
-5781.92
-8380.1
-5671.23
-6954.14
-5310.42
-2596.37
-4664.93
-4062.52
-4513.4
-18821.3
-12056.2
-12421.7
-7986.03
-8466.99
-8561.45
-4776.89
-5950.77
-5832.67
-12857.8
-12455.1
-10896.4
-11102.2
-10366.4
-10234.3
-7727.08
-6538.54
-5550.59
-2591.09
-4389.53
-3679.37
-2788.21
-1751.02
-598.288
-3556.62
-2998.6
-2273.2
-1420.91
-483.762
-2982.73
-2511
-1901.53
-1188.24
-404.743
-4636.05
-3912.62
-2966.11
-1852.36
-630.228
-3242.65
-2728.39
-2066.75
-1292.71
-440.628
-9808.6
-8975.64
-7751.81
-7395.4
-7734.28
-10158.3
-9456.28
-7915.13
-6785.22
-5261.76
-9244.33
-7044.51
-5741.17
-4443.39
-1992.23
-10081.2
-8811.98
-7137.91
-5890.25
-3734.64
-6302.32
-5092.12
-3868.53
-2531.56
-922.986
-9362.6
-7238.15
-5601.9
-3906.39
-1595.15
-4702.27
-3862.47
-2920.7
-1866.19
-655.671
-4915.57
-4025.71
-3044.96
-1952.27
-689.226
-3505.52
-2894.35
-2186.51
-1387.45
-482.784
-15347.8
-13315.4
-11590.3
-11013.1
-10302.6
-8966.11
-7061.19
-5635.25
-4152.89
-1783.86
-3137.97
-2576.88
-1954.32
-1255.92
-443.535
-5038.69
-4154.08
-3164.2
-2042.09
-721.638
-7130.03
-5785.49
-4468.03
-3004.25
-1111.74
-4939.48
-4067.24
-3100.42
-2002.73
-702.61
-6136.53
-5097.55
-3870.5
-2458.54
-844.489
-4707.09
-3926.9
-2976.21
-1879.31
-646.916
-2302.43
-1919.74
-1450.68
-911.909
-313.199
-4165.35
-3493.48
-2644.01
-1656.69
-566.162
-3573.08
-2960.89
-2240.07
-1420.09
-492.717
-3990.2
-3322.16
-2517.34
-1592.69
-550.29
-12939.9
-11894.8
-10504.3
-10471.3
-9610.64
-9136.02
-6994.5
-5796.85
-4669.17
-2148.83
-10384.7
-8749.8
-7233.62
-5820.03
-2659.83
-6684.37
-5206.98
-4089.28
-2864.39
-929.27
-7269.7
-5879.99
-4518.88
-2990.56
-1026.67
-7174.27
-5573.47
-4380.13
-3070.56
-980.373
-4209.96
-3497.21
-2656.19
-1690.29
-585.174
-5304.44
-4443.57
-3365.07
-2112.73
-722.811
-5117.95
-4236.98
-3218.92
-2056.06
-714.384
-476.576
-1297.67
-1970.21
-2588.03
-3212.98
-3782.65
-2327.68
-6013.72
-5666.02
-2342.21
-6865.66
-6156.73
-7391.5
-9868.93
-1314.01
-175.137
-2488.7
1185.38
-9730.72
-8062.2
1871.66
-1703.49
-4772.29
-4599.46
-1808.36
-5248.51
-2923.24
-5907.06
-6080.95
-584.578
873.973
-1080.45
3271.36
-6885.89
-4396.3
3661.84
-1061.58
-3275.45
-3387.14
-1253.53
-3308.32
-523.883
-4438.75
-4470.84
-173.269
1064.9
59.5835
3449.04
-4273.66
-468.014
4185.38
-718.38
-2362.39
-2757.18
-973.01
-1817.05
771.741
-3773.62
-4242.76
23.6431
777.727
387.673
2911.72
-3276.68
1481.35
4011.59
-625.015
-2229.76
-2649
-898.365
-1706.03
496.614
-4018.13
-5474.32
99.0937
602.006
495.921
2556.55
-3124.29
1510.49
2813.74
-604.808
-2201.87
-2590.06
-874.224
-2089.93
-235.62
-3951.83
-5384.73
145.674
945.293
408.673
2667.92
-3599.96
665.033
2124.75
-1318.41
-3142.72
-4150.88
-1687.93
-6444.08
-11502.9
-6925.31
-12239
-1624.12
-1449.94
-5223.6
-4404.93
-2421.12
-9545.79
-4757.3
-1294.18
-3068.58
-3719.66
-1467.49
-6112.3
-9846.5
-6240.18
-8995.27
-1698.71
-1344
-5113.75
-4216.99
-1781.26
-8844.99
-4652.79
-1204.3
-2875.95
-3122.17
-1196.75
-5556.3
-8622.68
-5289.58
-8016.13
-1471.48
-1731.88
-4527.57
-5030.03
-2054.29
-7852.39
-5238.57
-1217.03
-3147.96
-2903.76
-1067.92
-5918.81
-8484.67
-5241.59
-7890.37
-1548.39
-2157.71
-4703.38
-6229.89
-2593.75
-8642.77
-6386.43
-1232.2
-3137.29
-2865.02
-1035.04
-5851.7
-9157.83
-5264.22
-8680.55
-1686.34
-2772.99
-5080.79
-7979.14
-3681.18
-10274.8
-8360.26
-1250.19
-3140.07
-2837.01
-1025.17
-5951.32
-9408.43
-5157.8
-8588.59
-1899.02
-3459.7
-5614.87
-9145.31
-4898.5
-11355
-9392.56
7144.6
8648.5
17809.5
27758.3
26891.8
52450.3
18612.3
55984.7
19207.4
44900.5
23619.9
38795.8
18099.2
23861.3
8378.11
8473.71
12607.9
14231.4
17325.1
15691.9
12068.1
18168
18008
18037.3
4686.79
3399.77
6326.08
4518.62
11532.2
7435.91
21313.8
14821.1
17769.4
17995.6
18006.1
18130.4
4096.46
3680.72
41464.6
51288.6
22044.1
29436.9
53528.1
65873.2
24797.5
30513.6
31018
40567.4
24695.4
34235.2
14175.3
17971.6
2703.01
861.775
3464.14
1204.96
6429.28
2648.25
11184.5
4102.37
7313.85
2428.67
7426.88
2100.28
14649.7
4261.94
19219.2
6018.94
24841
14169.3
21031.6
14525.4
25543.8
16446.7
20279
16427.6
16239.7
11699.4
17781.8
11217.1
20446.9
15103.1
21136.5
15517.9
19884
16844.7
20662.2
17201.2
16793.1
12440.9
18119.6
12926.7
17869.8
7310.61
10154.5
11555
19191.9
8407.6
10022.7
12031.5
17949.2
6838.65
10673.3
11429.1
18571.4
6891.66
11246
11554.3
2608.92
2913.77
922.144
1790.68
8006.62
9372.92
3282.2
6186.28
13039.3
15475.7
5825.41
10409.2
17392.5
9198.02
17483.8
20844.3
10416.1
6775.87
10836.6
12227.9
21167.9
13301
9858.36
12865.1
14182.1
13644.1
16950.4
2853.04
2929.07
1736.9
1884.52
9161.27
8772.18
5875.04
5967.31
13751
12670.6
8653.03
8721.12
9661.3
10820.5
15274.7
16204.7
16850
15870.4
19908.5
18325.6
13590.6
13563.8
12951.9
14178.4
16680.2
15414.4
15636.5
13241.8
13923.5
11291.4
15343.6
12294.9
14158.8
7775.61
11097.8
10885.5
15628.6
18302.7
15959
20875.7
9333.38
9283.57
12798.7
6008.53
10689.2
16939.6
11024.1
18038
16179.2
25552.3
16694.1
26090.5
9006.67
14819.7
9285.28
16016.7
11071.3
8335.97
14097.4
6444.81
12034.1
4716.84
13352
3457.57
11457.3
11848.6
14739.7
7647.15
10305.7
13623.8
13518
9701.38
2727.11
2550.16
2236.23
1791.01
1761.97
1556.82
8126.79
7076.09
6242.49
5280.46
4462.48
3807.07
10690.2
9163.81
8444.97
7591.42
6188.71
5652.11
9786.85
8053.33
7706.49
15183.3
11473.5
9418.88
13563.2
10083.3
7915.65
15031.4
11926.4
10145.6
11486.9
7908.42
5970.71
18298.7
15053.3
13485.9
13344.1
10700.8
8969.9
11685.2
8898.3
7087.44
10353.2
7838.06
6303.05
11040.4
6692.96
4235
11353.2
18542.8
9607.23
13791.8
9169.44
18927.2
7661.94
15501.9
217.596
1605.34
-183.781
932.771
3529.29
6692.84
2195.23
4026.34
1852.95
3953.24
10942.3
16358.2
8689.28
6409.62
11529.5
10076.3
15407.7
16483
-535.904
-5414.3
8335.78
5869.08
6461.63
3728.02
1452.06
947.655
1150.28
707.588
3919.29
1278.15
1934.87
231.528
9961.77
3040.22
7440.43
2320.23
8434.33
2548.22
9552.62
3170.07
12200.4
12133.3
9516.64
12066.4
18351.3
16602
15049
15827.9
7139.4
9449.09
8324.71
8707.38
8922.77
12030.3
9388.45
12166.1
14379.4
15561.8
14908.8
15697.4
6325.84
9612.85
6140.16
9756.26
969.697
1631.33
7733.54
4525.59
952.929
1410.73
6769.78
3842.7
952.196
1468.77
8184.32
4979.95
1260.83
1590.64
8286.77
5257.49
-145.594
-268.151
467.44
340.793
-778.58
-1295.65
833.749
602.521
1308.56
284.701
2719.37
2445.05
-7675.8
-3909.18
-4449
-2838.73
211.959
-7072.33
-10389.3
-4903.71
-4851.44
193.275
9287.55
6878.18
5777.59
6059.06
3741.5
-484.89
-378.002
190.431
312.868
-1415.39
-1615.16
647.186
896.68
-1155.49
-1809.79
1632.1
2032.41
-3148.31
-1705.64
-8101.12
-5815.21
-4276.32
-3105.34
-3784.85
-3170.91
543.017
1410.15
4888.75
3368.66
-485.107
-2272.06
-583.324
-1936.94
594.701
-532.864
1143.15
1612.86
4100
4551.39
9780.51
6224.62
8599.96
8427.16
12965.1
10169.4
7629.98
4745.51
2649.67
3359.52
11579.5
4900.24
12413.2
4508.27
14897.3
9782.56
15844
9374.06
9176.17
3487.19
9965.7
3021.91
5965.52
4970.64
4780.74
8322.14
3047.35
4034.68
3238.35
7034.8
6553.93
4685.94
5751
9534.66
7847.14
4471.1
6700.01
9480.14
-551.945
-738.279
-872.607
184.771
-154.688
-208.743
-2102.18
-2620.95
-2856.55
368.963
-613.115
-764.624
-2543.46
-3746.89
-4268.83
1109.63
-1090.34
-1554.02
-989.54
-1547.98
-1405.31
-4605.48
-4991.22
-4656.07
-3597.41
-4293.74
-4180.5
-3784.99
-4887.88
-5100.38
704.448
-1592.52
-1545.68
3945.5
1894.29
1060.67
-1499.85
-2777.2
-3188.31
-1704.19
-3126.8
-3491.8
-979.85
-2743.05
-3120.38
2029.4
-1079.37
-1309.16
75.6554
-6.35654
-36.8406
-79.6506
-103.888
-102.13
-119.169
-122.514
215.829
-9.49851
-110.735
-230.533
-252.619
-251.445
-280.539
-302.733
440.133
52.6503
-120.063
-353.961
-38.8112
-209.881
-254.138
-347.699
-45.7677
-137.446