/*--------------------------------*- C++ -*----------------------------------*\
| =========                 |                                                 |
| \\      /  F ield         | OpenFOAM: The Open Source CFD Toolbox           |
|  \\    /   O peration     | Version:  2412                                  |
|   \\  /    A nd           | Website:  www.openfoam.com                      |
|    \\/     M anipulation  |                                                 |
\*---------------------------------------------------------------------------*/
FoamFile
{
    version     2.0;
    format      ascii;
    arch        "LSB;label=32;scalar=64";
    class       volScalarField;
    location    "2.5";
    object      gradTy;
}
// * * * * * * * * * * * * * * * * * * * * * * * * * * * * * * * * * * * * * //

dimensions      [0 -1 0 1 0 0 0];

internalField   nonuniform List<scalar> 
5712
(
12674.8
6963.68
22093
14456.8
21268.3
18072.9
31385.1
38841.3
47751
60411.6
25282.6
22198.3
15570.2
10720.7
10268.6
5845.38
21133.6
19134.6
19080.8
18934.7
24266.9
23341.7
27994.2
24144.1
7472.63
5255.4
3888.89
2690.44
10892.8
7051.2
6033.91
3909.57
21405.6
22704.4
19249
15765.9
15595
12143.8
13179.5
12577
17640
17314.7
35829.4
39441.1
25723.1
27172.6
18474.7
14540.8
18904.7
13283.4
8029.59
6923.1
5969.15
8779.09
2966.74
4007.83
7918.05
11732.6
4968.16
6766.49
8092.52
14075
6163.49
10062.1
1932.99
6769.25
341.544
4850.67
18186.8
21888.7
19034.7
21636.5
22995.1
23458.1
23383.5
22851.1
16909.4
20439.5
16942.1
20170.7
19048.5
21451
18680.5
21293.1
23525.7
22494.1
23509.5
22290.3
15864.1
20462.6
14466.3
20363.2
17339.2
18474.5
21844.2
30423.4
18140.1
21250.1
21708.6
33138.7
16417.4
16401.6
21739.7
28941
15784.5
15079.6
21713.8
28214.8
4322.14
5433.01
11759.9
19061.1
5202.57
5804.82
14584.1
21452.8
6223.78
6476.47
17875
24289.7
24786
27703.2
20707.9
18815.6
25330.8
28255.2
24307.4
20749
17419.7
28561
25900.4
23743.9
19789.8
20108
37264.6
1571.6
2068.47
4181.91
8534.99
2233.29
3088.12
5578.74
10023.3
3379.08
3264.64
7510.72
12003.5
27669
27823.2
22847.3
22046.7
19094.5
17145.4
13863.2
12368.3
10573.3
15633.1
24454.6
22265.5
22467.7
21244.8
18839
17549.3
16077.1
14314.6
12614.8
17196
23007.1
24548.9
23772.3
26140.9
23325.3
21613.6
23615.3
22693.5
20657.2
20922.6
20387.8
20310.7
24157.6
26763.2
23948.9
26471.1
23884.3
23613.7
23573.5
23403.3
20461.2
20761.4
20700.4
20899.1
17626.9
17450.3
12062.1
14383.7
17775
17188.1
12395.8
14846
17147.8
17205.6
11922.1
14412.6
17298.6
17013.2
11810.4
14072
1804.64
1488.71
1108.82
1014.37
882.307
871.219
2693.16
1942.33
1534.35
2356.59
2125.15
1858.87
2891.32
2844.25
3048.66
4258.09
3745.63
3457.74
26804.9
24137.5
22229.4
22222.2
21050.5
20026.2
15130.6
14619.4
14358.9
10652.5
10199.1
10022.6
6918.08
5182.27
4276.47
21184.7
19747.3
18676.5
21046.1
19817.8
19094.2
15617.5
14046.9
13175.8
11184
9975.1
9435.61
7335.65
5494.6
4534.13
28105.2
29223.8
29862.8
27499.4
27401.3
27470.1
32636.6
28188.7
17956.9
19809.5
17879.7
17647.6
23831.5
21013.3
23277.1
18413
25649.8
26818.2
22007.4
24778.5
28912.3
25321.2
28558.4
29612.1
30204.5
32333.4
24541.2
25151.3
21357.2
21029.6
24399
23534.4
16537.9
9338.63
15426.2
10339.3
16048.4
9137.45
14842.7
10002.8
14675.4
8449.61
13781.1
9502.03
13523.2
9874.37
12975.7
9859.06
22559.4
17904
22022.6
17960.8
25192.7
22641.5
25172.5
22194.3
20308.8
14151.4
21184
13727.5
22385.4
17977.9
22950.2
17917.8
25706.5
22004.9
26103.2
21879.4
19711.9
14297.1
19543.2
14279.8
12053.4
8239.66
10704.5
6674.38
11160.7
7357.86
10042.5
6093.87
12309.1
8746.91
10989.6
7000.57
12371
9087.32
11057.8
7195.62
2646.92
1423.04
4868.45
2656.71
2738.11
1648.6
4929.05
2942.15
2986.52
2215.28
4874.38
3410.96
13591.7
22715.9
8763.49
7902.72
5501.14
23271
15014.8
8384.04
7431.71
4232.53
22435.1
16284.7
11929
8677.29
5162.37
1020.51
1004.94
1782.72
1687.09
1276.51
995.936
2190.42
2007.16
1813.84
1616.96
2685.79
2411.47
23684.5
22805.6
15153.8
13971.5
9504.51
9243.25
7254.53
7042.83
3876.51
3506.45
20652.6
17862.8
15110.2
13124.8
11298.3
10405
7947.45
7743.46
4777.12
5468.7
14265.6
11408
14373.7
10737.5
18149.5
13533.3
18371.1
13264.7
11727.7
9566.54
11615.4
10225.2
14814.4
10218.1
14914.3
10309.1
19225.1
13583.2
19147
13661.7
11793.7
8965.81
11966.3
9319.33
8319.51
7731.18
5316.6
7342.36
8445.9
8120.01
5414.1
7255.9
8284.78
7505.41
5156.94
7679.34
8712.35
7559.94
5376.45
7589.28
2527.69
2030.55
1594.03
9580.77
4692.48
3595.89
2314.95
2178.57
1857.53
9990.16
5441.86
4389.17
2847.87
3038.68
3054.09
10443.3
6673.04
5852.75
20691.3
18891.9
17584.2
13296.5
12595.9
12108.8
9667.05
9357.78
9181.18
8516.8
8105.31
7927.67
11928.8
8679.35
7785.64
15347.7
13887.8
12895.3
11733.7
10795.5
10238.5
10359.1
9405.51
8703.79
9952.66
8935.91
8384.95
15341.7
10792.5
9867.85
4954.02
2963.28
2193.63
2098.35
5581.34
3211.22
2287.64
2152.31
4800.65
2913.49
2185.07
2123.26
5538.28
3218.95
2309.97
2165.36
4527.67
2840.48
2198.79
2086.52
5380.23
3246.84
2367.37
2121.15
5654.7
3387.54
2391.95
2257.61
5819.97
3536.36
2496.56
2349.91
4830.87
3016.48
2280.75
2112.46
3825.24
2605.05
2110.04
1988.55
4146.2
2705.73
2164.26
1932.69
3395.13
2401.25
2011.44
1889.24
5235.82
3242.96
2375.21
2225.75
4090.91
2764.52
2184.1
2054.34
5466.87
3403.24
2460.79
2280.27
4241.69
2882.15
2250.44
2079.48
3686.82
2544.24
2042.97
1977.65
2324.34
2040.1
1845.94
1822.53
3561.27
2498.95
2037.18
1976.24
2301.35
2031.56
1842.09
1832.28
3366.93
2428.82
2032.26
1960.82
2365.6
2058.83
1843.92
1868.24
3149.91
2317.88
1982.58
1950.5
2378.5
2059.49
1871.71
1868.84
2829.29
2199.52
1890.57
1819.46
803.262
1559.19
1454.35
454.775
-1009.25
1289.22
1256.23
437.055
976.814
1623.57
1480.9
481.069
-740.529
1365.15
1278.22
444.679
1254.2
1719.63
1506.75
478.917
-327.413
1485.88
1305.49
446.816
1631.02
1836.35
1542.18
509.483
137.208
1631.27
1348.88
462.948
2146.9
1990.83
1607.48
569.844
569.158
1764.17
1391.24
476.184
2487.78
2169.15
1650.31
530.452
425.545
1905.54
1480.31
495.947
2445.54
2090.87
1612.36
533.228
498.6
1852.62
1432.09
482.938
2457.43
2227.11
1690.87
499.042
298.119
1955.42
1520.03
497.611
2442.7
2304.75
1763.72
516.359
462.785
2034.87
1575.35
512.47
2045.66
1594.84
1127.04
668.48
221.285
2049.65
1596.44
1128.33
669.22
221.519
2082.11
1607.87
1133.06
671.217
222.077
2080.08
1611.58
1136
672.844
222.586
2104.54
1622.03
1139.75
674.269
222.96
2089.84
1632.89
1147.56
678.459
224.267
2161.13
1661.75
1163.9
686.771
226.808
2200.25
1688.99
1180.37
695.293
229.426
2161.32
1650.91
1154.88
681.697
225.204
2223.72
1660.02
1156.5
682.032
225.259
2124.29
1637.33
1146.8
677.509
223.903
2208.63
1651.45
1151.56
679.491
224.468
2189.51
1667.02
1164.7
686.828
226.793
2249.88
1675.9
1166.02
686.995
226.798
2215.69
1695.51
1182.55
696.127
229.66
2280.63
1703.55
1183.38
696.087
229.615
2043.82
1593.92
1125.75
667.684
221.03
2076.79
1595.27
1125.09
667.217
220.879
2068.37
1604.44
1130.35
669.703
221.601
2099.2
1604.72
1129.15
668.978
221.376
2105.87
1618.59
1136.35
672.335
222.346
2145.7
1618.28
1134.73
671.408
222.061
2161.55
1634.14
1142.98
675.325
223.202
2192.73
1631.02
1140.66
674.126
222.829
2195.87
1643.99
1147.66
677.542
223.861
8243.04
12734
8704.52
13111.2
9471.66
13727.8
10388.3
14789.8
11414.4
16606.3
10598.6
13082.5
10861.8
13983.1
10557
12941.3
10439.7
12914.5
6604.39
1181.19
259.486
58.2376
10.2538
7856.46
2167.51
527.128
119.407
20.8412
6768.75
1167.51
251.714
55.9705
9.79797
8030.54
2182.82
523.952
117.137
20.3717
7068.62
1173.68
246.693
54.1227
9.40995
8365.63
2224.19
524.141
115.776
19.9896
7432.55
1175.99
240.942
52.3393
9.07219
8797.61
2276.69
528.162
115.799
19.9323
7744.18
1177.16
239.569
52.2988
9.12094
9201.82
2323.14
538.053
118.582
20.5259
7573.38
1367.56
308.706
71.5798
12.9257
8533.89
2426.88
606.699
141.341
25.3906
7682.18
1292.65
278.094
62.5294
11.0851
8820.16
2391.2
575.192
130.032
22.892
7519.2
1417.52
329.191
77.8842
14.2493
8453.9
2450.44
625.66
148.588
27.0796
7479.42
1399.04
326.333
77.8416
14.336
8407.99
2434.22
625.862
149.807
27.4528
35117.5
48808.2
43711.4
33046.5
18509.1
19419.8
29491.1
29547.4
19869.6
21195.5
31646.1
42088.2
46734.4
63362.7
23840.3
26157.1
19293.4
18794.2
13384
13749.4
4168.17
2988.84
861.326
687.775
817.024
706.621
848.709
4193.35
4317.35
2796.11
3738.8
3403.1
1625.31
2248.7
1978.68
1361.3
1536.46
1293.5
3645.68
2207.59
1454
1340.22
1622.71
1412.86
1121.38
1130.38
1071.1
966.724
1227.08
1152.25
3728.67
2438.25
2584.48
1839.42
1564.85
2149.48
1156.18
942.313
1277.73
8842.07
9335.29
9738.33
12184.8
21568.2
6765.14
7840.63
8680.3
10326.2
12218
2274.27
3268.95
4041.07
4578.08
4857.75
1826.48
2647.17
3292.32
3739.16
3969.07
2163.75
3122.07
3865.66
4374.77
4634.84
1876.26
2718.15
3377.8
3832.2
4064.81
2243.89
3230.54
3995.27
4521.96
4793.24
9307.74
10134.1
10220.2
11760.4
19543.6
9273.79
9781.59
9873.54
10843.3
13124.1
6501.22
7712.24
8368.99
9281.22
10249.3
8185.32
8882.4
9013.31
9505.71
10521.7
7555.12
8376.57
8504.14
8863.18
9509.45
4079.76
5446.07
6364.03
7016.26
7402.84
5385.09
6700.67
7462
8117
8629.82
4827.83
6161.15
6942.79
7505.01
7864.79
3491.88
4807.56
5735.92
6363.06
6698.7
3882
5225.33
6126.48
6735.75
7072.52
3336.93
4630.57
5552.33
6165.88
6485.09
8293.29
9369.18
9732.63
11479.4
19211.2
5352.96
6764.95
7681.77
8642.84
9463.61
3709.54
5070.58
6035.43
6723.82
7119.14
3448.96
4774.92
5741.71
6433.09
6823.37
4091.23
5496.43
6487.39
7268.34
7773.87
3625.07
4994.54
5997.8
6747.76
7184.28
2924.89
4129.92
5044.91
5699.74
6055.58
2949.58
4166.41
5082.42
5722.82
6064.97
2805.79
3982.66
4863.21
5456.45
5760.07
2544.77
3639.06
4472.71
5040.21
5331.31
3181.69
4450.77
5378.52
6010.6
6344.65
3003.02
4233.41
5150.51
5782.27
6116.51
8219.55
9038.95
9479.76
11598.3
19873.2
5747.67
7044.24
7997.85
9308.28
10618.4
6504.87
8074.6
8828.27
10382.5
12061.9
4597.64
6069.17
7122.71
8120.42
8803.22
3983.74
5413.88
6452.93
7291.77
7801.34
5307.14
6769.85
7705.75
8775.67
9503.29
3011.47
4243.16
5171.37
5830.17
6187.44
2481.06
3550.25
4369.62
4933.46
5225.63
3303.6
4604.63
5566.49
6254.44
6636.8
18772.8
12210.7
19905.7
15007.9
24084.7
33993.5
25663.5
35413.5
20818.9
20427
18368.3
19096.4
22014.2
21908.6
26978.1
23196.4
14386.3
12574.9
6437.56
5072.04
16782.6
13327.1
8929.11
5959.72
21595.9
23794
19845.9
17708.8
20619
13789.2
13017.9
12574.1
17655.4
17318.7
35703.6
39444
25289.9
27059.3
18895
14656.8
19388.8
13378.1
8431.34
6998.83
13162.7
15726.8
5332.81
6434.66
14126.1
17596.6
7183.26
9042.83
12355.9
17893.7
7733.72
11823
2193.64
7393.85
359.114
4972.75
18502.6
20374.3
18761.9
20812.9
21440.2
21390.2
22400.3
21708.7
17354.1
20081.4
18597.9
19510.9
18863.1
21027
18615.4
21154.5
23025.3
21909.2
23366.5
22101.6
15980.6
20269.7
14476.7
20297.5
17885.1
19542.2
21959.6
30813.7
19083.2
23275.4
21961.8
33969
16664.3
16883.9
21778
29111.1
15848.6
15208.6
21720.1
28263.2
17566.7
20055
23060.4
32481.5
16780.6
18144.2
23815
32248.5
14678
15188
23993.4
30955.8
18701.7
20684
19016.1
19365.1
28334.3
20293.8
17669.4
20048.4
17972.5
32225
20534.2
19481.6
18002.5
20526.2
38852.6
12767.8
12288.9
10569.4
13190.3
12438.6
12091.9
10792.9
13673.8
11447.5
10480.1
10670.9
13763.3
19943.3
19471.1
17198.6
16501.6
18296.8
16908.3
14424.3
12896.9
11843.3
15705.7
19836.3
18664.2
18840.5
18457.4
17130.2
16049
16044.3
13922.3
12765.4
16272.1
21022.2
22706.8
22636.5
25004.2
21031.5
19851.5
22355.5
21688.8
19960.7
20153.2
19217.4
19085.8
23606.5
26234
23783
26313.1
23283.2
23162.3
23394.9
23269.4
20104.6
20368.5
20590.7
20783.2
17326.6
17016.9
11984.6
14172.9
17391.8
16570.4
12384.1
14538
16972
16962.7
11856.7
14281.3
17239.3
16935.8
11784.6
14025.8
11941.8
12922.5
4594.49
4721.19
11636.6
11756.1
5269.01
5486.72
9412.03
9194.52
5746.2
5598.89
19051.8
18171.3
17040.5
16882.1
15184.2
14747.2
11106.7
10236.7
7251.13
5655.08
18611.6
17879.7
19258.5
18361.9
14601.6
13368
10891.9
9784.08
6603.65
5155.51
23500.1
23540.2
27637.3
24830.6
24834.6
24058.8
32375.7
26686.9
19155.2
15055.8
20453.4
16108.7
20032.4
15115.1
21310.4
16081.6
22106.4
20506.9
19491.2
18991.8
20746.4
21969.3
27246.4
29217.7
29390.2
32084.1
22848.4
24618.4
20251
20716.3
22638.6
23010.3
12618.1
10053.7
13597.4
10429.5
12284.1
9774.93
13252.4
10104.4
11691.8
9002.72
12521.4
9510.65
12787.7
9803.38
12756.8
9824.21
18531.9
16602.2
20110.2
17067
21953.6
20390.8
23574.9
20915
18385.2
13767.5
17200
13447.7
21448.4
17471.9
22669.5
17748.3
24908.8
21337.6
25867.1
21662.5
18794.1
14031.5
19278.9
14182.7
11570
8531.82
10823.9
7089.13
10907.3
8253.32
10608.1
6992.44
11966.7
8826.48
10987.9
7193.28
12249.5
9093.81
11053.1
7266.54
11040.4
11581.3
9319.61
8981.99
10556.6
11231.9
8977.03
8644.65
9914.5
10429.8
8138.26
7734.74
16494.3
20495.1
14543.4
10238.6
7849.46
19963.1
17627.7
16109.4
10469.9
7400.79
19986.2
16499.2
13417
10749.1
7007.38
13430.8
16324.7
9701.29
11295.5
12638.2
14745.5
9069.03
10363.1
11238.7
12476.1
7656.51
8081.59
19390.7
18197
15941.5
15083.3
14749.2
15443.9
10881.1
11832.7
7264.93
7414.22
18069.5
15654
14948.7
13085.3
12774.3
12142.7
10286.1
10443
6665.55
7713.06
13841.2
11438.9
14099.6
10824.2
16661.1
12675.1
17526.8
12861.4
11922.7
10004.4
12052
11015.3
14630.5
10253.7
14848.6
10314.6
18791.5
13399.8
19013.8
13608.1
11824.3
9133.06
11944.3
9351.82
8745.11
8345.42
5805.22
8160.22
9393.33
9339.18
6439.23
8793.62
8440.13
7763.54
5377.14
8098.05
8766.96
7644.33
5468.69
7724.72
21804
23003.7
27650.9
22867.6
18886.3
19989
25901.1
21536.8
15377.9
16235.1
22387.2
18968.4
17079.1
16252.1
15014.7
14852.9
16375.9
16700.2
14159.3
13912.1
21119.5
18329.6
13557.1
13133.6
12139.5
12197.5
12652.2
12623.2
13607
13227.9
22358.7
18545.1
6358.15
3934.82
2795.27
2562.78
6567.93
4028.4
2836.83
2589.49
6081.81
3820.35
2732.64
2552.49
6382.57
3934.69
2784.42
2547.68
5621.51
3646.22
2666.96
2443.67
6007.78
3821.65
2764.76
2431.01
6014.87
3751.69
2679.05
2487.07
5936.72
3661.45
2591.61
2430.1
5404.68
3480.44
2595.15
2372.26
4331.31
3005.44
2362.59
2199.2
5109.32
3381.95
2568.8
2238.48
4227.41
3008.57
2357.8
2147.97
5538.32
3510.59
2566.09
2390.07
4364.35
2989.7
2344.06
2200.63
5556.54
3493.21
2529.58
2339.61
4331.52
2955.78
2306.98
2129.84
5910.24
3745.25
2721.24
2469.4
5182.2
3451.31
2602.09
2327.74
5587.31
3637.28
2673.1
2439.61
4870.24
3364.21
2562.97
2321.5
5111.13
3467.3
2608.55
2379.35
4443.29
3230.58
2488.9
2318.06
4601.55
3210.67
2461.68
2290.59
4123.66
3095.26
2421.53
2242.82
4063.13
2993.15
2327.05
2094.07
3903.24
3070.53
2164.12
621.821
1639.73
2813.79
1972.47
627.171
3722.68
3035.47
2156.34
646.379
1624.06
2786.39
1960.83
628.229
3455.58
2956.51
2105.65
623.247
1565.78
2729.32
1918.8
612.504
3429.32
2887.43
2082.59
650.097
1716.82
2676
1884.05
611.055
3450.08
2805.62
2060.26
700.29
1805.77
2588.7
1832.64
603.243
2922.03
2557.23
1965.95
648.984
670.467
2277.66
1733.06
578.251
3240.29
2685.28
2011.67
662.525
1070.4
2431.38
1778.23
587.607
2662.38
2441.93
1892.3
579.684
369.563
2158.36
1672.92
549.569
2492.41
2372.33
1831.64
544.055
471.464
2097.73
1625.53
529.847
2421.34
1822.76
1255.43
732.904
240.801
2400.3
1815.61
1253.03
731.984
240.548
2440.98
1819.8
1251.61
730.599
240.057
2397.18
1807.91
1247.21
728.749
239.531
2436.7
1815.09
1247.07
727.938
239.206
2347.61
1791.24
1237.09
723.47
237.913
2327.91
1760.61
1220.2
715.187
235.436
2262.84
1727.6
1202.53
706.519
232.841
2389.37
1788.91
1232.67
720.782
237.053
2454.13
1798.09
1233.95
720.899
237.039
2420.02
1808.54
1241.79
725.017
238.286
2498.97
1810.54
1239.48
723.454
237.78
2343.36
1766.2
1221.5
715.497
235.496
2399.75
1775.14
1223.03
715.784
235.539
2267.45
1729.1
1202.01
706.003
232.668
2331.38
1738.52
1203.81
706.475
232.785
2454.82
1832.87
1258.41
733.97
241.087
2530.8
1842.26
1260.43
734.625
241.259
2469
1832.4
1255.99
732.351
240.548
2544.01
1842.17
1258.43
733.249
240.8
2491.27
1830.96
1252.42
730.113
239.814
2573.95
1841.05
1255.15
731.189
240.123
2525.56
1826.16
1247.54
727.38
238.944
2594.43
1833.51
1250.15
728.546
239.278
2530.41
1818.77
1243.36
725.283
238.307
10676.6
14280.4
10644.3
14257.7
10687.5
14267.2
11068.5
14872.7
11591.1
16193.8
10584.9
12983.9
10901.1
13827.7
10533
12875.8
10430.2
12892.6
7639.77
1322.11
284.697
63.1323
11.0375
8842.85
2404.2
577.322
129.464
22.4446
7640.34
1285.87
273.085
60.1658
10.4742
8832.51
2382.53
567.112
125.863
21.7767
7674.64
1257.91
262.408
57.2982
9.9313
8879.64
2365.32
556.186
122.472
21.0887
7779.37
1225.08
250.662
54.4125
9.42442
9039.08
2357.27
548.33
120.28
20.6955
7874.04
1197.96
244.376
53.4392
9.32663
9223.63
2356.43
548.553
121.18
20.9949
7570.55
1368.11
309.359
71.8482
12.9879
8504.66
2425.51
607.747
141.84
25.5093
7715.95
1299.65
280.282
63.1543
11.2093
8800.66
2400.07
579.534
131.336
23.1536
7507.79
1416.11
329.192
77.9622
14.2736
8428.94
2446.74
625.473
148.705
27.1208
7474.26
1398.28
326.259
77.8493
14.3409
8398.82
2432.61
625.676
149.814
27.461
34682.5
48676.5
43419.1
31759.6
23797.5
28199.7
23636.3
28235.7
26515.2
41099
28572.4
44692.8
239.685
256.733
294.751
355.343
439.292
547.677
254.124
270.97
308.284
367.021
448.182
553.376
227.868
221.956
245.25
239.312
284.512
278.838
348.987
345.636
438.848
442.209
557.094
574.025
680.498
853.326
1094.74
1457.89
1815.46
2102.85
685.513
851.209
1057.55
1298.77
1521.64
1670.21
641.845
941.892
1183.92
1353.58
1440.97
687.291
1008.14
1266.66
1447.72
1540.92
788.662
1155.9
1451.22
1657.71
1763.91
949.986
1390.54
1743.73
1990.16
2116.76
1172.87
1713.38
2144.83
2445.14
2599.3
1459.23
2125.26
2653.85
3021.01
3209.63
680.37
998.151
1254.34
1433.84
1526.26
725.233
1063.43
1335.74
1526.35
1624.43
824.61
1208.04
1516.09
1731.39
1842.09
980.788
1434.77
1798.36
2051.98
2182.29
1195.94
1745.77
2184.25
2489.56
2646.45
1473.37
2143.91
2675.74
3045.76
3236.34
610.247
895.663
1126.01
1287.54
1370.75
594.42
872.486
1096.96
1254.41
1335.52
656.632
963.375
1210.69
1383.97
1473.18
640.76
940.176
1181.66
1350.9
1438.03
761.396
1116.25
1401.81
1601.57
1704.31
746.266
1094.22
1374.34
1570.34
1671.16
933.174
1366.34
1713.81
1956.28
2080.83
924.291
1353.53
1697.96
1938.34
2061.79
1171.87
1712.31
2143.76
2443.9
2597.85
1180.84
1725.38
2159.97
2462.14
2617.03
1484.41
2161.97
2699.26
3071.83
3262.84
1529.18
2226.27
2778.09
3159.89
3355.27
1807.04
2619.25
3258.95
3703.5
3933.05
2252.72
3238.57
4007.11
4545.55
4828.29
2858.03
4045.91
4959.06
5619.37
5982.89
3726.27
5121.04
6175.4
7016.63
7536.99
4514.72
5991.02
7108.99
8140.39
8899.86
5115.81
6597.94
7733.26
8933.89
9922.56
1818.92
2633.96
3276.01
3723.7
3955.96
2246.48
3229.21
3997.03
4537.3
4822.47
2768.26
3935.41
4839.14
5489.66
5845.31
3361.07
4705.83
5739.01
6516.34
6967.71
3889.46
5360.15
6487.96
7386.42
7948.4
4232.45
5769.75
6951.56
7937.42
8586.54
242.815
266.239
311.147
379.373
471.701
589.036
257.303
280.6
324.714
390.68
479.333
591.775
230.94
224.989
254.652
248.622
300.898
295.136
373.468
370.234
472.599
476.359
602.414
622.354
729.792
907.579
1147.65
1497.88
1838.45
2109.64
729.718
898.134
1102.13
1334.58
1544.32
1677.84
650.242
954.284
1199.61
1371.63
1460.24
712.873
1045.99
1314.65
1502.97
1599.96
832.831
1221.37
1534.37
1753.6
1866.48
1014.84
1486.98
1866.62
2132.26
2268.99
1260.6
1844.47
2312.72
2640.06
2808.59
1571.68
2294.46
2872.06
3275.79
3484.08
688.917
1010.79
1270.37
1452.31
1545.99
751.171
1101.86
1384.53
1582.6
1684.58
868.907
1273.79
1599.73
1827.94
1945.44
1044.69
1529.9
1919.72
2192.45
2332.87
1280.3
1871.9
2345.91
2677.35
2848.17
1577.77
2300.98
2878.32
3282.3
3491.16
618.493
907.829
1141.4
1305.23
1389.63
602.562
884.492
1112.14
1271.84
1354.12
681.916
1000.74
1258
1438.39
1531.31
665.785
977.135
1228.44
1404.67
1495.45
805.51
1181.57
1484.7
1697.07
1806.42
790.127
1159.13
1456.66
1665.15
1772.49
999.232
1464.52
1838.86
2100.83
2235.65
990.655
1452.14
1823.55
2083.48
2217.23
1263.29
1848.99
2318.93
2647.39
2816.42
1273.43
1864.03
2337.97
2669.18
2839.58
1607.8
2348
2939.69
3353.02
3566.04
1661.1
2425.96
3037.24
3464.02
3683.82
1941.97
2824.36
3526.19
4018.09
4273.49
2402.95
3470.9
4314.76
4912.43
5228.2
3007.97
4285.2
5284.85
6016.54
6421.28
3845.81
5323.84
6464.88
7383.56
7951.43
4589.15
6126.25
7310.33
8405.87
9209.49
5139.89
6644.64
7805.3
9032.51
10040.8
1939.8
2817.48
3514.82
4004.59
4259.78
2375.94
3428.39
4259.6
4849.36
5161.99
2893.01
4131.24
5102.09
5806.84
6193.4
3463.49
4871.22
5966.52
6796.33
7278.72
3955.98
5470.69
6643.45
7581.6
8168.21
4255.27
5808.46
7006.86
8007.87
8666.7
4152.83
2990.08
926.396
743.701
897.518
773.492
924.319
3917.39
3830.51
2727.66
3219.93
1684.32
2201.3
1452.63
1621.46
1383.12
3539.31
2234.9
1534.41
1424.59
1692.32
1485.62
1188.71
1213.67
1183.47
1069.76
1322.69
1244.83
3688.47
2453.39
2575.76
1880.39
1624.1
2181.7
1231.96
1028.36
1359.42
8839.25
9379.59
9831.59
12368.4
21940.9
6784.46
7894.88
8774.49
10472.2
12410
2455.25
3550.74
4416.56
5027.96
5349.37
1979.82
2880.97
3597.9
4099.79
4359.88
2386.95
3468.27
4325.75
4925.1
5235.8
2059.92
2998.97
3745.97
4267.94
4537.83
2454.17
3557.96
4431.68
5044.91
5364.78
9082.97
10562.1
11359.5
13800.6
23341.7
8946.52
10526.2
11593.4
13793.4
17671.8
6592.78
8306.74
9544.89
11085.4
12566.9
7990.81
9928.25
11030.2
12715.7
14962.6
4342.23
6035.5
7323.61
8319.78
8931.84
5513.03
7322.08
8641.46
9849.28
10770
3796.31
5382.22
6607.76
7501.34
8002.65
4203.41
5890.18
7179.37
8147.34
8717.07
3629.49
5175.53
6375.53
7237.1
7708.45
8244.51
9690.71
10484.5
12779.3
21646.2
5536.15
7242.49
8509.13
9829.37
10914
3982.67
5593.43
6834.63
7773.39
8326.14
3712.27
5243.75
6431.47
7318.96
7829.74
4334.97
5974.32
7229.74
8258.68
8926.33
3851.08
5394.97
6586.09
7504.49
8044.8
3118.83
4446.08
5482.83
6240.12
6655.8
3191.83
4566.4
5641.82
6417.06
6838.43
3128.22
4506.55
5588.01
6350.73
6754.23
2834.28
4096.6
5091.41
5790.84
6157.93
3474.59
4962.81
6122.34
6956.03
7411.39
3276.16
4691.98
5799.35
6593.37
7023.59
8228.55
9201.72
9797.83
12151.7
20981.5
5822.78
7214.4
8275.3
9705.69
11113.5
6596.54
8394.5
9409.01
11277.5
13216.8
4738.1
6337.69
7534.89
8673.17
9445.29
4172.48
5754.99
6960.37
7952.64
8557.33
5473.99
7160.77
8357.63
9700.69
10610.8
3232.26
4608.33
5682.77
6465.87
6896.38
2723.16
3933.4
4887.7
5561.24
5916.09
3550.6
5030.6
6180.89
7033.64
7515.62
9485.58
8822.43
7771.4
6434.98
4662.53
1817.05
18859.7
20078.8
21548
22168.7
20369.9
20658.6
20775.6
21350.6
16402.1
18697
18581.4
18685.9
24754.2
17233.7
26764.7
17809
19092.1
20282.7
20509.9
19622.2
20841.9
19904
21067.8
16929.5
24757.2
19084.1
24107.6
25637.7
20961.1
30895.4
16632.9
17740.6
18519.1
18385.7
18555.1
20259
18619
20405.1
19127.5
23979.9
21472.5
23644.8
26804.4
23519.9
29758.2
15487.7
16517.1
16848.4
16507.5
17620.9
19878.3
17327.1
19683.4
17424
22130.1
19426.2
21047.9
23661
20824.3
26845.4
14348.1
15403.6
15535.4
15136.5
16784.5
19453.6
16050.9
18324.3
15479.3
18063.6
17510.3
16924.3
20712.9
17723.2
21702.3
13248.5
14279.7
14480.4
14072.3
15435
17622.6
14998.8
16961.3
13397.6
14619.9
15341.9
14206.9
18274.6
15019.8
19011.6
21880.1
22030.1
22707.3
23689.4
22651
23368.5
21807.5
22648.1
18864.9
12066.4
20018.3
11913.7
20123.4
16688.9
17151
20971.2
21427.4
21152
21639.7
22068.6
22869.6
20681.3
21686.2
16844
12073.9
17629.1
11794.7
17468.3
15749.2
15925.9
18494.2
18974.5
18991.1
19031.1
19760.5
20438
19007
20348.7
15618.2
12836.2
16521.6
12226.2
17014.4
14281.6
16552.1
16119.1
16753
16989.4
16747.4
17756
18460
17529.9
18997.6
13879.6
13958
14857.8
13108.2
15502.7
13067.4
17526.2
14544.8
15322.4
15526.4
15199.6
16475.3
17746.4
16094.7
17460.6
13001.4
15496.8
14394.2
15356.6
15760.1
14442.4
20037
13138.1
14018.2
14401.1
14035.2
15659.4
17400.6
14987.4
16582.7
12702.8
16763
14552.1
17407.1
16536.5
15257.1
22348
12394.9
6682.06
22076.5
14415.6
21264
18058.2
31379.5
38830.4
47745.7
60395
25288.2
22188.5
15576
10700
9920.74
5523.79
21128.8
19131.9
19075.3
18932.3
24263.2
23339.4
27989.5
24141.9
7299.77
5165.4
3767.19
2635.68
10884.8
7044.79
6034.7
3913.97
21400.6
22698.3
19246.2
15763.8
15591.6
12144.7
13177.8
12576.4
17638.7
17314
35827.3
39439.9
25721.7
27171.5
18474.3
14540.9
18904.1
13283.2
8029.55
6923.1
5865.79
8608.4
2900.8
3901.38
7922.2
11743
4977.49
6779.23
8095.01
14080
6167.15
10066.7
1933.51
6770.93
341.542
4851.22
18185.5
21888
19033.7
21635.9
22993.8
23457.3
23382.3
22850.4
16909.2
20439.3
16941.2
20170.3
19047.8
21450.6
18680
21292.7
23524.8
22493.6
23508.7
22289.8
15863.8
20462.5
14466.1
20363.2
17339.7
18476.4
21844.6
30424.4
18140.6
21252.5
21709.1
33140
16417.8
16402.8
21740.1
28941.7
15784.8
15080.4
21714.1
28215.4
4266.6
5390.2
11592.1
18910.9
5211.41
5814.53
14598.1
21471
6227.41
6480.12
17881.3
24295.3
24784.8
27702.3
20706.4
18816
25333.6
28254.3
24306.2
20747.1
17420.1
28563.8
25899.6
23743.1
19789.2
20108.8
37266.3
1546.58
2038.53
4128.61
8463.02
2242.37
3093.28
5590.2
10034
3382.28
3267
7515.56
12007.6
27668.2
27822.5
22846.4
22046
19093.4
17144.6
13864.1
12369
10575.7
15635.1
24454
22265.1
22467.1
21244.4
18838.7
17549.2
16077.7
14315.1
12615.8
17196.9
23006.6
24548.6
23772
26140.7
23324.8
21613.3
23614.9
22693.2
20657.1
20922.5
20387.7
20310.6
24157.3
26763
23948.6
26470.9
23884
23613.5
23573.2
23403.1
20461.1
20761.3
20700.3
20899
17627.1
17450.4
12062.4
14383.9
17775.3
17188.3
12396.3
14846.3
17147.9
17205.6
11922.3
14412.8
17298.7
17013.3
11810.6
14072.1
1769.65
1461.19
1089.91
1002.54
873.336
864.455
2695.42
1944.09
1536.79
2361.5
2129.39
1863.05
2892.58
2845.32
3049.74
4259.98
3747.26
3459.53
26804.3
24137.1
22229.1
22221.7
21050.3
20026.1
15130.2
14619.2
14359
10652.9
10199.5
10023
6919.02
5183.02
4277.23
21184.4
19747
18676.3
21045.8
19817.7
19094.1
15617.5
14047
13175.9
11184.3
9975.37
9435.93
7336.05
5494.94
4534.48
28109.5
29225.9
29866.7
27501
27399.1
27469.2
32633.4
28187.6
17815.8
19775.6
17703.2
17605.5
23853.6
21007.2
23303.5
18406.5
25655.3
26824.5
22009.7
24781
28912.1
25321.1
28558.9
29611.9
30203.7
32332.5
24543
25151.8
21358
21029.7
24399.7
23534.9
16521.3
9319.3
15406.7
10323.5
16045.4
9138.23
14840
10002.7
14674.4
8449.62
13780.4
9501.89
13523.3
9874.36
12976
9859.23
22560.1
17904
22023.1
17960.7
25192.2
22641.1
25171.9
22193.9
20309.3
14151.6
21184.5
13727.7
22385.5
17977.8
22950
17917.6
25706
22004.5
26102.6
21879
19712.2
14297.2
19543.3
14279.7
12053.8
8239.71
10704.7
6674.47
11161.1
7357.95
10042.7
6093.98
12309.4
8746.99
10989.7
7000.63
12371.2
9087.47
11057.9
7195.69
2634.23
1409.17
4853.77
2638.47
2740.64
1651.01
4930.26
2943.53
2987.38
2216.05
4874.75
3411.5
13591.6
22715.3
8763.62
7903.1
5501.39
23270.4
15014.4
8383.84
7431.85
4232.9
22434.6
16284.5
11929
8677.48
5162.52
1002.15
985.426
1759.47
1676.28
1277.59
996.543
2191.53
2007.42
1814.4
1617.35
2686.31
2411.64
23683.9
22804.9
15153.3
13970.8
9503.93
9242.36
7254.4
7042.51
3876.82
3506.57
20652.1
17862.4
15109.9
13124.5
11298.2
10404.7
7947.53
7743.44
4777.27
5468.72
14265.4
11407.9
14373.5
10737.4
18149.1
13533
18370.8
13264.5
11727.7
9566.51
11615.4
10225.1
14814.3
10218
14914.1
10309
19224.8
13583
19146.7
13661.5
11793.7
8965.78
11966.3
9319.29
8319.56
7731.21
5316.65
7342.42
8445.98
8120.04
5414.19
7256.02
8284.81
7505.42
5156.97
7679.37
8712.35
7559.93
5376.46
7589.31
2493.01
2000.61
1570.05
9526.23
4652.89
3560.45
2313.97
2178.34
1858.17
9997.15
5447.82
4394.36
2848.32
3039.07
3054.42
10445.9
6675.39
5855.01
20690.7
18891.4
17583.7
13295.7
12595.2
12108.2
9665.93
9356.79
9180.4
8516.43
8104.87
7927.3
11930.2
8680.7
7787.06
15347.4
13887.5
12895
11733.3
10795.2
10238.2
10358.9
9405.29
8703.6
9952.7
8935.91
8384.97
15342.5
10793.3
9868.84
4953.86
2964.71
2194.17
2097.72
5579.74
3211.71
2287.8
2150.93
4799.25
2913.2
2185
2123.12
5537.38
3218.98
2310.03
2165.33
4527.12
2840.35
2198.76
2086.46
5379.83
3246.8
2367.38
2121.12
5654.53
3387.53
2391.97
2257.6
5819.97
3536.41
2496.61
2349.93
4830.74
3016.47
2280.77
2112.45
3825.24
2605.08
2110.08
1988.55
4146.04
2705.71
2164.26
1932.68
3395.14
2401.3
2011.48
1889.24
5235.77
3242.98
2375.24
2225.76
4090.92
2764.56
2184.14
2054.35
5466.91
3403.3
2460.85
2280.29
4241.74
2882.22
2250.5
2079.51
3686.56
2545.7
2043.78
1977.37
2320.5
2039.79
1846.33
1821.72
3559.88
2498.67
2037.06
1976.09
2300.53
2031.58
1841.99
1832.25
3366.46
2428.73
2032.23
1960.76
2365.53
2058.96
1843.94
1868.24
3149.85
2317.93
1982.61
1950.5
2378.59
2059.63
1871.78
1868.86
2829.35
2199.6
1890.62
1819.48
798.555
1558.9
1455.15
454.951
-1013.62
1287.73
1256.03
436.936
977.982
1624.42
1481.19
481.284
-738.632
1366.09
1278.65
444.828
1254.76
1720.04
1506.92
479.014
-326.463
1486.42
1305.76
446.905
1631.34
1836.58
1542.29
509.533
137.739
1631.57
1349.04
463
2147.07
1990.96
1607.56
569.876
569.436
1764.34
1391.34
476.215
2487.81
2169.2
1650.34
530.46
425.563
1905.59
1480.36
495.961
2445.61
2090.95
1612.4
533.242
498.681
1852.71
1432.15
482.957
2457.44
2227.15
1690.9
499.05
298.109
1955.47
1520.07
497.624
2442.71
2304.8
1763.77
516.372
462.767
2034.92
1575.4
512.485
2044.21
1594.14
1126.72
668.329
221.24
2047.65
1595.61
1127.94
669.035
221.463
2082.02
1607.81
1133.03
671.204
222.073
2080.05
1611.53
1135.98
672.84
222.588
2104.48
1621.99
1139.73
674.261
222.958
2089.81
1632.86
1147.54
678.455
224.269
2161.11
1661.73
1163.89
686.765
226.808
2200.25
1688.98
1180.36
695.288
229.425
2161.29
1650.88
1154.87
681.69
225.203
2223.7
1660
1156.48
682.024
225.257
2124.25
1637.3
1146.78
677.501
223.902
2208.6
1651.42
1151.55
679.483
224.466
2189.49
1667
1164.69
686.822
226.792
2249.87
1675.88
1166.01
686.988
226.797
2215.7
1695.5
1182.54
696.122
229.659
2280.63
1703.54
1183.37
696.081
229.614
2042.71
1593.32
1125.47
667.56
220.993
2075.75
1594.72
1124.85
667.112
220.852
2068.29
1604.38
1130.31
669.688
221.598
2099.14
1604.65
1129.11
668.966
221.379
2105.8
1618.54
1136.32
672.325
222.345
2145.63
1618.23
1134.7
671.398
222.062
2161.5
1634.1
1142.95
675.316
223.201
2192.67
1630.98
1140.63
674.117
222.828
2195.83
1643.96
1147.64
677.533
223.859
8210.33
12696.5
8705.41
13113.6
9472.57
13729
10388.9
14790.5
11414.7
16606.7
10598.8
13082.7
10862
13983.4
10557.1
12941.5
10439.8
12914.7
6593.82
1175.4
258.083
57.9235
10.1993
7843.09
2163.17
526.054
119.16
20.7986
6766.6
1165.55
251.064
55.798
9.76494
8028.6
2180.67
523.119
116.898
20.3238
7067.53
1172.98
246.421
54.0411
9.39319
8364.88
2223.16
523.684
115.632
19.9592
7432.11
1175.73
240.828
52.3009
9.06376
8797.35
2276.24
527.939
115.722
19.9152
7744.06
1177.07
239.523