/*--------------------------------*- C++ -*----------------------------------*\
| =========                 |                                                 |
| \\      /  F ield         | OpenFOAM: The Open Source CFD Toolbox           |
|  \\    /   O peration     | Version:  2412                                  |
|   \\  /    A nd           | Website:  www.openfoam.com                      |
|    \\/     M anipulation  |                                                 |
\*---------------------------------------------------------------------------*/
FoamFile
{
    version     2.0;
    format      ascii;
    arch        "LSB;label=32;scalar=64";
    class       volScalarField;
    location    "2.5";
    object      gradTz;
}
// * * * * * * * * * * * * * * * * * * * * * * * * * * * * * * * * * * * * * //

dimensions      [0 -1 0 1 0 0 0];

internalField   nonuniform List<scalar> 
5712
(
7162.17
21769.2
5429.6
23824.9
2976.6
25254.3
5086.19
40050.8
8317.18
50303.8
8518.6
35658.6
9087.73
31677.5
8953.57
27200.6
4211.12
2276.26
12691.2
5973.56
3929.19
1799.89
13697.9
5505.99
5471.1
4018.66
16158.4
11777.5
3666.63
2872.11
16255.2
12271.1
8230.75
2987.23
6215.04
2244.54
2831
7617.27
39134.1
11963.4
11734.5
5429.36
47558.3
14917.3
10969
5164.64
25873.4
8627.66
13179
6010.86
21028.2
6689.76
4793.47
2601.57
8542.93
3447.7
4245.82
2693.61
8973.3
3376.59
5706.84
3628.41
5621.62
2350.67
10052.2
3623.93
3959.8
1460.43
12256.2
9198.75
7446.06
6663.58
13786.2
12072.5
7481.66
7980.09
6876.91
5881.26
8928.07
7618.75
5554.59
4770
3233.3
2774.11
5557.21
5542.48
3187.06
3188.95
5305.09
4145.92
3106.25
2183.33
5890.05
3312.42
5895.68
6524.48
7796.71
5941.11
8412.76
11136.1
4316.45
1843.81
3795.33
3928.74
2449.73
854.031
1741.85
1508.58
5439.54
11044.9
3983.39
12508.9
5880.69
11198.6
4751.33
13328.7
7781.31
11143.4
6602.28
13590
8722.81
10573
6651.34
6662.99
8190.18
6972.72
7609.9
10445.4
12162.7
17868.3
9415.72
7537.26
7143.62
9059.56
14483.8
13779
13348.4
16112.9
16228.8
13461.9
13493.4
16174.5
16102.1
12436.6
12921.1
15529.9
15692.9
8783.6
9325.63
8507.95
8985.01
10315.7
10315.6
12044.4
11715.9
15191.2
15366.7
8019.72
8796.99
9017.88
9601.44
10030.3
10802.1
11533.6
12631.8
15173.5
16469.3
9368.12
6389.54
7587.2
7671.18
10542.1
12036.4
8574.02
11376.8
6936.95
7075.14
8817.8
6323.16
3186.73
5539.74
1304.51
2062.04
5309.47
8439.98
2084.04
3163.1
2657.09
4841.49
989.126
1761.26
6583.04
5628.19
6716.74
4196.12
9262.38
6599.66
10523.1
7015.86
3059.75
3587.87
3819.22
2164.14
2369.62
2594.48
2645.2
2008.73
11581.7
7613.53
2484.08
12546.2
7881.9
2722.48
11413.3
7447.78
2525.94
12540.7
7862.26
2660.14
10916.3
7013.99
2348.65
12341.1
7746.61
2661.35
6650.87
3779.23
977.123
7832.81
5343.78
1735.35
8959.73
6312.32
2127.86
9888.6
6427.29
2102.99
11963.8
7505.29
2653.68
7356.68
4020.04
1312.18
7037.04
4541.52
1571.53
7878.73
5183.69
1767.17
9353.81
5996.85
2043.69
11344.3
6598.14
2279.98
-493.324
989.887
446.487
2636.78
1757
1782.6
4536.21
3982.84
599.831
975.318
635.693
1023.27
337.441
944.313
625.265
1384.92
1895.59
1134.63
3823.75
2702.56
1753.85
2886.39
2923.31
845.568
5824.62
1859.05
-4073.81
-566.263
699.362
728.299
54.4323
219.077
10344.8
4600.53
2749.03
1651.27
10194.7
4670.82
2998.56
1951.67
9881.22
5132.62
4053.83
2914.07
3103.96
2053.04
1760.76
1603.28
13091.6
11453.4
5746.37
7344.29
14587
13626.8
7102.82
8523.44
5267.5
6356.87
11178.1
9245.09
3664.25
4796.63
2123.15
2797.54
4754.09
5558.7
2755.56
3192.24
3008.77
4198
1703.06
2559.12
4730.01
3417.4
5381.34
3695.31
8110.75
4935.03
7235
4862.44
2826.19
2337.33
3736.72
2538.05
1602.49
1478.78
2366
1564.96
12126
8226.04
6036.17
6383
12024.4
8187.45
5978.01
6264.74
12161
7841.07
6103.97
5826.06
13198.7
12680.1
12383.6
9593.21
5645.26
7732.09
9384.89
10000.6
9466.51
6778.44
10973.2
9898.16
8269.16
6757.7
4515.92
7175.59
7233.85
7279.7
8947.75
7119.22
6973.68
7102.44
8736.15
6745.18
6533.99
6732.55
8332.98
8693.46
8221.75
8170.33
7052.04
6191.2
6241.46
6059.39
6378.97
5878.05
7832.72
6368.88
7221.64
5373.86
6126.63
4846.64
5566.26
4829.68
5841.73
4489.41
7187.9
4735.32
3798.32
3239.11
1712.98
7221.74
5491.96
5835.37
3673.55
2506.06
1441.19
3711.25
3358.53
4229.33
1828.22
1977.06
1087.08
5468.27
3117.47
2255.02
1552.54
3464.38
1485.43
1768.68
890.18
2170
2612.19
2731.78
4635.94
3271.35
4015.94
3311.96
6040.13
2577.48
1904.56
1994.66
3308.16
1178.31
482.613
459.415
854.383
5749.42
2636.7
757.821
6240.57
1662.69
438.54
5569.19
2730.75
850.985
6182.88
1706.73
471.479
5034.01
2483.95
639.804
5865.35
1575.08
355.1
5550.09
3023.08
792.466
4720.99
2525.81
701.062
4685.63
2347.41
667.498
4676.07
2209.38
510.174
5542.97
1384.05
234.269
6166.24
3235.11
998.358
5369.26
2924.49
962.073
4905.96
2570.31
843.19
4780.51
1954.07
526.781
5743.41
1420.41
450.222
1796.81
692.042
328.442
8.48033
728.17
296.357
152.938
29.5011
1859.68
742.672
391.458
73.6906
883.527
399.403
256.141
119.908
2137.75
889.552
512.602
158.82
1526.46
791.245
453.269
212
1131.89
711.46
353.597
117.639
1183.27
812.528
482.431
271.515
1795.28
857.441
447.828
46.673
1715.62
791.815
463.976
-41.4829
2256.86
952.6
555.468
122.413
2030.11
841.759
511.986
-70.2186
1366.04
751.586
396.313
52.5422
1336.65
701.525
430.166
69.8826
1019.39
656.422
418.716
244.876
933.009
588.368
407.475
235.36
2307.44
844.311
400.03
-86.4217
2427.75
824.061
438.322
-266.318
2302.27
857.101
434.378
-53.4514
2331.35
795.812
437.243
-247.548
2321.17
882.511
502.261
-0.998212
2090.01
721.305
434.364
-179.963
2157.36
851.735
555.089
141.911
2304
817.633
560.761
-176.793
1685.55
662.96
438.283
43.7731
2020.91
606.115
324.145
-249.656
797.622
215.517
98.8163
-60.1869
1992.5
615.062
335.404
-223.548
811.553
227.073
110.192
-46.0599
1866.98
599.859
351.319
-174.901
779.472
229.51
124.264
-25.5412
1571.14
515.123
338.803
-121.111
686.332
203.655
133.72
1.01302
1377.82
482.395
332.753
-48.1557
616.361
206.639
152.149
39.3579
1086.33
470.095
281.967
16.9229
565.428
288.811
180.663
97.0253
1158.52
426.272
280.737
-15.3272
560.139
231.404
161.776
71.1283
964.811
505.68
307.607
75.7637
575.005
343.325
212.787
133.547
751.431
489.516
331.977
200.85
533.214
371.406
253.175
189.845
15.2149
12.3825
8.23409
5.43531
4.13346
8.88441
6.41736
4.19173
2.77813
2.12846
37.5405
26.0013
16.3685
10.6113
8.01214
40.1717
25.5833
15.5614
9.96593
7.49773
90.0379
59.421
36.6385
23.6785
17.8911
179.467
110.092
66.7723
42.8461
32.2597
184.783
116.144
71.3328
46.0468
34.7963
201.1
122.451
74.3403
47.8075
36.1258
119.801
79.5472
49.5619
32.1423
24.2198
94.5539
62.564
39.0384
25.4039
19.1758
124.327
79.4198
48.6526
31.4767
23.7587
96.6472
56.2109
33.8324
21.8329
16.4156
134.405
93.1507
58.6671
38.1961
28.9019
130.427
86.1715
53.6898
34.887
26.3731
179.29
111.835
68.2218
43.9305
33.1865
172.182
107.845
65.8898
42.4434
32.022
6.01154
9.78409
6.83265
4.55016
3.47217
-0.545852
3.65159
2.68671
1.82615
1.41646
19.2921
17.261
11.282
7.40454
5.64275
2.31149
5.37125
3.72006
2.48871
1.93147
32.8797
26.6397
17.0017
11.1475
8.52822
19.0799
13.973
8.52947
5.45551
4.17128
104.019
65.6021
39.7424
25.7575
19.5685
51.8754
32.6127
19.5388
12.6039
9.59797
133.055
72.3135
42.3828
27.076
20.3673
2355.72
4086.41
2216.58
3962.3
2057.16
3682.76
1999.37
3536.75
2192.81
4057.87
1274.54
1890.6
1786.39
2842.54
835.811
1127.29
318.35
446.285
6970.84
1676.25
383.84
84.8898
21.2191
1855.02
491.263
131.407
29.3876
6.53632
6925.18
1641.94
373.175
81.9205
20.3815
1916.12
557.359
136.832
31.6752
7.91818
6695.52
1559.99
350.646
76.3694
18.891
1860.14
539.44
131.426
30.1144
7.45643
6299.35
1438.55
320.325
69.4868
17.172
1791.37
507.893
121.255
27.3353
6.67234
5542.56
1246.05
277.108
60.3307
15.0069
1672.15
452.391
105.537
23.4914
5.68082
3126.96
750.157
172.674
38.45
9.72701
850.378
215.904
46.8402
9.64644
2.19436
4356.76
1016.09
229.769
50.5428
12.6852
1188.04
310.638
70.9464
15.5968
3.75143
1961.9
482.692
112.701
25.3368
6.44493
542.591
140.839
30.0067
5.87127
1.27032
719.672
179.112
42.1333
9.53466
2.43779
262.833
61.7619
12.3171
3.34266
0.46893
-1210.13
631.493
4127.89
-3520.12
966.702
1031.04
2582.01
3148.71
2127.65
3437.18
2836.12
4286.3
2702.3
3531.25
1292.36
1885.12
1411.4
1643.46
986.932
1022.58
2860.38
2263.6
-385.612
-946.826
-1028.15
-1374.12
-734.772
11851
3047.41
4005.22
3264.7
332.093
-71.057
3280.39
-1037.45
-473.991
-863.541
-300.483
5853.87
2995.28
1316.7
732.838
3276.27
1487.48
199.591
363.679
-1162.75
-1157.4
835.668
708.334
9264.28
4583.04
4466.72
2578.53
3433.26
3142.85
-56.8398
-1134.75
264.224
2020.94
1806
1610.86
1534.03
1200.86
1825.59
1493.89
1229.59
922.664
371.93
-346.131
-288.175
-211.622
-126.635
-41.7758
-846.073
-707.687
-531.072
-328.685
-111.203
-918.728
-768.031
-575.285
-355.119
-119.981
-1229.16
-1029.14
-772.541
-477.957
-161.693
-650.022
-536.017
-394.649
-239.608
-80.2203
8912.2
8326.65
7275.41
7004.63
6735.41
2892.1
2419.63
2258.32
1953.02
914.151
3305.26
2684.66
2306.99
1877.81
895.92
2555.3
2042.01
1724.76
1324.83
513.755
287.651
208.265
229.035
192.402
104.4
10.3068
77.9901
113.107
101.947
41.1159
2744.74
2222.24
1756.73
1239.83
478.823
-661.681
-355.962
-181.959
-82.9663
-26.7463
-380.588
-272.599
-165.723
-79.3761
-21.3752
-630.141
-410.73
-242.989
-124.264
-38.4891
-279.558
-237.384
-173.27
-101.057
-32.111
4093.29
4094.99
3643.15
3694.02
3825.69
2498.15
1994.86
1699.7
1331.93
539.209
1220.5
1083.49
902.943
635.252
235.097
651.469
557.734
455.306
317.222
116.565
2756.42
2216.49
1710.23
1153.2
424.006
1341.3
1137.93
898.541
591.192
196.171
173.093
147.951
126.416
93.0514
34.3545
333.218
292.933
240.978
165.101
58.6285
-1009.91
-816.95
-592.539
-356.523
-118.769
-1020.15
-837.738
-614.295
-371.565
-123.995
745.247
634.831
503.103
336.238
120.589
630.744
536.549
425.535
284.437
101.531
6180.76
5065.06
4574.44
4537.51
3891.49
3610.51
2890.82
2354.88
1774.63
751.048
3584.41
3080.24
2645.48
2223.67
966.765
2071.08
1727.05
1408.77
1042.19
475.791
2958.2
2426.95
1875.78
1241.87
440.731
2648.44
1926.46
1609.77
1213.43
229.139
-44.5399
-24.5419
2.7901
18.1909
8.79291
-1007.82
-834.676
-616.806
-375.216
-125.623
252.735
233.638
209.096
154.532
54.8097
-28188.2
-44169.6
-21316.1
-37554.5
-22718.1
-52863.8
-29901.1
-64262.9
-15925.1
-10650.4
-17724.7
-9503.59
-14884.6
-9761.34
-17884.5
-8469.3
-23147.4
-16243.1
-32128.6
-23134.4
-18209.9
-13306.1
-27675.8
-20703
-13999
-14184.8
-9777.25
-9388.21
-11850.2
-12577.2
-42317.5
-13009.6
-13489.3
-6419.9
-49839.5
-15819.7
-12251.9
-5890.39
-29559.1
-9745.26
-14994.5
-6999.63
-24794.1
-7570.77
-11077.2
-4707.67
-15209.3
-5715.45
-9634.35
-4302.19
-14074.6
-5016.85
-10033.1
-4838.83
-8596.55
-3279.99
-12195.1
-4330.4
-4782.78
-1770.38
-9992.71
-7171.99
-8161.54
-6065.98
-8691.64
-7404.02
-7269.62
-6366.34
-8144.78
-5934.24
-9394.63
-7355.8
-6134.48
-4491.89
-3647.92
-2582.56
-5558.51
-4670.5
-3187.56
-2549.58
-6182.44
-4234.31
-3713.3
-2263.66
-7264.49
-3844.35
-6187.03
-6669.61
-9420.41
-6610.23
-8770.05
-11325.5
-5186.65
-2177.16
-4004.04
-4029.48
-3030.3
-1082.73
-1905.08
-1584.69
-9705.37
-12360.3
-5545.87
-13921.6
-9617.33
-12060.7
-6056.59
-14401.4
-10647.8
-11656.5
-7529.83
-14113.9
-5938.26
-3655.65
-7611.06
-8834.07
-9071.24
-5479.71
-7574.6
-11345.9
-12958.1
-18337.9
-4906.28
-5578.91
-6794.28
-9255.45
-14678.2
-13064.7
-10765.8
-16182.7
-13423.3
-12691
-11057
-16200.6
-13532.6
-11607.4
-10281.4
-15318
-13448.4
-8089.97
-7596.13
-8018.38
-7247.83
-9194.89
-8171.25
-10554.4
-9332.81
-14714.6
-13502.9
-6687.01
-7337.6
-7408.69
-7221.92
-8461.8
-8212.75
-10253.8
-10163.3
-14687.2
-14429.4
-7877.26
-5366.32
-6601.63
-6759.44
-8282.26
-10452.6
-6970
-9898.64
-6452.52
-6529.26
-8009.39
-5650.8
-2509.06
-4839.31
-708.171
-1473.84
-4125.47
-7342.47
-1094.6
-2263.06
-2332.17
-4427.9
-683.289
-1404.69
-6402.03
-5351.19
-6676.93
-4085.39
-8885.29
-6170.36
-10408.7
-6729.35
-2938
-3383.54
-3778.09
-2081.89
-2232.62
-2400.07
-2585.3
-1914.91
-7851.52
-3034.37
-8351.8
-2906.72
-8041.45
-3012
-8764.46
-3229.23
-7692.8
-2835.35
-9493.19
-3753.14
-4264.93
-1000.98
-5054.27
-1811.45
-5834.41
-2275.57
-7060.2
-2677.72
-9459.34
-3668.29
-5212.32
-839.617
-4443.99
-1485.99
-5099.71
-1877.34
-6630.23
-2458.71
-8569.97
-2800.72
-6109.15
-5957.26
-3889.88
-3791.04
-9682.53
-7693.97
-7452.38
-5906.31
-5355.7
-5003.05
-2046.67
-1696.98
-5007.89
-4894.01
-1739.4
-1669.01
-2388.75
-5681.47
-3640.28
-6866.07
-4730
-1946.52
-3010.1
-625.871
-6451.92
-2171.88
4092.59
1332.7
-134.731
72.0413
1122.06
1322.34
-2679.26
-1513.49
-1054.91
-444.69
-2664.64
-1662.46
-1133.43
-417.838
-2922.46
-1995.57
-1208.3
-246.408
-969.623
360.494
406.314
1071.3
-5025.26
-4961.39
-3675.08
-4216.57
-7181.82
-6942.18
-5832.16
-5857.73
-2512.33
-3240.62
-4111.75
-3961
-2466.35
-2824.54
-1144.5
-1206.04
-4123.58
-4027.91
-2275.52
-2027.83
-1256.76
-2015.16
-240.673
-690.675
-1639.08
-1033.11
-2634.25
-1614.28
-2803.31
-2165.08
-3289.15
-2490.85
-645.19
-208.498
-1591.96
-651.994
275.227
562.85
-409.094
254.197
-3070.59
-3190.15
-2664.25
-4287.9
-3160.36
-3341.24
-2809.78
-4395.28
-3730.19
-3463.48
-3189.4
-4305.65
-2169.54
-2563.01
-2824.08
-2831.47
-2712.17
-4308.85
-3494.66
-3396.53
-4289.05
-4747.99
-4399.3
-3405.21
-2975.98
-2859.25
-2326.71
-4310.71
-5511.03
-7450.14
-12891.8
-4109.72
-4670.41
-7003.55
-11991.1
-4141.9
-5066.84
-6430.08
-10734.7
-7454.16
-6448.49
-6061.06
-5349.76
-4367.13
-4855.13
-4724.35
-5774.7
-5534.17
-9616.51
-5050.54
-5879.63
-3735.3
-4838.48
-3180.29
-4452.77
-3513.32
-5229.93
-3378.33
-7685.39
-2306.62
-2465.39
-1225.47
-261.418
-4639.4
-4104.4
-3854.88
-2215.11
-634.447
-102.83
-1660.38
-2197.75
-2515.19
-598.847
-457.836
19.1504
-3875.8
-1892.1
-920.091
-479.072
-1801.69
-355.387
-206.507
164.128
-641.214
-1628.54
-1623.73
-4194.39
-1723.34
-3274.22
-2385.13
-6066.17
-1122.37
-977.232
-706.231
-2622.49
303.994
476.994
886.738
-37.6869
-4642.94
-1524.07
-9492.88
-1354.9
-4000.4
-1648.02
-8968.94
-1344.24
-3568.56
-1061.89
-7473.65
-720.004
-3491.35
-755.562
-3108.41
-739.189
-3602.49
-1085.68
-3510.54
-588.828
-6702.89
-612.677
-4282.07
-538.665
-3862.98
-582.881
-3962.39
-787.324
-4158.77
-438.716
-6627.81
-685.981
-701.085
-203.078
-63.0535
181.89
-217.721
-52.2311
-19.9148
52.4557
-674.3
-163.551
-53.784
179.112
-90.3955
36.1191
11.3881
63.2971
-728.385
-131.236
-21.4657
262.49
193.433
284.79
331.896
439.059
721.104
545.223
551.882
556.836
1047.58
758.989
615.552
452.288
-295.904
98.4362
238.827
505.351
-295.985
143.657
185.538
562.065
-842.042
-126.08
18.6119
422.113
-670.271
-12.3786
34.5559
567.493
203.987
324.025
371.751
523.165
93.1661
300.01
296.536
494.831
621.806
510.556
440.443
388.549
502.754
449.35
366.915
368.8
-1156.21
-345.007
-147.682
316.036
-1585.77
-425.749
-281.936
513.04
-1127.91
-313.02
-148.393
312.696
-1537.31
-402.478
-276.21
494.387
-1122.2
-274.445
-172.051
299.875
-1386.37
-348.559
-268.29
432.167
-769.607
-93.5912
-91.6042
332.477
-1307.25
-264.363
-278.668
543.837
-573.824
-22.1208
1.26448
487.375
-1570.74
-331.893
-224.824
444.448
-689.227
-122.296
-56.1631
124.217
-1410.37
-281.5
-205.911
427.042
-639.459
-106.726
-52.6591
119.418
-1143.84
-191.289
-185.606
378.505
-532.224
-73.1507
-45.2968
113.224
-889.336
-122.615
-159.864
324.267
-447.829
-54.3076
-45.3285
100.545
-597.022
-34.1605
-78.6106
311.739
-248.354
6.09449
-12.1163
103.836
-220.122
121.099
149.092
385.285
151.819
196.525
165.35
208.252
-507.568
-14.715
7.17534
326.197
-28.2273
96.0024
66.9006
145.736
118.318
278.835
261.412
403.065
278.741
285.84
241.512
248.681
437.24
404.21
314.477
322.09
393.856
346.756
265.3
236.343
54.5345
19.6415
9.28557
5.45475
4.02129
23.4618
9.10321
4.43138
2.60588
1.90779
76.8155
32.762
17.2472
10.5803
7.91767
57.0627
28.1253
15.904
10.0074
7.54349
140.513
66.1833
36.706
22.8485
17.1432
210.045
114.743
66.7023
42.2167
31.8694
218.953
122.377
71.3246
45.0679
33.9331
213.944
124.658
74.2444
47.3325
35.7002
179.155
89.199
50.1663
31.368
23.6631
146.236
70.2259
39.1465
24.3599
18.3477
174.418
84.287
47.3495
29.5181
22.1932
111.285
56.3714
32.1016
20.0524
15.1425
203.437
105.048
59.678
37.3803
28.1213
181.113
94.6565
54.1231
33.9727
25.6132
200.064
115.112
68.2894
43.4673
32.7701
193.715
111.571
66.0856
42.0258
31.6984
58.8727
17.6755
7.86808
4.53649
3.32258
27.3891
6.95364
2.91064
1.62285
1.16061
67.9558
24.2046
11.9299
7.14282
5.27581
29.5334
8.49676
3.88269
2.2513
1.62139
84.5363
32.6114
16.8778
10.2223
7.53875
39.2782
15.9692
8.6806
5.41306
4.00158
142.725
66.037
36.8648
22.8002
16.9847
68.4322
31.7758
17.9449
11.1504
8.28096
123.184
67.6349
39.5156
24.9095
18.7811
-2779.53
-4197.04
-2653
-4107.21
-2443.02
-3819.72
-2306.6
-3636.14
-2317.72
-3968.87
-1306.51
-1868
-1842.69
-2796.58
-831.413
-1096.59
-288.458
-403.919
-7739.5
-1835.22
-415.887
-91.211
-22.6276
-2039.79
-537.503
-142.782
-31.6752
-6.98422
-7596.72
-1781.23
-401.485
-87.5332
-21.6388
-2115.65
-610.734
-148.585
-34.1174
-8.466
-7183.61
-1663.98
-372.293
-80.7407
-19.8847
-2046.17
-587.333
-141.874
-32.2712
-7.93943
-6588.72
-1503.48
-334.473
-72.4461
-17.8645
-1935.46
-544.725
-129.352
-29.0171
-7.05223
-5667.5
-1277.91
-284.635
-61.9941
-15.4136
-1754
-474.981
-110.73
-24.6015
-5.93799
-3138.18
-754.898
-174.196
-38.8608
-9.84402
-862.96
-221.279
-48.3986
-10.0304
-2.29517
-4396.25
-1028.74
-233.201
-51.3735
-12.9032
-1220.1
-321.332
-73.6437
-16.2065
-3.90014
-1961.76
-484.013
-113.317
-25.5353
-6.50823
-541.988
-142.503
-30.7418
-6.0956
-1.3386
-714.931
-178.996
-42.343
-9.63236
-2.47463
-254.529
-61.2825
-12.5491
-3.4659
-0.51606
756
-1448.65
-5289.31
1850.81
-6527.73
-2861.55
-6395.91
-2893.14
-10802.8
-5875.77
-12663.3
-6917.68
-126.314
-513.493
-796.481
-918.487
-807.645
-438.427
-201.02
-778.709
-1181.99
-1306.07
-1063.63
-398.959
-99.8694
-97.837
-374.227
-351.311
-481.794
-463.921
-340.104
-347.849
-221.682
-257.298
-379.282
-286.181
478.165
1766.38
3437.51
2740.28
2490.2
1207.13
750.887
2257.04
3742.64
4136.76
3522
1623.67
-113.932
-96.3335
-73.019
-45.512
-15.4557
-463.808
-392.863
-298.348
-186.247
-63.3031
-719.343
-609.236
-462.624
-288.788
-98.1567
-829.182
-701.92
-532.754
-332.451
-112.977
-728.694
-616.376
-467.4
-291.426
-98.9841
-395.924
-334.828
-253.356
-157.421
-53.3207
-181.235
-153.163
-116.045
-72.3107
-24.5539
-703.065
-595.239
-451.855
-282.008
-95.8423
-1066.95
-903.131
-685.504
-427.831
-145.409
-1178.25
-996.746
-756.219
-471.866
-160.367
-958.802
-810.45
-614.494
-383.31
-130.259
-360.211
-304.759
-230.958
-143.826
-48.8016
-90.1343
-76.2709
-57.8565
-36.0818
-12.2563
-88.3524
-74.8147
-56.7922
-35.4384
-12.0418
-338.12
-286.508
-217.654
-135.903
-46.1953
-317.476
-269.07
-204.448
-127.678
-43.4031
-435.251
-368.756
-280.096
-174.874
-59.4384
-419.121
-355.098
-269.729
-168.407
-57.2423
-307.244
-260.286
-197.661
-123.367
-41.9197
-314.098
-265.961
-201.898
-125.993
-42.8129
-200.101
-169.265
-128.234
-79.8226
-27.0736
-231.905
-195.915
-148.364
-92.3996
-31.3616
-341.385
-287.66
-216.951
-134.499
-45.5081
-257.361
-216.752
-163.537
-101.501
-34.3805
426.104
357.549
271.762
171.372
58.8226
1568.47
1311.76
995.536
628.254
215.919
3019.79
2510
1914.26
1225.91
427.027
2395.29
2013.42
1556.88
1018.31
373.802
2189.79
1844.21
1427.58
928.38
325.875
1092.77
936.403
728.94
468.637
160.109
670.149
562.073
425.562
266.735
91.1343
2009.35
1682.54
1274.42
800.668
274.219
3314.84
2768.02
2101.01
1328.66
458.098
3650.27
3047.86
2322.45
1480.23
515.807
3104.51
2593.63
1982.96
1269.91
442.728
1444.78
1217.99
937.696
602.251
209.693
295.605
678.927
953.915
1064.33
940.293
579.808
433.759
1003.76
1389.03
1481.11
1193.69
484.964
228.946
201.535
494.144
448.442
581.225
545.226
405.587
398.801
271.241
244.792
505.916
315.523
-316.16
-1533.86
-3018.79
-2189.58
-1808.62
-444.856
-687.64
-2153.82
-3500.89
-3702.18
-2882.91
-851.767
267.442
226.997
172.752
108.027
36.7512
613.926
520.729
396.019
247.511
84.1825
862.346
731.211
555.935
347.389
118.141
961.923
815.421
619.81
387.243
131.686
849.795
720.315
547.442
341.972
116.277
525.276
446.137
339.312
211.829
71.9606
392.371
332.968
253.362
158.422
53.8947
907.377
769.371
584.954
365.539
124.319
1255.12
1063.76
808.483
505.117
171.776
1337.65
1133.13
860.908
537.798
182.888
1077.54
912.359
692.973
432.87
147.213
438.791
372.261
282.988
176.707
60.056
207.148
175.833
133.82
83.6816
28.4682
182.345
154.774
117.786
73.6514
25.055
446.897
379.125
288.371
180.245
61.3038
405.58
344.082
261.721
163.588
55.6387
525.541
445.741
338.966
211.832
72.0399
492.974
418.093
317.922
198.673
67.5641
366.813
311.191
236.68
147.912
50.2979
360.503
305.673
232.384
145.195
49.3721
245.552
208.496
158.624
99.1061
33.6882
221.239
187.538
142.523
89.017
30.2617
457.71
388.27
295.073
184.178
62.5739
285.109
241.576
183.467
114.508
38.9123
-278.125
-230.418
-173.759
-109.441
-37.6314
-1356.72
-1130.53
-856.47
-540.801
-186.079
-2636.49
-2179.78
-1659.4
-1065.19
-372.099
-1878.66
-1556.58
-1194.06
-783.314
-293.322
-1543.04
-1266.66
-962.702
-621.165
-217.155
-366.459
-284.255
-200.291
-116.157
-34.7064
-612.913
-513.494
-388.613
-243.658
-83.29
-1916.62
-1604.53
-1215.71
-764.393
-261.974
-3095.22
-2580.63
-1957.8
-1239
-427.623
-3249.54
-2699.95
-2051.33
-1307.37
-456.515
-2510.11
-2072.6
-1572.31
-1004.8
-350.702
-723.913
-582.974
-434.315
-275.325
-95.745
-1925.12
-1396.18
783.642
1284.06
1350.18
1870.96
1224.88
-9940.45
-1533
-3005.14
-1323.69
686.739
-4049.92
1005.24
2423.73
859.423
-4882.1
-1970.07
-508.126
-246.02
-2917.18
-718.139
232.028
194.965
1907.57
1858.24
-453.56
-253.331
-8285.08
-3813.06
-3522.1
-1794.53
-2902.19
-2164.46
723.237
1881.93
363.225
-1036.69
-874.35
-794.856
-925.743
-947.635
-974.784
-712.569
-578.832
-473.144
-206.829
713.466
607.649
461.074
285.985
96.6604
1156.88
977.612
741.597
463.086
157.471
1217.26
1029
780.128
486.56
165.374
1685.96
1424.77
1080.35
674.151
229.2
1105.34
935.014
708.661
441.595
150.1
-7231.38
-7031.03
-6451.44
-6809.79
-7377.23
-1070.18
-695.786
-825.316
-973.867
-499.818
-2289.53
-1753.52
-1554.31
-1394.71
-734.71
-897.629
-633.49
-626.992
-587.887
-207.532
609.276
503.292
370.832
224.503
75.7712
-3370.48
-2718.98
-2142.6
-1508.24
-580.497
899.362
752.751
563.567
347.072
116.692
2109.11
1730.15
1304.43
830.296
291.057
775.677
654.869
493.002
303.927
101.92
-3175.21
-3283.25
-3029.43
-3399.6
-3989.68
-1466.42
-1029.98
-904.067
-803.628
-351.867
-406.55
-325.102
-277.51
-218.5
-87.0254
-182.477
-133.495
-113.498
-94.1904
-38.7759
-2443.68
-1959.7
-1526.74
-1051.09
-393.993
-601.551
-467.655
-355.052
-232.099
-68.2285
230.083
207.539
154.692
88.2206
28.5161
192.485
173.684
130.272
75.6607
25.1668
1705.5
1430.37
1079.59
673.261
229.338
1671.63
1409.4
1065.5
662.995
225.162
-380.715
-307.148
-239.906
-164.467
-60.6684
-201.792
-155.49
-122.655
-88.5258
-33.5664
-5264.75
-4259.79
-3943.77
-4182.24
-3890.02
-2882.39
-2240.19
-1833.45
-1435.97
-635.363
-2636.3
-2232.03
-1945.53
-1761.9
-787.502
-1327.01
-1060.79
-874.213
-695.301
-361.313
-2461.71
-1990.15
-1531.67
-1021.15
-363.536
-1710.99
-1054.21
-900.428
-747.207
-43.5021
669.537
577.727
436.327
266.033
89.9998
1696.85
1433.86
1085.36
675.403
229.286
349.796
311.701
232.277
135.713
47.3529
-94.1115
-195.095
-230.954
-279.892
-408.925
-572.163
-19784.7
-16281.5
-15331.3
-18362
-13932.5
-10671.9
-12831
-9750.46
-17395.7
-13825.2
-14620.7
-12437.5
-12564.3
-9541.48
-11893.9
-16673
-14608.7
-13013.4
-14778.1
-12392
-9611.76
-11058
-8310.43
-16115
-13583.1
-14515.2
-12713.4
-12549.6
-10477.6
-12168.2
-13004.2
-11915.3
-10450.9
-11373.9
-10374.7
-8578.86
-9299.85
-7978.79
-13408.9
-12252.6
-12727
-11818.3
-11612.3
-10070.1
-11300.1
-8945.42
-8580.83
-7446.37
-7741.26
-7947.7
-7448.21
-7109.15
-7101.35
-9681.73
-10721.3
-9372.27
-10279.8
-8946.04
-8152.39
-9742.69
-5762.37
-5674.45
-4796.12
-4871.43
-5603.45
-5676.96
-4741.2
-4912.26
-6782.71
-8272.06
-6666.16
-7703.63
-6557.39
-6356.54
-7323.29
-2106.68
-2093.66
-1726.53
-1742.44
-2109.43
-2214.35
-1702.25
-1696.11
-2779.2
-3478.67
-2713.49
-3061.29
-2693.93
-2667.86
-2913.34
-7471.39
-7527.21
-10486.2
-11548.5
-7555.84
-7164.42
-9761.74
-8139.81
-7133.89
-4658.03
-7273.61
-4580.1
-7374.06
-7397.1
-4676.15
-7112.14
-6961.83
-9677.6
-10450.8
-6733.95
-5943.44
-8811.02
-7238.64
-5043.5
-1969.63
-5001.55
-2207.72
-4273.76
-4069.84
-2558.41
-5989.8
-5893.94
-8162.8
-8602.69
-5936.82
-5490.6
-7659.07
-6889.66
-2691.83
-1902.44
-2673.52
-2516.47
-2623.72
-2883.73
-3214.5
-4422.59
-4447.61
-6000.11
-6132.84
-4593.99
-4551.59
-5911.45
-5828.18
-2779.76
-1772.23
-3002.85
-2755.67
-3300.29
-3863.77
-3718.35
-2748.11
-2771.77
-3825.87
-3858.19
-2721.91
-2742.85
-3806.74
-3767.21
-1551.53
-1310.32
-1764.77
-2182.47
-2263.19
-2765.29
-2925.61
-925.705
-937.161
-1353.39
-1359.93
-936.231
-987.611
-1340.83
-1303.17
-268.753
-540.226
-442.834
-984.306
-772.881
-1003.05
-1222.4
7077.99
21320.3
5419.82
23836.9
2972.47
25259.1
5084.1
40049.3
8313.69
50299.4
8511
35656.1
9074.5
31673.9
8834.03
26564.3
4209.27
2275.88
12692.5
5973.81
3927.91
1799.47
13697
5505.63
5404.06
3969
15856.3
11557.9
3657.94
2868.32
16269.3
12287.9
8235.84
2985.6
6216.19
2244.33
2830.88
7624.55
39137
11963.6
11735.1
5429.24
47557.7
14916.8
10968.8
5164.3
25880.1
8628.9
13180.6
6011.19
21037.7
6691.36
4755.8
2568.4
8371.2
3372.78
4249.15
2693.54
8988.61
3380.12
5709.01
3628.77
5626.56
2352.2
10057.8
3625.78
3961.18
1460.93
12256.1
9198.74
7446.13
6663.6
13786.3
12072.6
7481.53
7980.05
6877.39
5881.39
8928.07
7618.81
5554.77
4770.03
3233.14
2774.01
5557.11
5542.43
3186.87
3188.86
5305.66
4146.06
3106.27
2183.28
5891.12
3312.87
5895.9
6524.59
7797.36
5941.3
8412.94
11136.1
4317.45
1844.22
3795.53
3928.85
2449.97
854.148
1741.86
1508.6
5446.84
11070.3
3967.23
12532.4
5885.69
11191
4753.32
13321.1
7781.96
11140.5
6602.03
13587.2
8722.82
10573.3
6651.4
6663.79
8190.01
6972.75
7609.76
10444.9
12161.8
17866.8
9415.82
7537.25
7143.61
9059.57
14483.6
13800.6
13357.9
16139.7
16208.7
13455.6
13490.5
16168.1
16104.6
12434
12919.5
15527.7
15693.1
8783.54
9325.47
8507.68
8984.68
10315
10315
12042.8
11715
15190.2
15366.5
8019.64
8796.84
9017.64
9601.17
10029.9
10801.7
11533.1
12631.4
15173.3
16469
9367.98
6389.47
7587.14
7671.13
10542.1
12036.3
8573.97
11376.7
6936.92
7075.13
8817.65
6323.12
3186.72
5539.72
1304.48
2062.02
5309.44
8439.93
2084.02
3163.08
2657.1
4841.49
989.098
1761.24
6583.07
5628.21
6716.77
4196.12
9262.29
6599.66
10523.1
7015.84
3059.79
3587.88
3819.25
2164.15
2369.62
2594.47
2645.2
2008.72
11579
7605.41
2485.76
12532.4
7869.3
2717.15
11409.9
7445.49
2524.65
12540.9
7861.25
2659.27
10915
7012.96
2348.19
12341.1
7746.09
2660.99
6650.69
3779.1
977.071
7832.51
5343.54
1735.26
8959.24
6311.95
2127.71
9887.96
6426.8
2102.79
11963.6
7504.95
2653.48
7356.52
4019.92
1312.13
7036.81
4541.32
1571.45
7878.41
5183.44
1767.07
9353.5
5996.59
2043.57
11344.1
6597.85
2279.82
-495.224
989.238
441.822
2635.87
1755.62
1782
4533.41
3982.04
589.804
971.627
623.735
1015.47
339.927
946.357
627.969
1386.71
1898.53
1136.17
3824.14
2702.79
1755.65
2889.44
2922.88
845.773
5824.2
1858.87
-4072.57
-564.994
699.659
729.017
56.5195
220.659
10329.4
4595.87
2743.08
1645.43
10193.4
4672.44
2998.27
1953.55
9880.39
5132.94
4054.41
2915.34
3105.06
2054.14
1762.09
1604.2
13091.8
11453.4
5746.19
7344.25
14587.2
13626.9
7102.6
8523.38
5267.56
6356.85
11177.8
9244.87
3664.2
4796.66
2123.38
2797.69
4753.93
5558.66
2755.54
3192.26
3009.03
4198.12
1703.54
2559.38
4730.15
3417.72
5381.32
3695.32
8110.23
4934.78
7234.64
4862.1
2826.64
2337.81
3736.89
2538.23
1603.12
1479.28
2366.3
1565.23
12126.9
8240.93
6041.34
6393.35
12022.3
8183.53
5976.51
6257.73
12159
7838.82
6102.52
5823
13199
12680.5
12383
9592.05
5644.37
7732.2
9384.84
9999.94
9464.97
6776.65
10973.3
9898.15
8268.84
6757.14
4515.35
7186.43
7238.55
7285.38
8941.73
7115.94
6970.22
7095.2
8732.68
6743.3
6532.61
6729.51
8331.55
8693.48
8221.65
8170.21
7051.87
6190.78
6241.1
6058.5
6378.3
5876.62
7832.03
6368.89
7221.56
5373.83
6126.52
4846.44
5566.07
4829.3
5841.45
4488.76
7187.55
4735.35
3798.31
3239.11
1712.97
7221.81
5491.94
5835.37
3673.53
2506.02
1441.15
3711.14
3358.46
4229.35
1828.23
1977.12
1087.11
5468.26
3117.46
2255.04
1552.55
3464.41
1485.45
1768.78
890.227
2169.93
2612.15
2731.72
4635.92
3271.14
4015.84
3311.7
6040.03
2577.52
1904.58
1994.72
3308.2
1178.43
482.671
459.549
854.461
5748.32
2635.3
759.062
6240.32
1665.95
439.2
5566.76
2732.33
851.765
6181.61
1708.44
472.32
5033.28
2484.37
640.073
5864.83
1575.39
355.311
5549.97
3022.99
792.432
4720.86
2525.75
701.04
4685.44
2347.41
667.511
4675.66
2209.37
510.159
5542.75
1384.13
234.312
6166.14
3235.04
998.327
5369.16
2924.42
962.041
4905.84
2570.25
843.162
4780.34
1953.96
526.719
5743.31
1420.42
450.245
1790.82
688.09
324.603
5.61327
721.731
292.754
150.148
27.767
1860.52
743.007
391.718
73.867
884.39
399.775
256.442
120.098
2137.91
889.633
512.712
158.932
1526.83
791.429
453.464
212.111
1132.22
711.635
353.753
117.717
1183.7
812.763
482.575
271.578
1795.43
857.534
447.921
46.7477
1715.65
791.863
464.038
-41.4183
2256.76
952.586
555.527
122.514
2029.94
841.721
512.021
-70.1419
1366.27
751.721
396.409
52.6022
1336.78
701.622
430.246
69.9445
1019.67
656.589
418.821
244.934
933.204
588.501
407.566
235.419
2309.32
844.149
398.416
-88.6407
2432.75
825.378
438.141
-267.873
2301.52
856.798
434.271
-53.4619
2328.12
794.714
436.775
-247.398
2320.48
882.264
502.207
-0.919003
2088.57
720.788
434.192
-179.863
2156.92
851.588
555.108
142.029
2303.17
817.34
560.704
-176.697
1685.28
662.877
438.312
43.8834
2028.64
608.784
325.292
-251.039
802.532
217.06
99.3672
-60.652
1988.9
613.933
334.981
-223.356
811.137
227.007
110.223
-46.0274
1865.34
599.329
351.198
-174.776
778.939
229.358
124.255
-25.4798
1570.41
514.875
338.76
-121.047
686.018
203.553
133.709
1.05543
1377.49
482.282
332.75
-48.1007
616.195
206.585
152.151
39.3942
1086.31
470.109
282.002
16.9738
565.403
288.821
180.692
97.0659
1158.39
426.235
280.75
-15.2788
560.05
231.382
161.79
71.1661
964.876
505.743
307.664
75.8168
575.046
343.372
212.832
133.59
751.565
489.621
332.049
200.904
533.311
371.488
253.233
189.89
14.2679
11.8065
7.85802
5.16937
3.91521
8.31861
6.05212
3.9376
2.58671
1.96567
37.6285
26.0594
16.397
10.6233
8.01404
40.2472
25.6326