/*--------------------------------*- C++ -*----------------------------------*\
| =========                 |                                                 |
| \\      /  F ield         | OpenFOAM: The Open Source CFD Toolbox           |
|  \\    /   O peration     | Version:  2412                                  |
|   \\  /    A nd           | Website:  www.openfoam.com                      |
|    \\/     M anipulation  |                                                 |
\*---------------------------------------------------------------------------*/
FoamFile
{
    version     2.0;
    format      ascii;
    arch        "LSB;label=32;scalar=64";
    class       volScalarField;
    location    "2.5";
    object      T;
}
// * * * * * * * * * * * * * * * * * * * * * * * * * * * * * * * * * * * * * //

dimensions      [0 0 0 1 0 0 0];

internalField   nonuniform List<scalar> 
5712
(
541.229
557.253
528.731
547.942
512.01
534.209
486.068
510.226
489.46
513.865
513.477
537.504
524.499
546.438
534.846
553.79
503.426
487.835
520.157
495.983
477.904
460.934
493.619
467.962
548.765
555.239
561.325
564.554
539.309
547.803
554.149
559.173
538.174
525.851
513.618
506.844
539.421
549.513
539.456
544.859
503.715
510.562
516.446
522.078
475.698
481.68
550.609
555.395
522.526
531.596
560.633
566.085
559.872
567.538
567.046
570.694
553.182
565.046
562.324
568.972
544.016
560.79
552.582
565.171
558.815
567.314
562.584
568.657
474.838
460.804
481.861
463.711
441.953
429.347
449.396
433.027
508.395
491.133
502.38
488.207
486.715
465.698
489.553
466.763
454.644
435.476
457.654
436.795
512.96
493.13
515.596
494.133
533.041
558.822
518.147
548.603
527.611
555.221
514.565
545.479
536.877
560.619
520.267
550.415
538.931
561.368
521.196
551.539
555.896
546.763
564.799
557.948
548.56
539.389
561.73
554
537.827
527.983
556.387
547.486
460.708
422.576
494.273
520.31
548.576
421.326
458.836
490.42
515.187
540.715
420.603
455.755
484.741
509.75
539.159
528.456
511.579
532.165
516.109
523.317
506.412
530.148
513.68
514.752
498.185
526.536
509.833
414.596
402.104
451.968
439.915
481.547
467.148
503.734
488.023
522.953
506.059
413.392
399.523
447.57
434.639
475.485
461.539
498.995
483.515
520.087
502.508
446.133
435.649
444.96
434.397
412.25
392.388
410.869
388.918
474.054
465.869
474.737
465.794
444.254
433.159
444.811
433.834
410.684
387.432
411.712
388.899
473.348
464.854
473.906
465.485
500.289
492.546
522.562
515.576
500.044
491.284
521.938
513.009
499.729
491.728
522.526
515.944
499.824
491.92
522.389
515.35
492.059
475.904
467.081
495.043
478.214
469.255
487.434
470.951
462.138
492.324
474.813
465.601
478.453
461.498
452.329
487.841
469.328
459.655
385.968
374.363
368.458
423.373
408.16
399.945
449.759
432.654
423.037
468.591
451.2
441.877
482.683
462.935
452.521
382.126
369.861
363.182
419.53
405.751
398.575
444.884
429.193
420.858
463.542
445.487
435.829
476.919
457.061
446.851
417.618
404.482
421.431
408.764
446.309
430.625
454.563
436.735
390.01
370.002
391.247
371.998
390.814
370.433
392.598
373.04
390.715
387.482
390.099
383.645
369.362
373.62
411.522
414.42
441.003
444.803
392.319
394.723
392.671
394.469
376.031
377.714
348.529
329.826
354.137
333.236
349.989
329.531
355.568
333.441
351.018
328.97
357.872
334.102
360.997
336.397
363.181
338.281
383.283
371.648
390.497
376.569
409.876
396.982
417.881
401.89
369.959
356.511
362.496
351.834
394.585
379.51
397.067
381.141
422.653
404.829
425.443
406.346
373.794
359.359
375.967
361.008
352.75
331.257
340.83
325.193
346.087
326.939
336.92
322.329
356.592
334.171
343.385
327.149
358.865
336.211
345.02
328.449
331.014
319.802
322.943
315.464
332.091
321.365
322.614
315.558
333.476
324.856
322.064
316.323
363.467
387.632
346.343
335.172
321.047
385.697
360.016
340.331
328.48
316.669
385.944
361.955
344.277
331.58
318.942
310.511
301.475
307.451
298.588
312.978
303.914
308.477
299.823
317.283
308.766
310.208
301.915
379.009
366.688
353.179
341.998
335.05
326.34
323.072
314.679
312.467
304.651
378.77
366.058
355.526
344.585
338.407
329.025
325.872
316.816
315.256
307.383
358.576
345.056
359.62
344.325
380.063
363.709
380.867
361.348
342.647
330.31
341.48
330.239
360.526
343.787
361.929
345.186
382.055
359.511
383.52
360.932
343.548
330.423
344.785
331.581
328.355
318.138
317.725
307.902
328.086
317.5
317.031
307.713
328.573
318.815
318.102
307.895
330.145
319.569
318.795
309.12
290.156
283.935
281.519
282.936
278.558
277.109
293.364
286.816
284.101
284.276
279.726
278.087
298.445
291.642
288.937
286.338
281.425
279.701
353.181
343.815
339.403
331.208
323.738
320.528
316.109
309.364
306.765
303.887
296.999
294.22
288.296
283.285
281.328
351.572
341.461
336.608
332.483
323.704
319.442
317.787
310.043
306.481
304.499
298.011
295.516
289.5
284.723
282.362
315.31
306.347
300.574
295.668
316.82
306.954
300.86
295.711
315.189
306.38
300.688
295.84
317.066
307.172
301.111
295.955
314.899
306.388
300.87
296.118
317.386
307.483
301.451
296.274
318.639
308.235
301.8
296.416
319.893
309.073
302.211
296.59
316.324
307.241
301.456
296.515
313.978
306.471
301.087
296.722
314.258
306.287
300.985
296.432
312.595
305.774
300.727
296.677
317.894
308.076
301.823
296.587
315.143
307.137
301.43
296.851
319.14
308.839
302.243
296.812
316.129
307.774
301.837
297.134
312.802
305.408
300.184
295.698
309.827
304.343
299.709
295.82
312.634
305.397
300.244
295.835
309.85
304.392
299.762
295.934
312.341
305.369
300.336
296.075
310.135
304.573
299.906
296.147
311.85
305.301
300.416
296.386
310.274
304.705
300.058
296.409
311.245
305.18
300.401
296.633
307.084
303.462
299.177
296.313
305.499
303.04
298.946
296.52
307.503
303.635
299.287
296.403
305.984
303.23
299.054
296.603
308.185
303.934
299.472
296.56
306.788
303.562
299.24
296.752
309.005
304.299
299.744
296.791
307.774
303.985
299.502
296.953
310.039
304.779
300.073
297.038
308.713
304.435
299.778
297.167
311.494
305.72
300.581
297.43
310
305.372
300.362
297.634
310.817
305.229
300.316
297.238
309.446
304.909
300.066
297.399
312.129
306.237
300.856
297.609
310.574
305.88
300.662
297.869
312.91
306.822
301.231
297.88
311.359
306.459
301.039
298.164
290.491
286.831
284.112
282.323
281.438
290.504
286.841
284.118
282.327
281.441
290.564
286.868
284.132
282.336
281.447
290.591
286.888
284.145
282.344
281.454
290.643
286.909
284.155
282.35
281.458
290.719
286.961
284.187
282.371
281.474
290.899
287.068
284.252
282.412
281.505
291.074
287.176
284.318
282.455
281.537
290.815
287.005
284.211
282.385
281.485
290.853
287.012
284.213
282.386
281.485
290.728
286.952
284.179
282.365
281.469
290.799
286.979
284.193
282.373
281.475
290.92
287.07
284.251
282.411
281.504
290.955
287.075
284.252
282.411
281.504
291.106
287.188
284.324
282.458
281.54
291.137
287.19
284.323
282.457
281.538
290.481
286.822
284.106
282.319
281.435
290.483
286.817
284.102
282.316
281.433
290.538
286.849
284.12
282.328
281.441
290.533
286.84
284.114
282.324
281.438
290.613
286.885
284.139
282.339
281.45
290.605
286.873
284.131
282.334
281.446
290.698
286.925
284.161
282.353
281.46
290.676
286.909
284.151
282.346
281.455
290.754
286.954
284.178
282.363
281.468
540.177
535.899
539.456
535.128
538.09
533.734
536.428
531.871
534.974
530.09
535.314
532.409
535.026
531.447
535.42
532.654
535.612
532.824
566.078
571.479
572.656
572.924
572.981
560.349
569.94
572.308
572.849
572.963
566.168
571.525
572.67
572.927
572.982
560.284
569.967
572.32
572.853
572.964
566.145
571.556
572.681
572.93
572.983
560.068
569.97
572.329
572.856
572.965
566.142
571.591
572.692
572.933
572.983
559.77
569.946
572.328
572.857
572.965
566.136
571.598
572.692
572.932
572.983
559.492
569.886
572.311
572.852
572.964
564.96
571.183
572.576
572.902
572.974
558.811
569.477
572.176
572.815
572.953
565.431
571.368
572.63
572.917
572.979
559.065
569.667
572.244
572.834
572.959
564.643
571.059
572.537
572.892
572.971
558.655
569.364
572.134
572.802
572.949
564.746
571.073
572.537
572.891
572.971
558.717
569.36
572.125
572.798
572.947
424.907
462.531
459.603
422.565
404.432
406.255
411.462
414.591
424.158
427.347
450.139
457.037
454.423
461.005
432.475
434.979
423.443
425.827
415.052
417.005
365.406
347.723
303.253
297.587
301.876
298.217
302.875
365.462
359.812
341.762
349.254
343.641
321.714
331.939
326.91
316.368
319.636
314.843
359.681
334.274
318.896
316.513
322.921
318.65
311.025
311.24
309.444
306.476
313.503
311.733
359.752
338.951
345.642
328.749
322.545
334.392
311.978
305.725
315.104
349.71
334.889
321.617
307.095
286.824
337.262
325.933
313.74
299.892
282.762
300.238
295.999
290.431
283.876
276.697
295.18
291.764
287.238
281.887
276.021
299.016
294.976
289.65
283.379
276.526
295.744
292.235
287.589
282.102
276.093
299.904
295.719
290.213
283.733
276.647
349.604
333.358
319.199
304.42
285.786
343.479
327.725
313.858
299.547
282.634
331.975
320.86
308.839
295.753
280.995
335.135
321.03
308.246
295.197
280.991
330.962
317.644
305.523
293.226
280.074
316.025
308.662
299.687
289.57
278.638
324.069
314.66
303.967
292.274
279.616
319.984
311.437
301.501
290.609
278.986
311.604
305.212
297.181
288.004
278.092
314.258
307.222
298.582
288.842
278.375
310.316
304.186
296.424
287.529
277.927
345.903
331.12
317.826
303.517
285.26
326.548
317.112
306.253
294.066
280.324
313.807
307.04
298.595
288.934
278.424
311.823
305.497
297.498
288.271
278.199
317.242
309.836
300.753
290.374
278.948
313.705
307.068
298.721
289.075
278.478
307.1
301.69
294.711
286.555
277.612
307.284
301.826
294.784
286.579
277.616
305.696
300.492
293.748
285.902
277.378
303.092
298.358
292.175
284.94
277.054
309.209
303.345
295.856
287.209
277.825
307.7
302.148
295
286.696
277.653
345.711
331.474
318.608
304.492
285.637
330.417
320.489
309.285
296.495
281.36
336.225
324.106
311.948
298.258
281.391
322.311
314.036
304.103
292.668
279.742
317.068
309.812
300.827
290.453
278.951
326.868
317.395
306.559
294.278
280.232
307.931
302.365
295.202
286.851
277.711
302.427
297.81
291.776
284.701
276.975
310.632
304.555
296.818
287.855
278.055
505.445
544.458
497.757
534.707
474.39
515.172
481.511
526.061
488.725
478.049
515.326
491.915
464.913
452.865
489.956
464.915
522.651
536.685
552.659
558.391
516.874
531.095
546.339
553.445
532.338
510.854
509.318
496.996
526.453
544.416
537.864
544.522
501.978
510.141
515.102
521.75
474.443
481.362
548.867
555.06
520.786
531.187
559.279
565.876
549.043
563.814
563.325
569.429
542.815
561.613
558.585
567.73
535.637
558.029
548.865
563.915
557.461
566.814
562.315
568.548
471.938
461.402
480.126
464.082
441.856
432.743
449.148
434.894
505.968
490.631
498.06
487.161
485.929
465.96
489.354
466.87
454.57
436.492
457.653
437.144
511.853
492.943
515.303
494.093
530.72
557.948
517.419
548.273
523.266
553.57
513.091
544.814
535.834
560.215
519.953
550.273
538.655
561.257
521.111
551.501
538.075
525.875
558.824
550.537
531.724
520.081
556.443
547.51
524.268
513.33
552.258
542.78
463.114
433.824
490.158
514.027
546.074
434.054
461.345
484.893
507.057
537.494
430.454
458.458
483.196
507.097
537.976
507.229
492.539
522.425
509.325
503.908
489.088
522.125
508.374
500.021
485.693
521.238
506.945
427.052
416.844
454.374
443.828
476.738
464.275
496.778
483.346
519.969
505.19
423.38
410.698
451.29
440.695
475.314
464.28
497.552
484.83
519.24
503.536
449.086
439.888
447.047
437.227
418.472
400.01
414.759
393.793
474.921
467.398
475.549
467.878
445.459
434.742
445.203
434.33
412.715
389.898
412.349
389.66
473.949
465.795
474.113
465.79
500.521
493.248
522.605
515.874
499.902
492.166
521.731
513.391
499.978
492.21
522.623
516.163
499.926
492.096
522.43
515.428
481.467
475.617
497.318
491.709
477.718
471.318
495.861
489.014
474.225
467.541
493.357
484.625
406.243
400.451
433.883
426.953
454.229
446.497
471.86
463.859
489.711
479.056
396.363
391.664
430.863
424.983
453.685
446.385
471.253
461.897
484.573
473.998
410.288
402.385
418.463
408.65
436.755
425.684
451.763
435.129
392.06
374.057
396.468
377.562
390.188
373.929
395.138
377.613
392.14
386.938
391.954
385.356
373.416
377.369
411.845
414.584
440.447
444.681
393.542
395.221
393.979
394.953
378.48
378.626
360.482
342.067
362.588
343.02
361.02
340.978
362.883
342.038
360.989
339.18
363.663
340.946
364.494
340.662
364.383
339.755
389.376
380.438
393.562
381.54
413.103
403.629
419.323
405.516
374.64
362.276
371.19
361.544
396.205
382.16
397.566
382.021
423.407
406.738
425.679
406.982
376.27
362.497
376.734
362.055
358.707
337.209
346.72
330.503
356.388
335.862
346.37
330.233
359.799
337.63
346.682
330.234
359.861
337.334
346.136
329.481
356.7
353.17
339.63
335.691
356.965
353.529
338.318
334.424
356.251
353.023
336.272
332.641
383.887
406.146
366.254
352.925
333.306
407.075
384.609
365.705
351.102
330.982
402.177
379.612
360.844
345.969
329.526
348.805
342.139
329.33
318.453
349.532
343.377
328.657
318.297
349.174
342.999
327.538
317.832
400.512
391.285
379.193
371.459
361.882
355.886
347.157
340.239
327.135
318.307
394.942
382.772
373.872
363.552
355.974
346.973
341.076
331.888
326.351
318.202
369.289
355.773
365.841
350.568
389.515
373.818
386.397
367.424
348.926
336.199
352.097
340.333
363.688
346.857
362.914
346.122
384.825
362.501
384.376
361.844
346.797
333.345
345.812
332.484
334.047
323.19
322.691
311.985
337.634
326.055
324.754
314.327
331.637
321.429
320.86
310.044
331.188
320.42
319.63
309.763
334.972
332.033
298.505
295.438
338.058
334.557
299.307
296.005
336.555
331.66
299.924
295.953
382.288
377.034
363.976
359.663
348.687
344.488
331.673
326.494
300.156
295.475
370.485
366.58
352.926
349.093
336.642
332.83
319.714
316.502
298.094
294.455
323.867
311.896
304.3
298.136
324.365
312.027
304.344
298.048
323.229
311.624
304.215
298.167
323.755
311.713
304.254
298.069
322.118
311.142
304.109
298.282
322.81
311.213
304.057
298.016
322.153
310.704
303.505
297.51
321.141
309.962
302.834
297.004
320.803
310.337
303.649
298.032
318.001
309.297
303.127
298.238
320.433
310.411
303.84
298.384
318.249
309.613
303.377
298.536
320.646
310.026
303.25
297.628
317.564
308.88
302.733
297.874
320.078
309.513
302.736
297.164
316.942
308.366
302.285
297.489
322.795
311.572
304.214
298.36
321.107
311.073
303.977
298.687
322.175
311.335
304.135
298.407
320.615
310.899
303.899
298.719
321.154
310.934
304.009
298.528
319.838
310.586
303.779
298.797
319.611
310.302
303.766
298.677
319.006
310.23
303.645
298.879
318.234
309.775
303.471
298.749
319.101
310.581
303.566
299.508
317.674
310.321
303.425
299.914
318.874
310.473
303.54
299.508
317.493
310.215
303.391
299.899
318.413
310.247
303.456
299.483
317.128
310.002
303.297
299.857
317.935
309.952
303.384
299.469
316.74
309.712
303.193
299.807
317.299
309.547
303.255
299.434
316.132
309.332
303.034
299.731
315.471
308.584
302.607
299.028
313.918
308.262
302.401
299.282
316.472
309.12
302.987
299.288
315.069
308.842
302.765
299.556
314.489
307.998
302.129
298.641
312.869
307.644
301.928
298.906
313.683
307.411
301.661
298.232
312.101
307.043
301.462
298.513
291.901
287.663
284.61
282.641
281.678
291.866
287.65
284.603
282.637
281.675
291.87
287.635
284.591
282.628
281.668
291.809
287.609
284.577
282.62
281.662
291.829
287.602
284.569
282.614
281.657
291.7
287.541
284.535
282.593
281.641
291.514
287.434
284.472
282.553
281.611
291.316
287.321
284.405
282.511
281.579
291.669
287.509
284.514
282.579
281.63
291.706
287.514
284.513
282.578
281.63
291.78
287.566
284.546
282.599
281.646
291.775
287.548
284.533
282.59
281.639
291.538
287.439
284.473
282.553
281.611
291.575
287.446
284.474
282.553
281.611
291.317
287.315
284.401
282.507
281.577
291.357
287.324
284.403
282.508
281.577
291.949
287.679
284.617
282.646
281.681
291.99
287.69
284.621
282.648
281.683
291.933
287.66
284.603
282.636
281.674
291.978
287.673
284.61
282.64
281.677
291.908
287.633
284.585
282.623
281.664
291.956
287.648
284.592
282.628
281.667
291.867
287.599
284.563
282.609
281.653
291.905
287.615
284.571
282.614
281.657
291.821
287.572
284.546
282.599
281.645
535.155
531.375
535.226
531.419
535.142
531.315
534.735
530.687
534.331
529.9
535.323
532.521
534.852
531.489
535.473
532.759
535.637
532.863
565.265
571.333
572.628
572.918
572.98
558.987
569.651
572.25
572.838
572.961
565.484
571.401
572.646
572.922
572.981
559.133
569.72
572.27
572.844
572.962
565.657
571.465
572.663
572.926
572.982
559.252
569.786
572.29
572.849
572.964
565.857
571.534
572.68
572.93
572.983
559.3
569.83
572.302
572.851
572.964
566.013
571.57
572.685
572.931
572.982
559.293
569.824
572.296
572.848
572.963
564.955
571.179
572.574
572.902
572.974
558.815
569.47
572.173
572.814
572.953
565.389
571.355
572.627
572.916
572.978
559.008
569.641
572.236
572.832
572.958
564.65
571.058
572.537
572.892
572.971
558.674
569.365
572.133
572.801
572.949
564.75
571.074
572.537
572.891
572.971
558.725
569.361
572.125
572.798
572.947
424.823
462.196
458.315
421.802
415.614
421.809
413.441
421.032
442.378
458.189
446.257
461.234
281.823
282.44
283.816
285.997
288.992
292.799
282.348
282.955
284.3
286.406
289.289
292.969
281.391
281.175
282.022
281.806
283.447
283.242
285.774
285.655
288.982
289.102
293.135
293.721
297.344
303.015
310.387
320.28
328.613
334.661
297.484
302.951
309.432
316.532
322.652
326.557
280.984
279.777
278.158
276.226
274.097
281.541
280.249
278.517
276.449
274.173
282.784
281.302
279.316
276.949
274.343
284.754
282.97
280.582
277.739
274.612
287.454
285.254
282.314
278.819
274.979
290.882
288.147
284.506
280.186
275.443
281.458
280.18
278.464
276.416
274.162
282.006
280.644
278.816
276.636
274.237
283.221
281.672
279.597
277.124
274.403
285.122
283.28
280.817
277.885
274.661
287.721
285.477
282.483
278.925
275.015
291.033
288.273
284.601
280.245
275.464
280.594
279.446
277.907
276.068
274.044
280.398
279.28
277.78
275.989
274.017
281.164
279.93
278.274
276.298
274.122
280.968
279.764
278.148
276.219
274.095
282.451
281.021
279.102
276.815
274.298
282.266
280.864
278.984
276.741
274.273
284.552
282.8
280.453
277.658
274.584
284.445
282.709
280.385
277.616
274.57
287.446
285.247
282.309
278.816
274.978
287.555
285.339
282.379
278.859
274.992
291.185
288.403
284.699
280.305
275.483
291.712
288.847
285.033
280.512
275.554
294.962
291.582
287.104
281.805
275.994
300.028
295.83
290.313
283.809
276.676
306.556
301.266
294.418
286.389
277.56
315.178
308.373
299.815
289.846
278.765
322.259
314.161
304.286
292.835
279.865
327.301
318.262
307.507
295.062
280.705
295.085
291.684
287.183
281.856
276.012
299.972
295.786
290.284
283.795
276.672
305.73
300.598
293.924
286.081
277.455
311.987
305.8
297.869
288.583
278.32
317.326
310.223
301.246
290.759
279.086
320.711
313.025
303.402
292.17
279.59
281.94
282.797
284.435
286.913
290.243
294.425
282.467
283.318
284.923
287.311
290.494
294.479
281.506
281.288
282.375
282.154
284.065
283.856
286.706
286.591
290.288
290.429
294.927
295.653
299.336
305.309
312.819
322.45
330.139
335.214
299.264
304.909
311.394
318.234
323.819
326.973
281.09
279.868
278.227
276.269
274.112
281.865
280.525
278.727
276.581
274.218
283.346
281.781
279.682
277.178
274.421
285.585
283.679
281.125
278.079
274.728
288.592
286.225
283.059
279.287
275.139
292.364
289.416
285.48
280.799
275.653
281.567
280.272
278.534
276.461
274.177
282.336
280.925
279.031
276.771
274.283
283.787
282.154
279.965
277.355
274.481
285.943
283.981
281.354
278.222
274.776
288.816
286.414
283.201
279.376
275.169
292.408
289.45
285.505
280.815
275.658
280.697
279.535
277.974
276.111
274.058
280.5
279.368
277.847
276.031
274.031
281.484
280.202
278.481
276.428
274.166
281.284
280.033
278.353
276.347
274.139
283.012
281.498
279.467
277.044
274.376
282.823
281.338
279.345
276.968
274.35
285.398
283.521
281.005
278.005
274.702
285.295
283.434
280.939
277.963
274.688
288.634
286.262
283.087
279.305
275.144
288.762
286.371
283.17
279.357
275.162
292.818
289.802
285.774
280.983
275.715
293.475
290.358
286.197
281.247
275.805
296.781
293.145
288.308
282.566
276.254
302.132
297.646
291.72
284.702
276.983
308.802
303.221
295.947
287.367
277.897
317.207
310.164
301.236
290.769
279.085
323.704
315.452
305.325
293.521
280.108
327.83
318.739
307.896
295.324
280.799
296.71
293.08
288.258
282.535
276.244
301.766
297.332
291.481
284.554
276.932
307.537
302.164
295.143
286.858
277.722
313.563
307.176
298.949
289.276
278.56
318.413
311.178
302.001
291.248
279.257
321.101
313.369
303.676
292.348
279.652
366.26
348.484
306.053
299.865
305.308
300.963
306.129
374.129
372.378
350.6
363.284
328.798
340.546
322.841
327.449
320.955
365.522
340.517
324.834
321.653
328.471
323.043
314.293
315.411
314.859
311.096
319.036
316.566
362.389
341.104
350.024
331.854
326.345
339.319
315.792
309.589
319.686
350.621
335.76
322.393
307.696
287.073
338.019
326.636
314.334
300.312
282.918
302.81
298.224
292.158
284.974
277.074
297.262
293.554
288.619
282.76
276.32
302.167
297.698
291.762
284.721
276.986
298.256
294.396
289.259
283.159
276.455
302.894
298.304
292.22
285.009
277.085
359.315
342.899
327.659
310.707
288.404
357.887
341.613
326.021
308.465
286.238
341.054
329.458
316.133
300.824
282.877
351.198
336.126
321.173
304.411
284.608
322.903
314.929
304.796
292.958
279.837
332.842
322.907
310.876
296.982
281.328
317.756
310.725
301.61
290.902
279.106
321.774
314.028
304.103
292.49
279.661
316.114
309.375
300.588
290.249
278.877
352.145
337.176
323.158
307.451
286.891
332.694
322.791
310.967
297.263
281.479
319.464
312.119
302.683
291.615
279.363
316.667
309.804
300.936
290.51
278.979
322.548
314.62
304.625
292.93
279.849
317.844
310.747
301.659
290.989
279.145
310.132
304.342
296.794
287.894
278.074
311.163
305.228
297.464
288.303
278.212
310.716
304.882
297.197
288.118
278.145
307.352
302.058
295.062
286.784
277.69
314.407
307.951
299.518
289.584
278.65
312.209
306.115
298.133
288.717
278.353
348.5
334.105
320.91
306.211
286.358
332.517
322.409
310.874
297.583
281.757
340.638
328.208
315.414
300.664
282.217
325.273
316.7
306.26
294.095
280.241
320.661
313.015
303.396
292.134
279.538
331.683
321.806
310.201
296.734
281.099
311.48
305.48
297.655
288.431
278.258
305.99
300.905
294.19
286.242
277.506
314.928
308.354
299.836
289.812
278.735
280.268
294.189
306.735
317.503
326.04
332.399
486.975
481.824
458.638
463.813
474.014
467.523
451.071
442.341
506.47
523.499
502.512
518.966
497.176
488.238
514.101
477.121
473.361
451.005
454.995
466.869
462.076
444.66
437.841
496.13
509.649
493.587
506.507
489.237
481.834
502.758
463.367
461.032
440.175
442.94
456.356
453.606
435.336
430.248
480.56
494.135
478.979
492.205
476.246
471.141
489.71
449.531
447.954
428.728
430.876
444.473
442.745
424.69
420.241
465.891
479.463
464.835
477.939
462.64
458.368
475.871
439.549
438.177
420.346
422.333
434.797
432.86
416.393
411.383
454.769
467.154
454.01
466.567
452.136
448.09
464.959
432.63
431.3
414.675
416.609
427.948
425.927
410.801
405.878
446.369
459.004
445.641
458.843
444.098
440.308
457.25
409.218
406.305
432.16
435.88
402.421
395.233
426.548
417.609
386.403
367.285
383.98
366.648
378.827
377.399
365.597
405.123
402.256
426.614
429.849
398.485
391.627
421.49
413.431
381.406
364.915
378.87
364.571
374.246
373.244
363.463
399.079
396.406
418.35
420.991
392.859
386.783
413.978
407.239
379.195
363.155
376.884
362.239
372.551
371.497
360.577
392.277
389.57
409.122
411.484
385.476
378.954
404.965
398.06
375.051
360.167
372.493
358.392
367.826
365.957
355.664
387.301
384.561
402.371
404.663
380.531
373.943
398.232
391.274
371.786
358.514
368.877
355.457
363.759
361.026
351.399
384.262
381.484
397.926
400.197
377.492
370.852
393.829
387.044
370.683
356.934
367.513
352.975
361.495
358.155
348.281
541.849
557.667
528.729
547.913
512.011
534.199
486.074
510.227
489.469
513.867
513.488
537.498
524.516
546.427
535.676
554.351
503.425
487.834
520.152
495.98
477.907
460.935
493.62
467.962
549.206
555.563
561.601
564.754
539.301
547.788
554.118
559.145
538.162
525.843
513.612
506.839
539.41
549.5
539.454
544.858
503.713
510.561
516.446
522.078
475.698
481.68
550.606
555.394
522.523
531.595
560.63
566.084
560.124
567.65
567.203
570.758
553.162
565.041
562.301
568.965
544.005
560.786
552.572
565.167
558.811
567.313
562.583
568.656
474.837
460.803
481.859
463.71
441.953
429.347
449.396
433.026
508.392
491.131
502.376
488.205
486.714
465.697
489.552
466.762
454.643
435.476
457.654
436.795
512.957
493.129
515.595
494.132
533.037
558.82
518.146
548.602
527.606
555.219
514.562
545.478
536.875
560.618
520.266
550.415
538.929
561.367
521.195
551.539
556.14
546.992
564.934
558.096
548.533
539.357
561.723
553.99
537.813
527.97
556.383
547.483
460.706
422.575
494.269
520.304
548.574
421.325
458.834
490.416
515.18
540.713
420.602
455.753
484.739
509.747
539.157
528.655
511.746
532.302
516.217
523.303
506.394
530.158
513.686
514.744
498.179
526.538
509.835
414.595
402.103
451.967
439.914
481.544
467.146
503.73
488.019
522.953
506.06
413.392
399.522
447.569
434.639
475.483
461.538
498.993
483.513
520.086
502.508
446.132
435.648
444.959
434.397
412.25
392.388
410.868
388.918
474.052
465.868
474.736
465.793
444.253
433.158
444.81
433.833
410.684
387.432
411.711
388.898
473.347
464.854
473.905
465.484
500.288
492.545
522.562
515.576
500.042
491.283
521.937
513.008
499.728
491.728
522.526
515.943
499.823
491.92
522.389
515.35
492.23
476.089
467.283
495.158
478.354
469.412
487.423
470.944
462.135
492.329
474.818
465.61
478.449
461.496
452.329
487.843
469.331
459.659
385.968
374.364
368.459
423.373
408.16
399.946
449.758
432.653
423.038
468.589
451.2
441.878
482.684
462.936
452.523
382.126
369.862
363.182
419.53
405.751
398.575
444.884
429.193
420.859
463.541
445.487
435.83
476.919
457.061
446.853
417.626
404.486
421.439
408.766
446.316
430.628
454.568
436.737
389.889
369.951
391.095
371.925
390.801
370.422
392.584
373.031
390.713
387.479
390.099
383.646
369.358
373.617
411.524
414.422
441.004
444.804
392.319
394.724
392.673
394.47
376.031
377.715
348.481
329.82
354.075
333.22
349.988
329.523
355.567
333.437
351.017
328.967
357.871
334.1
360.997
336.397
363.182
338.281
383.285
371.649
390.499
376.57
409.878
396.983
417.882
401.89
369.959
356.512
362.497
351.834
394.586
379.511
397.068
381.142
422.654
404.829
425.443
406.346
373.795
359.359
375.969
361.008
352.75
331.256
340.83
325.193
346.087
326.938
336.921
322.329
356.593
334.171
343.385
327.149
358.866
336.212
345.021
328.449
330.975
319.739
322.938
315.441
332.092
321.369
322.606
315.554
333.476
324.859
322.061
316.323
363.468
387.633
346.344
335.173
321.047
385.698
360.018
340.333
328.482
316.67
385.945
361.956
344.278
331.581
318.942
310.43
301.381
307.427
298.555
312.988
303.926
308.484
299.834
317.288
308.773
310.211
301.92
379.01
366.689
353.181
341.999
335.052
326.343
323.075
314.683
312.47
304.654
378.77
366.058
355.527
344.587
338.408
329.026
325.874
316.817
315.257
307.384
358.577
345.057
359.62
344.326
380.063
363.71
380.867
361.348
342.648
330.31
341.481
330.24
360.527
343.788
361.93
345.186
382.055
359.511
383.52
360.932
343.548
330.424
344.786
331.582
328.356
318.139
317.725
307.903
328.087
317.5
317.032
307.714
328.573
318.816
318.102
307.895
330.146
319.569
318.795
309.12
290.065
283.85
281.435
282.931
278.544
277.092
293.385
286.835
284.116
284.292
279.739
278.097
298.455
291.651
288.944
286.345
281.431
279.706
353.182
343.816
339.405
331.21
323.74
320.53
316.112
309.368
306.768
303.893
297.004
294.224
288.299
283.288
281.331
351.573
341.462
336.609
332.484
323.705
319.443
317.789
310.045
306.483
304.501
298.014
295.519
289.502
284.725
282.363
315.311
306.344
300.567
295.659
316.811
306.945
300.848
295.699
315.186
306.379
300.687
295.84
317.066
307.172
301.111
295.955
314.898
306.388
300.87
296.118
317.385
307.483
301.451
296.274
318.639
308.235
301.8
296.416
319.893
309.073
302.211
296.59
316.324
307.241
301.457
296.515
313.979
306.472
301.087
296.722
314.258
306.287
300.985
296.432
312.595
305.774
300.727
296.677
317.894
308.077
301.824
296.587
315.144
307.138
301.43
296.851
319.14
308.84
302.244
296.812
316.129
307.774
301.838
297.134
312.806
305.407
300.18
295.691
309.822
304.339
299.705
295.815
312.632
305.396
300.243
295.835
309.85
304.392
299.761
295.934
312.34
305.369
300.336
296.075
310.136
304.573
299.906
296.146
311.85
305.301
300.416
296.385
310.275
304.705
300.058
296.409
311.245
305.181
300.401
296.633
307.08
303.46
299.175
296.308
305.488
303.034
298.942
296.516
307.507
303.637
299.287
296.403
305.989
303.231
299.054
296.603
308.187
303.935
299.472
296.559
306.791
303.563
299.24
296.752
309.006
304.299
299.744
296.791
307.775
303.986
299.502
296.953
310.039
304.779
300.073
297.038
308.714
304.435
299.778
297.167
311.495
305.72
300.582
297.43
310
305.373
300.362
297.634
310.818
305.229
300.316
297.238
309.447
304.909
300.066
297.399
312.13
306.237
300.856
297.61
310.575
305.881
300.662
297.87
312.911
306.823
301.231
297.88
311.359
306.459
301.039
298.165
290.488
286.83
284.111
282.323
281.438
290.499
286.838
284.117
282.327
281.441
290.563
286.868
284.132
282.336
281.447
290.591
286.888
284.145
282.344
281.454
290.643
286.909
284.155
282.35
281.458
290.719
286.961
284.188
282.371
281.474
290.899
287.068
284.252
282.412
281.505
291.074
287.177
284.319
282.455
281.537
290.815
287.005
284.212
282.386
281.485
290.853
287.012
284.213
282.386
281.485
290.729
286.952
284.179
282.365
281.469
290.799
286.979
284.193
282.373
281.475
290.92
287.07
284.252
282.412
281.504
290.955
287.075
284.252
282.411
281.504
291.106
287.189
284.324
282.458
281.54
291.137
287.191
284.323
282.457
281.539
290.478
286.821
284.105
282.319
281.435
290.48
286.815
284.101
282.316
281.433
290.538
286.849
284.12
282.328
281.442
290.533
286.84
284.114
282.324
281.438
290.613
286.885
284.139
282.339
281.45
290.604
286.873
284.132
282.334
281.446
290.698
286.925
284.161
282.353
281.46
290.676
286.909
284.152
282.346
281.455
290.754
286.954
284.178
282.363
281.468
540.234
535.961
539.471
535.143
538.097
533.741
536.431
531.874
534.975
530.091
535.314
532.408
535.026
531.447
535.419
532.653
535.612
532.823
566.112
571.487
572.658
572.924
572.981
560.375
569.946
572.309
572.85
572.963
566.18
571.529
572.671
572.927
572.982
560.298
569.972
572.321
572.854
572.965
566.149
571.558
572.682
572.93
572.983
560.075
569.973