/*--------------------------------*- C++ -*----------------------------------*\
| =========                 |                                                 |
| \\      /  F ield         | OpenFOAM: The Open Source CFD Toolbox           |
|  \\    /   O peration     | Version:  2412                                  |
|   \\  /    A nd           | Website:  www.openfoam.com                      |
|    \\/     M anipulation  |                                                 |
\*---------------------------------------------------------------------------*/
FoamFile
{
    version     2.0;
    format      ascii;
    arch        "LSB;label=32;scalar=64";
    class       volScalarField;
    location    "60/heater";
    object      T;
}
// * * * * * * * * * * * * * * * * * * * * * * * * * * * * * * * * * * * * * //

dimensions      [0 0 0 1 0 0 0];

internalField   nonuniform List<scalar> 
80
(
319.32506
318.74082
317.613
316.03314
323.14933
322.41117
320.97229
318.93533
331.27227
330.22838
328.13289
325.05423
344.61278
343.20106
340.16471
335.2347
482.40702
483.16424
483.18204
482.50031
451.47281
452.38538
452.35724
451.4789
424.19611
424.88794
424.66644
423.71404
400.42426
400.68974
399.99798
398.72406
380.28649
379.86585
378.14335
375.63987
364.27608
362.85773
359.31252
352.12733
482.407
483.16423
483.18203
482.50031
451.47277
452.38535
452.35723
451.4789
424.19607
424.88791
424.66642
423.71404
400.42421
400.68972
399.99797
398.72408
380.28646
379.86584
378.14335
375.6399
364.2761
362.85775
359.31254
352.12735
344.61279
343.20108
340.16472
335.23471
331.27228
330.22839
328.13291
325.05426
323.14933
322.41118
320.97232
318.93537
319.32501
318.74082
317.61304
316.03321
)
;

boundaryField
{
    minY
    {
        type            fixedValue;
        value           uniform 500;
    }
    minZ
    {
        type            zeroGradient;
    }
    maxZ
    {
        type            zeroGradient;
    }
    heater_to_topAir
    {
        type            compressible::turbulentTemperatureRadCoupledMixed;
        refValue        nonuniform List<scalar> 
40
(
301.14262
302.11276
302.93804
303.60316
301.1444
302.13048
302.97557
303.65958
301.50893
302.79927
303.8918
304.75492
302.14757
303.9871
305.54464
306.75098
303.07342
305.71882
307.97829
309.71227
303.07342
305.71882
307.97829
309.71227
302.14757
303.9871
305.54464
306.75098
301.50893
302.79927
303.89181
304.75492
301.1444
302.13048
302.97557
303.65958
301.14261
302.11276
302.93804
303.60316
)
;
        refGradient     uniform 0;
        valueFraction   uniform 0.00032132529;
        source          uniform 0;
        logInterval     -1;
        writePrecision  8;
        updateHeader    1;
        writeToFile     0;
        useUserTime     1;
        kappaMethod     solidThermo;
        value           nonuniform List<scalar> 
40
(
319.30687
318.72334
317.59659
316.01807
323.1297
322.39232
320.9546
318.91915
331.24985
330.20692
328.11288
325.03611
344.58614
343.17565
340.14114
335.21368
364.24381
362.82687
359.28377
352.10186
364.24383
362.82689
359.2838
352.10188
344.58616
343.17567
340.14116
335.21368
331.24986
330.20693
328.1129
325.03613
323.12969
322.39232
320.95462
318.91919
319.30682
318.72334
317.59663
316.01815
)
;
    }
    heater_to_rightSolid
    {
        type            compressible::turbulentTemperatureRadCoupledMixed;
        refValue        nonuniform List<scalar> 10(314.13986 316.48959 321.27081 328.48782 337.01463 337.01461 328.4878 321.27082 316.48963 314.13992);
        refGradient     uniform 0;
        valueFraction   uniform 0.49999997;
        source          uniform 0;
        logInterval     -1;
        writePrecision  8;
        updateHeader    1;
        writeToFile     0;
        useUserTime     1;
        kappaMethod     solidThermo;
        value           nonuniform List<scalar> 10(315.08096 317.70682 323.15672 331.85532 344.56506 344.56506 331.85532 323.15674 317.70686 315.08103);
    }
    heater_to_leftSolid
    {
        type            compressible::turbulentTemperatureRadCoupledMixed;
        refValue        nonuniform List<scalar> 10(300.02907 300.03911 300.06319 300.10762 300.16707 300.16707 300.10762 300.06319 300.03911 300.02907);
        refGradient     uniform 0;
        valueFraction   uniform 2.0832464e-05;
        source          uniform 0;
        logInterval     -1;
        thicknessLayers List<scalar> 1(0.001);
        kappaLayers     List<scalar> 1(0.0005);
        writePrecision  8;
        updateHeader    1;
        writeToFile     0;
        useUserTime     1;
        kappaMethod     solidThermo;
        value           nonuniform List<scalar> 10(319.31231 323.13629 331.25876 344.59885 364.26213 364.26215 344.59887 331.25877 323.13628 319.31225);
    }
    heater_to_bottomWater
    {
        type            compressible::turbulentTemperatureRadCoupledMixed;
        refValue        nonuniform List<scalar> 
92
(
300.62836
301.0076
301.20798
301.27162
300.66884
301.09735
301.37005
301.50882
301.41325
302.03932
302.36913
302.51581
309.02944
312.0715
314.82609
316.42178
304.77235
306.91722
309.08253
311.07258
303.31789
304.83989
306.37287
307.80587
303.01497
304.29728
305.5416
306.6197
304.48143
304.48143
306.50016
306.50016
308.01297
308.01297
308.63638
308.63638
320.96465
335.87224
311.08751
329.74072
307.95344
322.13659
307.27407
315.91239
308.34898
314.52281
320.96464
309.02944
312.0715
314.82608
335.87223
316.42177
311.0875
304.77235
306.91721
309.08252
329.74072
311.07257
307.95343
303.31789
304.83988
306.37286
322.13661
307.80587
307.27407
303.01497
304.29728
305.5416
315.91242
306.61969
308.34897
304.48142
306.50016
308.01297
314.52283
308.63638
304.48142
306.50016
308.01297
308.63638
301.41325
302.03932
302.36913
302.51581
300.66884
301.09735
301.37005
301.50882
300.62836
301.0076
301.20799
301.27163
)
;
        refGradient     uniform 0;
        valueFraction   nonuniform List<scalar> 
92
(
0.0075140686
0.0075140686
0.0075140686
0.0075140686
0.0075140686
0.0075140686
0.0075140686
0.0075140686
0.0075140686
0.0075140686
0.0075140686
0.0075140686
0.0075140686
0.0075140686
0.0075140686
0.0075140686
0.0075140686
0.0075140686
0.0075140686
0.0075140686
0.0075140686
0.0075140686
0.0075140686
0.0075140686
0.0075140686
0.0075140686
0.0075140686
0.0075140686
0.0075140686
0.0075140686
0.0075140686
0.0075140686
0.0075140686
0.0075140686
0.0075140686
0.0075140686
0.0075140679
0.0075140679
0.0075140679
0.0075140679
0.0075140679
0.0075140679
0.0075140679
0.0075140679
0.0075140679
0.0075140679
0.0075140679
0.0075140686
0.0075140686
0.0075140686
0.0075140679
0.0075140686
0.0075140679
0.0075140686
0.0075140686
0.0075140686
0.0075140679
0.0075140686
0.0075140679
0.0075140686
0.0075140686
0.0075140686
0.0075140679
0.0075140686
0.0075140679
0.0075140686
0.0075140686
0.0075140686
0.0075140679
0.0075140686
0.0075140679
0.0075140686
0.0075140686
0.0075140686
0.0075140679
0.0075140686
0.0075140686
0.0075140686
0.0075140686
0.0075140686
0.0075140686
0.0075140686
0.0075140686
0.0075140686
0.0075140686
0.0075140686
0.0075140686
0.0075140686
0.0075140686
0.0075140686
0.0075140686
0.0075140686
)
;
        source          uniform 0;
        logInterval     -1;
        writePrecision  8;
        updateHeader    1;
        writeToFile     0;
        useUserTime     1;
        kappaMethod     solidThermo;
        value           nonuniform List<scalar> 
92
(
319.17231
318.59552
317.47812
315.91123
322.96794
322.23877
320.81317
318.79319
331.03514
330.00401
327.92716
324.87336
481.10256
481.87693
481.91527
481.25062
450.36561
451.28739
451.2757
450.41887
423.28014
423.97814
423.7698
422.83531
399.68238
399.95546
399.27826
398.02205
344.29833
379.70534
342.91257
379.30303
339.91077
377.60494
335.02305
375.12511
481.19224
481.39677
450.41306
450.55914
423.31497
422.94299
399.71438
398.09188
379.73441
375.16934
481.19222
481.10254
481.87692
481.91526
481.39677
481.25061
450.41302
450.36557
451.28736
451.27569
450.55914
450.41886
423.31492
423.28009
423.97811
423.76979
422.943
422.83532
399.71434
399.68233
399.95543
399.27826
398.0919
398.02207
379.73437
379.70531
379.30302
377.60495
375.16937
375.12514
344.29834
342.91259
339.91078
335.02306
331.03515
330.00402
327.92718
324.87338
322.96793
322.23878
320.8132
318.79323
319.17226
318.59552
317.47816
315.9113
)
;
    }
}


// ************************************************************************* //
