/*--------------------------------*- C++ -*----------------------------------*\
| =========                 |                                                 |
| \\      /  F ield         | OpenFOAM: The Open Source CFD Toolbox           |
|  \\    /   O peration     | Version:  2412                                  |
|   \\  /    A nd           | Website:  www.openfoam.com                      |
|    \\/     M anipulation  |                                                 |
\*---------------------------------------------------------------------------*/
FoamFile
{
    version     2.0;
    format      ascii;
    arch        "LSB;label=32;scalar=64";
    class       volVectorField;
    location    "0.8";
    object      flux;
}
// * * * * * * * * * * * * * * * * * * * * * * * * * * * * * * * * * * * * * //

dimensions      [0 1 -1 1 0 0 0];

internalField   nonuniform List<vector> 
5712
(
(-0.381924 0.598826 0.361337)
(-0.469388 0.329274 1.092)
(-0.86384 1.03213 0.27622)
(-1.36352 0.681369 1.1882)
(-1.31988 0.997059 0.149526)
(-2.57306 0.855853 1.24559)
(-0.902114 1.43956 0.248714)
(-2.70795 1.81352 1.93753)
(-0.923123 2.20375 0.403638)
(-2.16282 2.82951 2.42396)
(-1.13623 1.18087 0.418631)
(-1.87995 1.04725 1.74231)
(-0.864149 0.725287 0.450243)
(-1.1567 0.504556 1.55864)
(-0.466217 0.483909 0.445931)
(-0.478016 0.276032 1.34817)
(-0.661529 0.959641 0.205748)
(-0.770235 0.81701 0.119574)
(-0.880818 0.880877 0.628218)
(-0.811342 0.842016 0.308228)
(-0.602824 1.09332 0.190737)
(-0.905728 1.01114 0.0901848)
(-0.887576 1.28986 0.663739)
(-0.889798 1.07259 0.269756)
(-0.260189 0.34445 0.281921)
(-0.197744 0.231295 0.217235)
(-0.3514 0.181141 0.828383)
(-0.259468 0.125308 0.62857)
(-0.597969 0.492317 0.188888)
(-0.41098 0.3077 0.157163)
(-1.0896 0.275295 0.831795)
(-0.782321 0.179698 0.653329)
(-0.90581 1.0349 0.428835)
(-0.933642 1.06968 0.159054)
(-0.951678 0.893376 0.337935)
(-1.00376 0.677279 0.131023)
(-0.245463 0.704113 0.159852)
(-0.203403 0.57276 0.411514)
(-2.06038 0.608552 1.931)
(-2.54763 0.586296 0.583362)
(-1.11435 0.795166 0.585758)
(-1.4772 0.79253 0.257055)
(-2.60316 1.68318 2.30082)
(-3.21083 1.8675 0.710053)
(-1.21585 1.16467 0.529416)
(-1.49584 1.24786 0.231669)
(-1.57173 0.909832 1.31003)
(-2.05357 0.718686 0.433192)
(-1.27342 0.893077 0.6699)
(-1.74862 0.619922 0.297628)
(-0.742438 0.381629 1.09325)
(-0.930732 0.335415 0.344543)
(-0.160893 0.303967 0.322589)
(-0.0521975 0.508655 0.172891)
(-0.205431 0.152764 0.486343)
(-0.072656 0.224249 0.20268)
(-0.362876 0.400342 0.300377)
(-0.151143 0.668692 0.181892)
(-0.609037 0.256591 0.507608)
(-0.227354 0.373182 0.198753)
(-0.422364 0.398784 0.38714)
(-0.140557 0.791489 0.244049)
(-0.404259 0.310153 0.326528)
(-0.116412 0.546964 0.143897)
(-0.778631 0.0926248 0.544248)
(-0.230362 0.362155 0.201929)
(-1.01569 0.0128916 0.210558)
(-0.323641 0.257512 0.0796732)
(-1.24538 0.768457 0.689707)
(-0.727175 0.932892 0.540113)
(-1.04559 0.840065 0.400309)
(-0.723366 0.942423 0.370933)
(-1.23073 0.953023 0.700471)
(-0.795773 0.951285 0.619263)
(-0.974446 1.00595 0.37003)
(-0.771905 0.951703 0.395112)
(-0.845206 0.784032 0.396531)
(-0.615111 0.953744 0.35888)
(-0.941053 0.758787 0.561298)
(-0.607917 0.928925 0.497666)
(-1.01411 0.856871 0.28335)
(-0.737424 0.947326 0.24951)
(-1.0497 0.848163 0.150122)
(-0.752884 0.948509 0.129261)
(-0.955138 1.03336 0.261697)
(-0.77708 0.952998 0.260869)
(-0.994155 1.0455 0.133723)
(-0.789048 0.954017 0.133965)
(-0.864011 0.745208 0.286959)
(-0.63962 0.961824 0.236855)
(-0.928424 0.682374 0.155304)
(-0.659593 0.962231 0.111956)
(-0.940769 0.882081 0.355654)
(-0.400431 0.999469 0.204599)
(-0.5599 1.10904 0.373139)
(-0.656624 1.65465 0.40025)
(-1.02078 0.929148 0.507147)
(-0.47027 1.18411 0.383917)
(-0.568918 1.10823 0.558926)
(-0.704031 1.85223 0.706151)
(-0.937668 0.832392 0.244414)
(-0.368459 0.872689 0.108819)
(-0.576774 1.09952 0.228819)
(-0.637413 1.55045 0.232365)
(-0.96917 0.800696 0.129298)
(-0.369285 0.797043 0.0473262)
(-0.601584 1.09817 0.0970838)
(-0.639078 1.50302 0.0859624)
(-0.156265 0.268553 0.410737)
(-0.178876 0.35385 0.790449)
(-0.0561784 0.743063 0.286708)
(-0.119719 1.27245 0.886795)
(-0.447825 0.313492 0.44504)
(-0.531045 0.36333 0.790711)
(-0.193266 0.898808 0.339132)
(-0.387171 1.39376 0.932463)
(-0.729901 0.359685 0.559686)
(-0.867277 0.378355 0.76377)
(-0.357779 1.07517 0.458254)
(-0.656271 1.51637 0.928383)
(-0.759474 1.08645 0.530348)
(-0.383815 1.1062 0.5504)
(-0.846576 0.99799 0.480731)
(-1.09164 0.977917 0.498063)
(-0.587323 1.47409 0.566535)
(-0.257647 1.116 0.363042)
(-0.419173 1.02819 0.468219)
(-0.581577 0.985078 0.687825)
(-1.10734 0.883872 0.835944)
(-0.798772 1.71944 1.19879)
(-0.48712 1.0191 0.49879)
(-0.667303 0.993619 0.466976)
(-0.779245 0.89509 0.488164)
(-0.800908 1.02509 0.619661)
(-1.03321 2.16064 0.939833)
(-0.166785 0.0877472 0.983857)
(-0.166324 0.116186 0.953451)
(-0.108181 0.25694 1.14829)
(-0.113019 0.568009 1.16553)
(-0.492074 0.121733 0.947051)
(-0.444498 0.174698 0.945589)
(-0.34068 0.325906 1.14004)
(-0.336006 0.63283 1.14206)
(-0.732886 0.176067 0.851111)
(-0.629565 0.168732 0.881586)
(-0.509885 0.420745 1.07414)
(-0.49512 0.71429 1.09057)
(-0.395058 1.05066 0.451857)
(-0.430474 0.980469 0.479757)
(-0.623694 0.918536 0.512452)
(-0.659243 0.818272 0.545251)
(-0.789419 0.8447 0.642387)
(-0.730875 0.69238 0.666467)
(-0.992215 0.647461 0.784108)
(-0.881243 0.53843 0.784474)
(-0.764581 0.567643 1.01933)
(-0.748913 0.883799 1.04622)
(-0.562763 0.933868 0.404471)
(-0.559355 0.791992 0.454623)
(-0.738832 0.90641 0.502751)
(-0.607664 0.79815 0.573504)
(-0.732951 0.815957 0.601564)
(-0.55035 0.706601 0.692873)
(-0.697181 0.766167 0.726466)
(-0.500599 0.638354 0.836477)
(-0.840665 0.659091 0.976277)
(-0.629229 0.929079 1.10109)
(-0.600033 0.958302 0.481358)
(-0.253512 0.999479 0.327932)
(-0.485163 1.00337 0.380891)
(-0.426764 1.08355 0.363753)
(-0.649433 0.920221 0.498225)
(-0.695191 0.830017 0.528124)
(-0.666889 0.948068 0.398751)
(-0.817067 0.89181 0.49246)
(-0.426403 0.924135 0.375911)
(-0.376309 0.918851 0.362044)
(-0.562949 0.906767 0.489729)
(-0.176704 0.881003 0.353812)
(-0.481708 1.02534 0.168636)
(-0.702126 1.11315 0.256325)
(-0.50699 1.0238 0.0573708)
(-0.76405 1.10903 0.0874133)
(-0.684079 0.969229 0.241018)
(-1.01743 0.935914 0.355858)
(-0.715011 0.964985 0.0812004)
(-1.05872 0.935279 0.123397)
(-0.430268 0.91413 0.157123)
(-0.645808 0.910155 0.241686)
(-0.455247 0.929833 0.0506222)
(-0.714173 0.92068 0.0818387)
(-0.543202 0.842752 0.377349)
(-0.360208 0.819139 0.313336)
(-0.735842 0.600787 0.402602)
(-0.295077 0.72399 0.257113)
(-0.566725 0.854003 0.543358)
(-0.128897 0.807482 0.393274)
(-0.688984 0.628165 0.638956)
(-0.0854993 0.768166 0.438369)
(-0.577072 0.814741 0.184564)
(-0.546552 0.803146 0.19535)
(-0.778284 0.589388 0.227452)
(-0.377475 0.715819 0.133046)
(-0.531736 0.820844 0.125811)
(-0.642135 0.793174 0.130107)
(-0.723918 0.581347 0.14032)
(-0.486938 0.695406 0.103907)
(-0.146497 0.0899771 0.839037)
(-0.127711 0.0653697 0.557926)
(-0.0974206 0.043661 0.18689)
(-0.0963611 0.0447535 0.909244)
(-0.0891158 0.0336382 0.578572)
(-0.0715379 0.0324762 0.201156)
(-0.381009 0.139582 0.816443)
(-0.295358 0.0836907 0.541335)
(-0.228571 0.0577456 0.189127)
(-0.265389 0.107247 0.89588)
(-0.199168 0.0868082 0.572979)
(-0.149679 0.0667461 0.196607)
(-0.478659 0.135223 0.763683)
(-0.356227 0.108725 0.499671)
(-0.293313 0.103516 0.16848)
(-0.385937 0.193928 0.863773)
(-0.271652 0.148613 0.557052)
(-0.218389 0.12232 0.192488)
(-0.354607 0.839075 0.360807)
(-0.23664 0.642635 0.219653)
(-0.196593 0.525786 0.0651176)
(-0.584088 0.732616 0.479867)
(-0.359903 0.598596 0.328533)
(-0.24996 0.510468 0.108067)
(-0.578311 0.522399 0.590151)
(-0.35603 0.438582 0.410294)
(-0.232331 0.390489 0.139108)
(-0.674362 0.408472 0.680811)
(-0.453549 0.337906 0.45024)
(-0.330962 0.297314 0.149976)
(-0.601242 0.318507 0.81922)
(-0.357948 0.198946 0.526654)
(-0.227264 0.14048 0.185511)
(-0.660917 0.664704 0.377177)
(-0.456715 0.527498 0.218297)
(-0.349595 0.443253 0.0756122)
(-0.5257 0.696396 0.445844)
(-0.3517 0.558372 0.297231)
(-0.242869 0.480126 0.107642)
(-0.508501 0.544346 0.536531)
(-0.322274 0.413142 0.360225)
(-0.208055 0.346953 0.128001)
(-0.497188 0.421856 0.645702)
(-0.31527 0.318901 0.419146)
(-0.204694 0.269116 0.1466)
(-0.603441 0.316612 0.779993)
(-0.318263 0.195848 0.468587)
(-0.161402 0.138588 0.165286)
(-0.506672 1.21484 -0.0238304)
(-0.806586 1.22908 0.036186)
(-0.442326 1.31656 0.00796858)
(-0.614051 1.18081 0.10052)
(-0.439373 1.22122 0.0815943)
(-0.877312 1.18504 0.0787025)
(-0.378693 1.48836 0.207438)
(-0.72807 1.24196 0.177493)
(-0.00365539 0.747899 0.0237521)
(-0.0653541 0.789934 0.034702)
(0.012182 0.753002 0.0251162)
(-0.0412123 0.717144 0.0363307)
(-0.142284 0.999186 0.0115092)
(-0.262045 0.845334 0.0323509)
(-0.0951888 0.991564 0.0218358)
(-0.168456 0.756465 0.047775)
(-0.0921953 1.08779 0.057925)
(-0.169753 1.11465 0.0390819)
(-0.466476 0.922712 0.138388)
(-0.675052 1.01527 0.102242)
(-0.344696 1.16562 0.0592831)
(-0.275726 1.04738 0.0898124)
(-0.520887 1.24586 0.111441)
(-0.459506 1.30715 0.00370078)
(-0.729189 1.3531 0.261575)
(-0.785215 1.46876 0.0616181)
(0.0129084 1.0513 -0.20658)
(0.229153 1.08919 -0.0706022)
(-0.362225 0.910148 0.00303416)
(-0.25275 0.904567 -0.00675318)
(-0.274812 1.0199 -0.0339481)
(-0.155633 0.990839 -0.0388296)
(-0.0613755 0.643269 0.368585)
(-0.0388466 0.358542 0.141084)
(-0.0534644 0.609802 0.0957078)
(-0.0344762 0.397249 0.0497411)
(-0.154924 0.628161 0.361721)
(-0.0481319 0.351339 0.140554)
(-0.0875524 0.590937 0.101999)
(-0.0200066 0.384419 0.0564667)
(-0.397409 0.576696 0.343849)
(-0.110522 0.323471 0.147696)
(-0.314321 0.553414 0.125661)
(-0.0984537 0.364641 0.0741669)
(-0.351694 0.546494 0.0894753)
(-0.10458 0.378174 0.0457976)
(-0.391761 0.525785 0.0269056)
(-0.122433 0.375952 0.0233709)
(-0.545646 0.908126 0.539703)
(-0.507778 0.679312 0.464404)
(-0.421402 0.910112 0.225945)
(-0.494859 0.700523 0.28959)
(-0.85875 1.03596 0.663127)
(-0.743728 0.893051 0.613421)
(-0.697085 1.06618 0.315433)
(-0.697105 0.899246 0.374858)
(-0.294187 0.822486 0.18339)
(-0.351574 0.530993 0.222675)
(-0.344873 0.836564 0.417838)
(-0.329836 0.501737 0.334368)
(-0.391918 0.942351 0.132223)
(-0.485162 0.713352 0.17925)
(-0.408741 0.976431 0.0597149)
(-0.485897 0.717097 0.0896958)
(-0.66386 1.11091 0.200553)
(-0.675998 0.907318 0.234185)
(-0.687025 1.14181 0.0991233)
(-0.677639 0.910882 0.118601)
(-0.258467 0.810585 0.0905141)
(-0.351282 0.544533 0.138069)
(-0.247159 0.809633 0.0345506)
(-0.351692 0.547381 0.0718271)
(-0.0244886 0.46982 0.147089)
(-0.0366497 0.312507 0.0859429)
(-0.252571 0.391156 0.165118)
(-0.110764 0.250967 0.0887977)
(-0.0278395 0.424671 0.271291)
(-0.0285689 0.277907 0.130724)
(-0.223462 0.358715 0.228682)
(-0.093294 0.22871 0.119914)
(-0.0227549 0.485178 0.0745496)
(-0.0318963 0.331352 0.0517191)
(-0.26305 0.406179 0.107766)
(-0.120946 0.263266 0.0560072)
(-0.0309782 0.489818 0.026619)
(-0.0338024 0.342185 0.023588)
(-0.262321 0.410111 0.0591882)
(-0.126044 0.269257 0.0289969)
(0.00624244 0.101098 0.414188)
(0.0123076 0.0526496 0.23744)
(-0.016963 0.188317 0.175087)
(-0.00866609 0.110869 0.15766)
(0.03037 0.103599 0.410999)
(0.0494998 0.0594752 0.239828)
(-0.0255223 0.190199 0.169975)
(-0.0107666 0.120367 0.153431)
(-0.0400717 0.110613 0.416269)
(-0.000754981 0.0773969 0.236959)
(-0.0780854 0.187161 0.168727)
(-0.0586341 0.135385 0.142285)
(0.264612 0.481833 0.54068)
(0.133958 0.849288 0.575982)
(0.151034 0.309167 0.458349)
(0.103083 0.280286 0.318031)
(0.00864232 0.20634 0.148273)
(0.268858 0.860549 0.346477)
(0.375666 0.523807 0.372113)
(0.165715 0.280853 0.35263)
(0.167029 0.249543 0.294472)
(0.012033 0.161077 0.164215)
(-0.415172 0.836156 0.49838)
(-0.289031 0.57894 0.401362)
(-0.212706 0.41122 0.298293)
(-0.191177 0.295922 0.212152)
(-0.0859144 0.194324 0.109439)
(0.0170424 0.0334668 0.167372)
(0.0132922 0.0271128 0.137916)
(-0.0034467 0.0769033 0.147076)
(-0.00354236 0.0646984 0.148515)
(0.0485994 0.0411467 0.172908)
(0.0470245 0.0286175 0.14119)
(-0.00812453 0.0900892 0.145555)
(-0.00767901 0.0749769 0.148489)
(0.0429684 0.0574188 0.176343)
(0.0529872 0.0428272 0.147298)
(-0.0302373 0.106678 0.141346)
(-0.0272331 0.0894369 0.146873)
(0.0917925 0.850625 0.386268)
(0.0191295 0.74967 0.365444)
(0.26628 0.508446 0.317034)
(0.157078 0.420317 0.266596)
(0.131138 0.301381 0.20791)
(0.0759266 0.25535 0.195905)
(0.122128 0.226827 0.170395)
(0.0881563 0.188166 0.160888)
(0.00749738 0.144966 0.125341)
(-0.00490348 0.12235 0.143341)
(-0.228759 0.742104 0.291532)
(-0.161974 0.589613 0.326996)
(-0.013025 0.512343 0.219531)
(0.0398189 0.398238 0.242168)
(0.0106638 0.365753 0.168614)
(0.0436336 0.293039 0.183275)
(-0.00704679 0.253441 0.136248)
(0.0231775 0.208623 0.149859)
(-0.00286532 0.174225 0.0929059)
(-0.00562058 0.165558 0.133828)
(-0.171865 0.494229 0.200207)
(-0.17191 0.3496 0.159532)
(-0.369443 0.509418 0.135369)
(-0.227409 0.335583 0.0838559)
(-0.361759 0.667822 0.328964)
(-0.320957 0.460465 0.244492)
(-0.523873 0.694299 0.260656)
(-0.386519 0.466375 0.170399)
(-0.255395 0.393402 0.0878562)
(-0.148939 0.276273 0.0562748)
(-0.0930759 0.384115 0.133148)
(-0.108079 0.289821 0.117033)
(-0.431928 0.535908 0.156842)
(-0.186383 0.324953 0.0742714)
(-0.462219 0.5453 0.0602936)
(-0.176715 0.332407 0.0327238)
(-0.598912 0.740986 0.225945)
(-0.37932 0.488381 0.132749)
(-0.640248 0.745649 0.0789007)
(-0.373187 0.497085 0.0537244)
(-0.304726 0.400335 0.112029)
(-0.11086 0.263441 0.0497192)
(-0.328624 0.409479 0.0468616)
(-0.0979329 0.276478 0.0223248)
(-0.160212 0.274103 0.0560737)
(-0.112593 0.213648 0.0632057)
(-0.0838805 0.191296 0.0532406)
(-0.144607 0.21005 0.0845815)
(-0.0737348 0.274704 0.0894116)
(-0.0896265 0.220275 0.100125)
(-0.0470787 0.193679 0.0636422)
(-0.117354 0.204095 0.108644)
(-0.175434 0.274425 0.0682786)
(-0.100368 0.209668 0.0447067)
(-0.104762 0.187386 0.0375927)
(-0.166189 0.21885 0.0607877)
(-0.214328 0.289066 0.0221031)
(-0.090921 0.213989 0.0058568)
(-0.131315 0.194643 -0.00304448)
(-0.158272 0.216975 0.0082616)
(0.0121194 0.0411062 0.100951)
(0.0116446 0.0288205 0.0470342)
(0.0122025 0.0203413 0.0136287)
(-0.00240953 0.14432 0.0961117)
(0.00214826 0.0649937 0.0270021)
(0.00262914 0.0454427 0.00736446)
(0.0420814 0.0386222 0.105711)
(0.0395626 0.0314182 0.0528755)
(0.0382884 0.0239579 0.0165644)
(-0.00267627 0.155414 0.0984144)
(0.00909629 0.0768724 0.0290975)
(0.00998739 0.0561107 0.00833057)
(0.0521719 0.0501934 0.109341)
(0.0580406 0.0455541 0.0566856)
(0.0582337 0.0405347 0.0158681)
(-0.0141693 0.170062 0.0981994)
(0.0160533 0.0966469 0.0295604)
(0.0202306 0.0758631 0.00763204)
(-0.0107363 0.583069 0.254574)
(0.0154392 0.447833 0.147535)
(0.0138596 0.370348 0.0429679)
(0.0850867 0.333193 0.181633)
(0.0873155 0.260081 0.104591)
(0.0763343 0.220499 0.0314747)
(0.0621959 0.217229 0.146071)
(0.0668821 0.171643 0.0800467)
(0.0617012 0.148266 0.0245847)
(0.0713695 0.170229 0.11607)
(0.0744099 0.132635 0.0598475)
(0.0707829 0.113858 0.016423)
(-0.00644391 0.203825 0.0981656)
(0.0225592 0.128853 0.028982)
(0.0197158 0.10254 0.00681196)
(-0.182432 0.434935 0.271593)
(-0.0929894 0.327462 0.149284)
(-0.0528145 0.266122 0.0494762)
(-0.00964662 0.29411 0.202856)
(0.0248811 0.220906 0.112581)
(0.0371215 0.181568 0.0378555)
(0.00832423 0.231531 0.154849)
(0.0358848 0.170983 0.0840661)
(0.0429344 0.137047 0.0279005)
(0.00613834 0.196452 0.121084)
(0.0329189 0.144285 0.0566004)
(0.0379358 0.11725 0.0172161)
(-0.0327253 0.269213 0.10754)
(0.0125515 0.161049 0.0314489)
(0.0153598 0.128983 0.0103385)
(-0.00327661 0.177769 0.0462603)
(-0.000632819 0.0877835 0.0150531)
(1.64048e-05 0.0461203 0.00667904)
(0.000229549 0.0254047 0.00197668)
(0.000449684 0.198095 0.0185151)
(0.000953596 0.0944873 0.00623267)
(0.00136154 0.0480825 0.0029079)
(0.000869122 0.0264103 0.00095083)
(-0.00833898 0.172334 0.0465122)
(-0.00175089 0.0864539 0.0155324)
(0.000261493 0.0460271 0.0075034)
(0.000699322 0.0256118 0.00250964)
(0.000932633 0.195876 0.020781)
(0.00212676 0.0945262 0.00750902)
(0.00274037 0.0489506 0.00421951)
(0.00176566 0.0271769 0.00171896)
(-0.0137777 0.16281 0.0512474)
(-0.00354621 0.0845752 0.0177062)
(-0.000344157 0.0473923 0.00925469)
(0.00119742 0.026343 0.00340352)
(-0.00563254 0.189138 0.0313141)
(0.000206891 0.0949043 0.0126387)
(0.000996557 0.0514029 0.00541561)
(0.00139148 0.0283874 0.00205919)
(-0.00305368 0.196573 0.0178363)
(0.000122395 0.097817 0.00872857)
(-0.000326488 0.0500346 0.00202199)
(7.25517e-05 0.0277319 0.000386196)
(-0.00612034 0.199774 0.0146312)
(-0.00158632 0.100402 0.00810199)
(-0.000249851 0.0504792 0.00277433)
(0.000355449 0.0276328 0.00104662)
(-0.028166 0.171151 0.0379404)
(-0.00875836 0.0889596 0.0145599)
(-0.00484132 0.0495895 0.00630452)
(-0.00062263 0.0273185 0.00159923)
(-0.0362977 0.144056 0.034771)
(-0.011316 0.0797455 0.0130107)
(-0.0081668 0.0465844 0.00699876)
(-0.000836436 0.0248035 0.00138558)
(-0.0232135 0.151231 0.0512884)
(-0.00704087 0.0814664 0.018173)
(-0.00356811 0.0478787 0.0097851)
(0.000820262 0.0261036 0.00313059)
(-0.0297014 0.132113 0.0439964)
(-0.00923168 0.074905 0.0154126)
(-0.00723299 0.0449352 0.00912668)
(-0.000642276 0.023851 0.00155212)
(-0.0255793 0.182422 0.0248692)
(-0.00814033 0.0939625 0.0105736)
(-0.00423625 0.0502865 0.00409573)
(-0.000635112 0.0276184 0.00110008)
(-0.0395854 0.151399 0.0240978)
(-0.0123455 0.0832966 0.00979329)
(-0.00867722 0.0475269 0.00506102)
(-0.000752958 0.025153 0.00132736)
(-0.0258825 0.188039 0.0143203)
(-0.00858687 0.0971658 0.00710487)
(-0.00378062 0.0511099 0.00309227)
(-0.000204156 0.0278635 0.00131923)
(-0.041207 0.155224 0.0134476)
(-0.0128931 0.0857131 0.00637311)
(-0.00895127 0.0485561 0.00337481)
(-0.000768921 0.0255848 0.00142637)
(-0.00258254 0.136724 0.0577456)
(-0.000612456 0.0765922 0.0185939)
(-0.000306649 0.0435059 0.00877184)
(7.42243e-05 0.0240085 0.00219542)
(-0.00178606 0.098473 0.0566644)
(-0.000385307 0.064187 0.0179638)
(-0.000521089 0.0401687 0.0103059)
(0.000143374 0.0217069 0.00157965)
(-0.00667082 0.132928 0.0566276)
(-0.00165417 0.0755358 0.0184676)
(-0.000676922 0.0436288 0.00919924)
(0.000337492 0.0240735 0.00236354)
(-0.00321079 0.0982336 0.0541829)
(-0.000513701 0.0641357 0.0172115)
(-0.00108243 0.0402299 0.0101586)
(0.000443543 0.0217625 0.00149713)
(-0.0192683 0.127414 0.0557019)
(-0.00573636 0.0740368 0.0184318)
(-0.0030594 0.0442946 0.0102935)
(0.000137237 0.0242827 0.00284791)
(-0.0140639 0.100528 0.048383)
(-0.00386964 0.0651155 0.0153868)
(-0.00297368 0.040664 0.00982779)
(0.000774268 0.0219262 0.00163727)
(-0.0089879 0.122486 0.0500406)
(-0.00240841 0.0718864 0.0168143)
(-0.00159602 0.0439847 0.0103768)
(0.00140832 0.0241139 0.00359791)
(-0.00570129 0.101967 0.0524736)
(-0.00122021 0.065658 0.0167232)
(-0.00186121 0.0417988 0.0120182)
(0.00104121 0.0222982 0.00226278)
(-0.024945 0.116902 0.0374955)
(-0.0075602 0.0699168 0.0126069)
(-0.00622692 0.0426347 0.00796266)
(0.000506097 0.0227083 0.0020158)
(0.000599619 0.0639115 0.0434806)
(0.000386981 0.0535144 0.0128763)
(3.88629e-05 0.0326946 0.00789191)
(0.000280864 0.00960977 0.000991563)
(0.00265507 0.0311699 0.0163343)
(0.0010049 0.0482149 0.00451211)
(0.000377926 0.0295763 0.00247493)
(0.00025608 0.00875105 0.000502627)
(7.45107e-05 0.0678767 0.043163)
(0.000582665 0.0550298 0.0129081)
(-0.000287229 0.0334098 0.00786759)
(0.000637261 0.0100825 0.00102018)
(0.00664428 0.0362408 0.0167886)
(0.00259602 0.049904 0.00470323)
(0.000836541 0.0301544 0.00260718)
(0.000633492 0.00893785 0.000592054)
(-0.00214572 0.0745451 0.0409712)
(5.50037e-05 0.057441 0.0123426)
(-0.000770768 0.0340068 0.00779305)
(0.000980444 0.0100491 0.00108787)
(0.00969452 0.0445534 0.0164656)
(0.00378726 0.0527715 0.00467978)
(0.00122559 0.0308266 0.00272019)
(0.000922055 0.00904356 0.000698296)
(-0.00182819 0.0850362 0.0348158)
(0.000258608 0.0607084 0.0104141)
(-0.000972151 0.0353843 0.00726853)
(0.00124912 0.0107795 0.00122792)
(0.0114504 0.0559006 0.0147213)
(0.00451017 0.0566573 0.00410982)
(0.00122647 0.0320823 0.00280256)
(0.000951621 0.00946856 0.000824877)
(-0.00589817 0.101195 0.0304059)
(-0.000638244 0.0653596 0.00937153)
(-0.00266027 0.0376303 0.00659343)
(0.000656472 0.0121094 0.00144604)
(0.00798214 0.0710117 0.0135316)
(0.00392279 0.0608606 0.00399187)
(0.000402112 0.0333373 0.00282929)
(0.000661904 0.00982561 0.000932401)
(-0.0235597 0.114885 0.0213498)
(-0.00456569 0.0712521 0.00757855)
(-0.00574937 0.0389991 0.00405006)
(-0.000224624 0.0117136 0.000893445)
(-0.00643837 0.0778078 0.0110797)
(0.00021017 0.0665464 0.0043236)
(-0.00118844 0.0358704 0.00199236)
(-1.43103e-07 0.010332 0.00076909)
(-0.0142478 0.111739 0.0242948)
(-0.00213893 0.0687128 0.00782564)
(-0.00459215 0.0380936 0.00513497)
(7.74432e-05 0.0116928 0.00114526)
(-0.000227697 0.0769359 0.0119799)
(0.00210627 0.0643658 0.00404178)
(-0.000526229 0.0345755 0.00243418)
(0.00029576 0.0100498 0.000907091)
(-0.0309218 0.115763 0.016662)
(-0.00713433 0.0728814 0.00673952)
(-0.0067205 0.0391802 0.00324182)
(-0.000385833 0.0111261 0.000867394)
(-0.0101581 0.0774927 0.00944287)
(-0.00137466 0.0681718 0.00417303)
(-0.00165364 0.0364985 0.00166819)
(-0.000175279 0.0102924 0.000726096)
(-0.0353347 0.115123 0.0103895)
(-0.00925005 0.0744641 0.00506771)
(-0.00746032 0.0400886 0.00252579)
(-0.000584462 0.0112761 0.00108913)
(-0.012712 0.0808255 0.0069424)
(-0.00281398 0.0698149 0.00359352)
(-0.00203967 0.0373303 0.00162477)
(-0.000304292 0.0104566 0.000850772)
(7.94744e-05 0.0140373 0.000430098)
(4.31e-05 0.00739718 9.91446e-05)
(1.9539e-05 0.00369721 2.77037e-05)
(8.34519e-06 0.00166409 9.30809e-06)
(4.22498e-06 0.000470257 4.22941e-06)
(0.000175664 0.0143372 0.000182626)
(7.6935e-05 0.00746082 4.46162e-05)
(3.22908e-05 0.0037121 1.30124e-05)
(1.34064e-05 0.00166811 4.48713e-06)
(6.72065e-06 0.00047114 2.06544e-06)
(0.000139571 0.0142662 0.000502552)
(8.93778e-05 0.00745739 0.000137138)
(4.1008e-05 0.00372085 4.47272e-05)
(1.74865e-05 0.00167324 1.65468e-05)
(8.82552e-06 0.000472622 7.89695e-06)
(0.000450948 0.014588 0.000312421)
(0.000210423 0.00753761 0.000105297)
(8.83043e-05 0.00374339 3.83081e-05)
(3.65476e-05 0.00168029 1.49271e-05)
(1.82907e-05 0.000474289 7.29278e-06)
(0.000253048 0.0143284 0.000734799)
(0.000142433 0.00750921 0.000243844)
(6.18819e-05 0.00374603 8.85772e-05)
(2.57934e-05 0.00168334 3.45188e-05)
(1.2892e-05 0.000475249 1.68553e-05)
(0.00068606 0.0146285 0.000996678)
(0.000306455 0.00764405 0.000387043)
(0.000126514 0.00379175 0.000151377)
(5.19711e-05 0.00169922 6.0978e-05)
(2.59185e-05 0.000479174 3.02448e-05)
(0.000200525 0.0151638 0.000909551)
(9.38778e-05 0.00782789 0.000378074)
(3.97896e-05 0.00386616 0.000152626)
(1.65702e-05 0.00172757 6.25375e-05)
(8.33181e-06 0.000486435 3.13372e-05)
(4.81423e-05 0.0153569 0.000784491)
(3.87971e-05 0.00797586 0.00034854)
(1.88895e-05 0.00393394 0.000146172)
(8.27841e-06 0.00175451 6.13949e-05)
(4.25492e-06 0.000493452 3.12794e-05)
(0.000241994 0.0147972 0.000801016)
(0.000119712 0.00768892 0.00029239)
(5.13335e-05 0.00381572 0.000112565)
(2.13257e-05 0.00170935 4.51674e-05)
(1.06565e-05 0.000481853 2.24138e-05)
(-1.86806e-05 0.0145529 0.000596462)
(8.21559e-06 0.0076615 0.000224248)
(5.37159e-06 0.00381334 8.73261e-05)
(2.46754e-06 0.00170953 3.52233e-05)
(1.27003e-06 0.000481982 1.75198e-05)
(0.000545031 0.0142716 0.00085557)
(0.000228657 0.00756969 0.000299774)
(9.16371e-05 0.00377403 0.000112796)
(3.71034e-05 0.00169428 4.4685e-05)
(1.83596e-05 0.000478066 2.19755e-05)
(8.58676e-05 0.0143095 0.000546816)
(4.3856e-05 0.00759395 0.000199676)
(1.86842e-05 0.00378884 7.68838e-05)
(7.70526e-06 0.00170053 3.07678e-05)
(3.83377e-06 0.000479705 1.52017e-05)
(-5.90472e-05 0.0150772 0.000786159)
(4.6145e-06 0.00780662 0.00031495)
(6.03092e-06 0.00386242 0.000125624)
(3.06106e-06 0.00172698 5.13359e-05)
(1.61821e-06 0.000486356 2.57474e-05)
(-2.81775e-05 0.0147424 0.000656124)
(8.16016e-06 0.00776629 0.000277184)
(5.83764e-06 0.00385718 0.000113014)
(2.73925e-06 0.00172635 4.65808e-05)
(1.42265e-06 0.000486299 2.34361e-05)
(-0.000111349 0.0152488 0.000711782)
(-6.74221e-06 0.00796041 0.000317775)
(3.2879e-06 0.00393498 0.000133604)
(2.25863e-06 0.00175611 5.62006e-05)
(1.29061e-06 0.00049397 2.86642e-05)
(-8.33588e-05 0.0149261 0.000671172)
(-1.07108e-05 0.00791156 0.000304496)
(-9.96332e-07 0.00392699 0.000128829)
(7.40012e-08 0.00175463 5.43218e-05)
(1.18845e-07 0.000493714 2.77404e-05)
(5.23332e-05 0.0135664 0.000426667)
(3.19787e-05 0.00730773 9.19623e-05)
(1.45473e-05 0.00367804 2.4497e-05)
(6.20495e-06 0.00165924 7.98865e-06)
(3.13989e-06 0.000469226 3.5723e-06)
(8.91405e-05 0.0131796 0.000177486)
(3.70429e-05 0.00724382 3.68115e-05)
(1.49244e-05 0.00366529 9.56575e-06)
(6.08153e-06 0.00165617 3.0714e-06)
(3.022e-06 0.000468588 1.36066e-06)
(0.000141652 0.0136759 0.000455213)
(7.76749e-05 0.00735263 0.000109577)
(3.39644e-05 0.00369589 3.31376e-05)
(1.42309e-05 0.00166605 1.17952e-05)
(7.13811e-06 0.000470975 5.52415e-06)
(0.000218608 0.0133029 0.000176003)
(8.68041e-05 0.00728883 3.97032e-05)
(3.44651e-05 0.00368186 1.14096e-05)
(1.3939e-05 0.00166225 3.94654e-06)
(6.89918e-06 0.000470127 1.82106e-06)
(0.00017945 0.0138005 0.000460468)
(9.72379e-05 0.00740956 0.000130133)
(4.19889e-05 0.0037195 4.36736e-05)
(1.74424e-05 0.00167509 1.64044e-05)
(8.70611e-06 0.000473292 7.86367e-06)
(0.000311157 0.0135466 0.000219474)
(0.000115884 0.00735578 6.47484e-05)
(4.47902e-05 0.00370566 2.22255e-05)
(1.78999e-05 0.00167091 8.4368e-06)
(8.8165e-06 0.00047231 4.06081e-06)
(0.000456253 0.0139843 0.000733838)
(0.00017418 0.00748198 0.00025131)
(6.71884e-05 0.00374794 9.24347e-05)
(2.67556e-05 0.00168568 3.61119e-05)
(1.31331e-05 0.000475973 1.75739e-05)
(0.000267616 0.0138622 0.000373922)
(9.30993e-05 0.00744164 0.000125832)
(3.47856e-05 0.00373485 4.58877e-05)
(1.37006e-05 0.00168121 1.78436e-05)
(6.70521e-06 0.000474875 8.64909e-06)
(0.00028123 0.0140588 0.000691419)
(0.000106095 0.0075398 0.000254834)
(4.06657e-05 0.00376971 9.74445e-05)
(1.61491e-05 0.00169361 3.87268e-05)
(7.92123e-06 0.000477966 1.90158e-05)
(-0.0197373 0.566156 0.167474)
(-0.02673 0.888475 0.292277)
(-0.0554536 0.58456 0.160401)
(-0.0777314 0.895961 0.284806)
(-0.0863823 0.614791 0.152943)
(-0.127173 0.907897 0.26663)
(-0.1028 0.65078 0.15156)
(-0.168821 0.945153 0.257465)
(-0.0933475 0.68108 0.158478)
(-0.155754 1.01539 0.28206)
(-0.0899262 0.581881 0.0943728)
(-0.133448 0.713889 0.126059)
(-0.0678572 0.615476 0.126183)
(-0.0900585 0.794215 0.189544)
(-0.12124 0.569473 0.0625061)
(-0.173263 0.691679 0.0750701)
(-0.134789 0.560194 0.0225381)
(-0.187514 0.684628 0.0280783)
(-0.0318129 0.464901 0.502088)
(-0.00720511 0.0844798 0.123428)
(-0.00162216 0.0189824 0.0290417)
(-0.000359402 0.00437071 0.00666343)
(-9.34276e-05 0.000786871 0.0017688)
(-0.0103817 0.553872 0.135419)
(-0.00440743 0.155553 0.0366103)
(-0.000423294 0.0386461 0.00999682)
(-0.000141639 0.00897197 0.00231412)
(-6.40371e-05 0.00160108 0.000550552)
(-0.102973 0.469141 0.493376)
(-0.0234722 0.0823786 0.119726)
(-0.0053158 0.0181999 0.0279959)
(-0.00118719 0.00415838 0.00638505)
(-0.000310995 0.000745276 0.00168915)
(-0.0263018 0.556741 0.140276)
(-0.00574951 0.154461 0.0413814)
(-0.00121371 0.0379399 0.0103972)
(-0.000251642 0.00870739 0.00248733)
(-5.90558e-05 0.00155061 0.000657177)
(-0.17962 0.47651 0.467015)
(-0.0412081 0.0807468 0.111596)
(-0.00939997 0.0174417 0.0258682)
(-0.0021222 0.00394273 0.00586841)
(-0.000562298 0.000703295 0.00154829)
(-0.0482109 0.563534 0.136161)
(-0.0121336 0.15341 0.0398723)
(-0.0028423 0.0370961 0.00993176)
(-0.000669075 0.00843429 0.00235148)
(-0.000179807 0.00149443 0.000615568)
(-0.252659 0.483888 0.426746)
(-0.0583951 0.0782673 0.100203)
(-0.0134855 0.0165301 0.023081)
(-0.00308948 0.00371193 0.00523384)
(-0.000832499 0.00066183 0.00138605)
(-0.069208 0.572132 0.129797)
(-0.0193448 0.151911 0.0370687)
(-0.00488068 0.0362702 0.00905289)
(-0.00120737 0.00821148 0.00211085)
(-0.000339457 0.00145435 0.000545552)
(-0.344054 0.483695 0.36275)
(-0.0820406 0.0753652 0.084161)
(-0.0194167 0.0158717 0.0194321)
(-0.00454812 0.00359564 0.00444138)
(-0.00125365 0.000646965 0.001191)
(-0.0950919 0.574248 0.118011)
(-0.0303524 0.149424 0.0322562)
(-0.00810183 0.0357527 0.00771827)
(-0.00205785 0.00816526 0.00178126)
(-0.000590661 0.00145833 0.000457498)
(-0.444774 0.439897 0.194714)
(-0.116516 0.0820751 0.0485105)
(-0.0293143 0.0193404 0.0116669)
(-0.00720424 0.004691 0.00274666)
(-0.00206836 0.000879028 0.000756037)
(-0.115513 0.489614 0.0600795)
(-0.03825 0.145814 0.0155227)
(-0.0104719 0.0380508 0.00347266)
(-0.00270014 0.00926555 0.000741653)
(-0.000788109 0.0017281 0.000177587)
(-0.412969 0.460666 0.276653)
(-0.10459 0.0798501 0.0668381)
(-0.0255928 0.0178593 0.0157486)
(-0.00614312 0.00418434 0.00365189)
(-0.00172789 0.000767613 0.000993589)
(-0.108927 0.524708 0.0833797)
(-0.0370541 0.148204 0.0220644)
(-0.0101707 0.0370373 0.00517246)
(-0.00261836 0.00871429 0.00117787)
(-0.000756922 0.00158791 0.00030019)
(-0.458729 0.427925 0.120567)
(-0.121897 0.0834596 0.0308566)
(-0.0311115 0.0202839 0.00754288)
(-0.00775052 0.00503409 0.00179657)
(-0.00225197 0.00095773 0.000498506)
(-0.120859 0.474503 0.0381972)
(-0.0384077 0.144252 0.01012)
(-0.0103061 0.0385528 0.00223686)
(-0.00262273 0.00959887 0.000455659)
(-0.000762803 0.00182045 0.000103371)
(-0.470693 0.421961 0.0437869)
(-0.12473 0.0816175 0.0113703)
(-0.0319991 0.0199429 0.00280658)
(-0.00802652 0.0049967 0.000674091)
(-0.00234795 0.000957982 0.000188354)
(-0.122804 0.467647 0.0172397)
(-0.0388741 0.141977 0.00426695)
(-0.0103823 0.0382459 0.000904734)
(-0.00246224 0.0096094 0.000243305)
(-0.000754249 0.00183482 3.83314e-05)
(-0.019176 1.58625 -0.0955892)
(-0.317342 2.28536 0.00178159)
(-0.308929 2.02925 0.187311)
(-0.169677 1.47693 -0.175079)
(0.161355 0.796465 0.0419596)
(0.222385 0.842354 0.0447992)
(0.4425 1.27417 0.112959)
(0.587317 1.29265 0.138644)
(0.242739 0.878585 0.0944882)
(0.50562 0.952372 0.153362)
(0.0704825 1.42867 0.130697)
(0.284674 1.94202 0.197714)