/*--------------------------------*- C++ -*----------------------------------*\
| =========                 |                                                 |
| \\      /  F ield         | OpenFOAM: The Open Source CFD Toolbox           |
|  \\    /   O peration     | Version:  2412                                  |
|   \\  /    A nd           | Website:  www.openfoam.com                      |
|    \\/     M anipulation  |                                                 |
\*---------------------------------------------------------------------------*/
FoamFile
{
    version     2.0;
    format      ascii;
    arch        "LSB;label=32;scalar=64";
    class       volScalarField;
    location    "0.8";
    object      gradTy;
}
// * * * * * * * * * * * * * * * * * * * * * * * * * * * * * * * * * * * * * //

dimensions      [0 -1 0 1 0 0 0];

internalField   nonuniform List<scalar> 
5712
(
14970.6
8231.84
25803.3
17034.2
24926.5
21396.3
35989.1
45338
55093.7
70737.7
29521.7
26181.3
18132.2
12613.9
12097.7
6900.8
23991
20425.2
22021.9
21050.4
27333.1
25278.6
32246.5
26814.6
8611.26
5782.38
4528.53
3132.7
12307.9
7692.5
6882.37
4492.45
25872.5
26742
22334.4
16932
17602.8
14319
15213.8
14657.4
19879.2
19813.3
42079.5
46687.4
29116.8
31196.6
22745.8
17967.1
22326.9
15498
9540.72
8385.38
7599.18
12716.4
3819.11
5606.23
10008.6
16717.3
6414.78
9329.56
9969.61
19787.2
7753.83
13674.1
2315.62
9053.88
322.29
6437.79
19211.4
23322.3
21001.6
23560.6
23825.6
23782.1
25148.7
23792.6
19600.8
23843.6
18969.7
23223.1
21421.8
23683.1
21204.1
23712.7
25834
23824.9
26137.5
23850.4
18630.2
24045.6
17059.4
24055.8
22052
24986.7
27725.9
41366.2
23228.7
29602.8
27705.7
46305.8
20809.8
21817.2
27487.9
38761.3
20017.4
19926.1
27454.3
37575.6
6713.82
8846.26
18576.6
31811.2
7837.31
9083.24
22470.2
34843.9
8992.12
9458.88
26879.1
37909.2
27161.1
27654.9
24949.8
24447.9
36852.3
27900
25704.7
24626.9
22096.8
42986.1
25477.5
24840.5
22377.2
25627.3
54016.1
2193.68
2904.65
6423.51
14200.2
3043.33
4367.44
8147.64
15820.8
4401.69
4218.29
10518.6
17857.3
26266.4
24511.7
22963.4
20456.8
21117.5
17309.5
16186.5
13460.8
14191.1
22095
23346.7
19799.8
22660.2
19953.8
20398.9
17665
19154.2
15958.9
16477.3
23227
23957.5
24987
25084.3
27088.8
23005.5
20750.4
23701.7
22295.3
23103.4
22971.3
22669.2
22025.1
25633.5
27828.8
25594.9
27725.9
24230.7
23397.8
24124.6
23382
22853.2
22753.9
23245.8
23017
21068.8
20478.5
15019.7
18099.8
21350.1
20187
15704.1
19204.2
20368.5
20078.7
14734.7
17895.5
20521.1
19829.3
14533.7
17385.2
2249.43
1634.24
1091.53
1118.84
840.954
811.904
3489.56
2092.27
1443.64
2681.18
2170.21
1668.65
3380.56
2718.13
2587.89
4848.2
3715.32
3058.01
20976.9
16065.9
13144.6
18315.4
14964.9
12761.7
13060
10964.5
9762.23
10211.8
8447.66
7432.84
7962.67
4973.65
3512
16617.6
13187.5
11081.3
17409.9
13959.3
12003.1
13608.6
10328.5
8673.83
10546.4
7972.53
6727.9
7915.29
4896.2
3464.7
30371.1
30727
32913.9
29520.2
30530.4
29626.1
37209.1
31049.1
18697.5
19748.4
18825
17928.6
24979.7
21133.4
24789.1
18911.6
27194.8
27866.3
23067.8
25381.7
29140.5
26184.5
31146.6
32678.6
33827.6
36719
26282.6
27229.6
22753.7
22614.2
25497.4
24771
16081.7
8963.55
15245
9931.22
15704
8783.48
14773.4
9610.47
14417.4
8086.77
13835.4
9116.03
13662.4
9454.34
13144.6
9398.79
22703.2
16982.8
22752.8
17513.1
25899.1
22326.3
26654.5
22481.1
20562.1
13274.8
20914.1
12543.4
23558.8
17833.8
24410.8
17927.4
27772.7
22683
28545.2
22772.1
20264.6
13613.3
20240.8
13684.5
11745.5
7812.67
9778.9
6274.17
10616.8
6947.68
8967.87
5717.75
12129.4
8283.81
10154.5
6581.65
12245.4
8554.62
10252.8
6731.43
2527.46
1316.24
4707.93
2771.71
2589.97
1486.88
4754.99
3009.18
2765.32
1934.92
4679.02
3384.62
12045.8
21232.2
7729.19
7007.15
5158.5
21513.7
13095.2
7021.32
6238.58
4026.92
20903.9
14473.5
10280.5
7398.04
4858.09
836.671
677.819
1922.58
1617.46
1028.67
715.439
2252.23
1874.42
1435.47
1070.68
2666.95
2235.92
21265.6
18741.7
12711.1
10507.9
7534.54
6383.76
5670.67
4704.15
3624.14
3058.75
18552.6
14740.3
12808.6
9955.94
9143.82
7325.96
6336.03
5215.57
4355.62
4138.94
12355.7
8740.01
12735.5
8389.57
16695.5
11511.6
17357.5
11659.4
9835.06
6906.82
9602.88
7245.52
13397.7
8123.83
13632.5
8310.18
18524.6
12209.5
18641.2
12427.1
10008.4
6586.02
10237
6911.95
6852.57
5341.2
4782.4
5251.24
6867.59
5506.88
4841.98
5102.39
6860.64
5241.71
4684.65
5471.26
7226.64
5349.73
4866.09
5424.38
1027.65
720.513
508.532
3608
1624.84
1136.07
965.555
785.456
598.946
3885.34
1921.81
1402.77
1254.83
1138.85
1013.37
4251.55
2416.17
1896.58
14576.7
11195.8
9258.7
8329.82
6502.03
5512.47
5430.73
4291.07
3706.66
4255.72
3315.86
2846.45
5095.61
3221.33
2563.5
10873.4
8186.55
6653.06
7352.74
5522.65
4539.21
5788.26
4274.57
3426.19
4911.29
3607.13
2931.26
6730.32
4026.23
3224.58
4444.24
2194.59
1153.01
635.117
4952.36
2362.18
1202.06
660.258
4308.35
2161.35
1150.68
640.296
4896.9
2363.16
1223.77
679.423
4070.26
2114.38
1184.81
658.574
4728.46
2372.61
1285.07
709.684
4914.32
2445.42
1250.87
693.297
4994.34
2510.06
1261.98
690.819
4278.78
2223.99
1239.74
682.962
3601.4
1993.64
1164.61
620.088
3780.79
2036.66
1196.97
652.59
3302.83
1872.62
1123.38
596.274
4560.54
2349.06
1257.16
690.459
3784.97
2082.42
1188.17
628.825
4700.98
2429.14
1277.75
696.586
3880.59
2142.83
1213.9
639.619
3418.11
1914.8
1087.65
600.213
2461.82
1604.67
1004.22
542.672
3323.21
1888.4
1090.72
601.836
2455.84
1603.39
1005.75
544.062
3185.34
1850.92
1107.37
607.067
2513.19
1627.89
1016.6
548.155
3062.14
1797.16
1099.62
602.848
2549.18
1641.45
1044.97
557.454
2922.55
1747.92
1065.87
567.708
1597.79
1337.86
817.365
240.244
779.249
1205.37
739.407
218.776
1696.92
1375.75
835.244
252.064
906.019
1247.6
753.861
223.446
1863.63
1436.03
850.169
251.229
1113.84
1319.29
770.665
226.089
2125.91
1517.71
884.607
269.488
1397.52
1416.43
802.059
236.714
2529.87
1633.99
940.757
302.736
1775.29
1521.51
833.431
245.64
2872.12
1781.3
974.977
292.841
1945.2
1663.66
896.76
258.299
2793.46
1717.82
952.341
292.319
1923.4
1609.14
864.387
251.244
2894.08
1822.03
979.505
278.153
1937.32
1704.29
912.462
257.311
2878.08
1861.6
1002.22
281.903
2020.64
1745.37
933.259
261.416
350.932
184.929
92.4303
41.6024
11.7564
358.43
186.521
92.8025
41.7027
11.7785
356.656
186.435
93.0212
41.8311
11.8155
364.701
188.44
93.5849
42.0072
11.8572
358.21
187.73
93.6506
42.0836
11.8812
365.714
191.101
94.7937
42.4805
11.9794
379.096
195.697
96.654
43.1894
12.1609
383.922
199.396
98.3484
43.8628
12.3363
369.929
192.223
95.3929
42.7338
12.0463
363.822
191.537
95.3335
42.7383
12.0496
356.789
189.242
94.3508
42.3571
11.9516
357.737
189.849
94.7209
42.5132
11.9926
376.929
195.165
96.5604
43.1745
12.1589
368.559
194.157
96.4296
43.1586
12.1575
381.219
199.01
98.3745
43.9029
12.3493
373.153
197.789
98.1748
43.8657
12.3428
339.16
182.693
91.9509
41.4811
11.7306
329.489
181.096
91.6321
41.4042
11.7147
341.898
183.816
92.3973
41.6514
11.7744
332.572
182.221
92.0465
41.5562
11.7532
345.014
185.239
92.9875
41.8774
11.8323
338.666
183.895
92.6414
41.7728
11.8077
349.608
187.049
93.6985
42.142
11.8993
346.556
186.041
93.3712
42.0303
11.8719
351.471
188.495
94.2428
42.3403
11.9492
14153.9
22211.9
14614
22399
15369.8
22697.4
16269.5
23628.8
17027
25384.7
14547
17847.2
15386.9
19855.4
14236.8
17292
14004.9
17115.7
11622.5
2111.99
474.561
109.268
19.6718
13846.8
3888.82
966.153
224.299
40.027
11728.5
2059.46
454.997
103.96
18.6319
13918.5
3861.53
948.496
217.685
38.7652
11912.7
2018.67
436.043
98.5682
17.5824
14088.4
3835.26
927.403
210.857
37.3607
12097.2
1956.68
413.252
92.7982
16.5457
14303.3
3797.79
906.755
205.287
36.3588
12092.4
1884.13
396.793
89.8909
16.1741
14356.2
3735.59
893.817
204.132
36.4581
10997.4
2051.88
483.509
117.275
21.9757
12240.4
3645.34
951.269
231.639
43.2025
11516.7
1996.25
446.483
104.609
19.1903
13117.7
3705.09
925.933
217.857
39.6977
10698.1
2086.49
507.099
125.852
23.9432
11862.6
3606.3
963.819
239.972
45.5113
10549
2040.44
498.574
124.917
23.9496
11691.2
3549.43
956.146
240.235
45.8704
39656.2
57134
50731.2
36923.3
19911.6
21058.8
31854.2
32316.4
21964.6
23809.3
35716.7
48550.4
53296.5
73546.4
26826.6
29849.4
21321.8
21017.2
14622.4
15146.1
3653.25
2329.98
265.892
169.609
209.295
166.797
240.074
3279.42
2940.24
1733.83
2127.58
1682.34
683.918
1117.68
821.979
491.244
577.382
434.32
2933.26
1343.26
611.698
557.978
804.946
659.222
449.921
420.661
323.211
282.142
430.915
407.391
3160.68
1740.95
1879.85
1110.24
825
1357.57
456.965
289.07
529.46
7292.14
6788.16
6108.11
6580.25
10211.1
4927.9
5008.2
4787.95
5034.64
5524.37
675.459
909.526
1051.05
1128.51
1162.93
436.155
598.896
704.261
764.426
791.37
537.095
734.76
860.224
929.849
960.214
429.695
591.577
696.959
757
783.685
612.813
831.356
966.404
1040.42
1072.83
6921.13
6778.12
5922.52
5923.78
8854.37
5985.84
5650.58
4977.57
4830.01
5460.24
3798.49
4017.27
3826.5
3815.9
3979.28
4353.76
4224.29
3767.56
3563.3
3718.03
3476.12
3445.73
3091.52
2904.97
2950.2
1627.9
1980.19
2099.71
2143.77
2171.84
2526.04
2828.04
2811.2
2793.21
2832.45
1900.16
2205.06
2247.41
2239.95
2247.22
1203.24
1530.04
1680.02
1743.54
1770.41
1389.13
1717.78
1842.8
1886.38
1905.64
1073.68
1384.65
1537.14
1603.37
1629.32
6287.68
6317.54
5663.48
5826.3
8796.06
3062.11
3449.64
3452.23
3516.34
3650.09
1482.45
1852.75
2008.32
2078.78
2116.92
1365.15
1731.38
1900.53
1982.79
2025.06
1915.47
2322.52
2461.72
2538.73
2600.56
1604.43
2013.57
2191.5
2283.66
2334.44
1119.21
1456.13
1633.89
1727.43
1771.14
1049.61
1372.81
1545.61
1633.26
1672.6
815.798
1086.92
1241.7
1319.42
1351.48
716.488
963.905
1111.28
1188.79
1221.78
1069.35
1387.44
1549.94
1626.43
1659.18
1016.61
1330.33
1497.72
1580.55
1616.81
6526.38
6320.31
5710.12
6075.09
9292.15
3829.1
4127.3
4081.4
4256.6
4562.74
4483.82
4969.89
4677.46
4876.89
5319.27
2613.4
3087.12
3209.47
3332.53
3436.96
1987
2441.65
2611.63
2713.79
2776.56
3162.88
3603.98
3598.78
3701.69
3792.26
1135.71
1475.72
1653.14
1744.32
1786.58
732.499
982.197
1129.89
1208.4
1242.57
1303
1666.91
1842.71
1930.33
1973.25
22510
14897.3
23717.5
18222.8
27937.2
41230.5
30131.6
43315.5
24629.3
23470.4
21992.4
22223.7
25030.5
24270.2
31839.8
26365.4
17949.5
16612.2
8008.48
6632.04
20806.3
17305.2
11042.7
7620.6
27091.9
29603.9
24102.2
20989.7
26182
17329.8
15434.7
14810.5
20490.1
20028.6
42779
47062.7
29143.4
31288.8
23826
18267
23615.8
15799.7
10405.4
8574.54
18270.5
22391.6
7320.48
9062.77
19359.6
24873.5
9737.8
12600
16571.4
25092.2
10228.3
16268.2
2765.14
10014
360.183
6633.1
21105.6
22738.8
21507.1
23353.7
23189.3
22601.9
24729.4
23202.5
20997.7
24074.5
22626.4
23388.5
21668.9
23613.6
21268.4
23694.3
25685.7
23552.5
26111.2
23766.4
19213.9
24203.4
17197.4
24110.4
23230.2
26646.2
28346.4
42128.5
25053.7
32389.1
28611.5
47407.8
21414.4
22642.3
27844.8
39214.1
20190.7
20160.2
27574.1
37731.9
24722.4
28070.7
33332.9
47746.4
23350.4
24992.3
34279.9
47246.7
20009.7
20408.2
34414
45122.3
21268
21778.3
23343.2
25528.7
40301.3
21306.5
19639.8
24350.1
23271.7
46583.9
21333.6
21499.5
21351.7
26734.8
55422.7
16128.4
14850.2
14044.2
18334.1
15634.3
14626.7
14321.5
18923
14275.1
12549.6
14201.1
19024.7
20291
18829.9
18613.6
17060.7
21432.4
18822.7
17714.8
15194.9
15713.9
21538.3
20130.3
17977.2
20254
18902.8
19711.9
17625.9
19910.4
16573
16791.7
21900.7
22848.6
24068.9
24547.5
26530.1
21577.4
19799.2
22990.5
21759.8
22940.3
22700.2
22268.8
21605.7
25412.7
27594.6
25535.2
27659.6
23918.2
23167.3
24035.7
23314.8
22800.6
22633.9
23233.4
22984.9
21175.1
20425.3
15174.4
18094.8
21537.2
20128.9
15961
19023.9
20434.7
20061.8
14821.3
17920.9
20547.6
19828.3
14566.5
17398.3
13859.2
14968.9
5441.93
5541.9
13489.7
13382.3
6321.57
6532.59
10693.6
10104
7015.11
6694.96
17391.5
15733.5
16662.4
15779.4
15778.5
14657.1
12441.6
10971.2
8999.89
6655.93
16751.8
15295.2
18474.2
16799.7
14984.5
13023.4
12023
10230.1
7858.2
5670.17
24926.2
24278
30659.4
26585.3
27626.2
25955.2
37665.3
29791.8
19831
14853.7
21903.5
16326.6
20601.7
14907.9
22757.6
16337.8
23469.8
20936.4
20222.3
18983.5
20479
22441.8
29720.7
32257.2
33284.6
36577.9
24553.6
26726.5
21340.5
22210.5
23546.7
24183.7
11856.9
8989.17
13075.9
9450.41
11557
8773.95
12807
9203.67
10978.9
8099.82
12202.2
8762.94
12721.6
9155.07
12841.1
9286.2
18521.3
15868.7
20814.3
16719.4
22909.7
20590.5
25317.9
21524.2
18427.5
12813.4
16626.5
12175.5
22601.4
17385.2
24128.9
17779.9
27159.9
22203.1
28374.1
22622.5
19191.2
13301.6
19916.8
13574
11099.1
7807.01
9696.93
6464.13
10101.9
7380.87
9236.54
6264.36
11703
8192.31
10032
6635.18
12103.9
8510.29
10202.7
6744.02
9929.99
9822.68
8134.79
7657.36
9463.08
9521.88
7847.93
7392.06
8818
8816.29
7126.72
6667.01
15618
20494.8
13286.7
8988.84
6836.64
19848.6
16572.3
14301.6
8899.19
6376.15
19696
15301.2
11747.2
9001.07
6143.69
10409.2
11187.1
7746.21
8064.98
9876.76
10221.3
7335.05
7523.3
8850.76
8738.45
6356.98
6152.81
18649.9
16300.9
14306.2
12331.8
12412
11649
8664.82
8288.36
6129.28
5803.04
17159.1
13825.5
13227.2
10432.3
10568.2
8843.7
8133.99
7146.64
5717.51
5666.14
12188.3
8907.59
12546.6
8456.65
15846.2
11158.3
16857.4
11469.9
9902.95
7143.41
9951.83
7822.75
13245.4
8118.58
13576.1
8301.07
18259.8
12104.5
18558.8
12393.6
9967.34
6639.01
10205.2
6914.57
7070.92
5663.03
5065.8
5678.49
7508.54
6285.71
5517.53
6022.26
6904.91
5340.49
4792.51
5653.76
7234.3
5374.37
4901.59
5475.14
12955.1
13095.2
13709.1
11671.5
11398.3
11455.7
12810.6
10942
9341.91
9253.08
10965.9
9448.35
14050
12605.8
11073.2
10188.7
11000.4
10447.3
8309.85
7561.44
10337.9
8906.38
10801.6
9789.03
8375.54
7782.86
7744.05
7170.54
7370.58
6660.78
10651
8670.53
5171.15
2642.4
1374.78
750.261
5345.99
2705.38
1393.62
765.987
4971.99
2578.83
1354.17
746.847
5224.92
2658.94
1389.91
773.369
4641.72
2486.23
1367.03
753.526
4966.87
2605.41
1423.3
788.352
5025.11
2582.79
1339.81
744.348
5025.08
2555.73
1291.44
708.378
4532.93
2420.27
1352.74
747.408
3864.33
2175
1264.48
673.892
4300.1
2350.39
1357.65
736.663
3786.34
2162.02
1266.58
666.177
4671.13
2455.75
1323.31
730.04
3912.14
2180.63
1248.2
663.685
4730.01
2463.43
1300.21
710.169
3919
2174.01
1234.16
651.411
4837.15
2528.74
1358.59
729.003
4400.18
2373.61
1327.37
679.583
4608.59
2467.88
1347.02
723.849
4186.93
2323.7
1312.4
675.142
4281.19
2376.6
1345.05
719.592
3891.04
2249.93
1289.6
666.259
3965.63
2247.18
1304.53
697.857
3691
2182.59
1283.65
659.038
3699
2145.22
1250.67
646.716
3750.22
2190.19
1133.37
313.196
2688.54
2076.96
1066.24
295.893
3595.79
2163.72
1134.64
323.964
2611.42
2052.57
1062.32
297.257
3372.12
2113.25
1112.45
314.303
2484.67
2011.58
1042.31
291.775
3338.77
2079.61
1115.63
328.326
2536.84
1986.3
1033.36
294.344
3386.84
2055.17
1129.9
355.642
2668.73
1960.66
1019.18
293.772
3133.2
1964.2
1083.1
326.343
2148.78
1843.51
991.731
285.1
3296.55
2011.94
1103.2
335.935
2365.89
1904.13
1002.82
288.505
3011.15
1918.95
1043.04
298.262
2011.67
1797.37
966.421
272.911
2907.12
1891.24
1022.79
288.51
2036.85
1773.33
950.397
266.445
411.177
212.455
104.258
46.2895
12.9837
414.664
212.917
104.265
46.2634
12.9742
413.625
211.907
103.911
46.1425
12.9444
415.222
211.97
103.775
46.0604
12.9201
410.212
210.767
103.468
45.9701
12.8992
406.215
209.911
102.951
45.7314
12.8329
404.778
207.292
101.734
45.2286
12.698
393.493
203.891
100.337
44.6647
12.5479
404.746
208.372
102.422
45.5426
12.7848
397.525
207.494
102.296
45.5236
12.7823
402.008
209.453
102.99
45.7847
12.8505
400.178
208.372
102.662
45.6726
12.8222
400.362
206.675
101.66
45.2267
12.6998
390.403
205.502
101.518
45.2128
12.6994
389.009
202.876
100.111
44.6062
12.5351
380.487
201.75
99.9874
44.6035
12.538
404.917
211.647
104.207
46.3116
12.9932
401.141
211.077
104.16
46.322
12.9985
405.243
211.306
103.975
46.2089
12.9654
401.907
210.901
103.982
46.2371
12.975
404.731
210.647
103.64
46.0693
12.9282
403.996
210.584
103.713
46.1149
12.9417
404.393
209.776
103.236
45.9046
12.8843
406.502
210.081
103.383
45.9695
12.9021
400.545
208.996
102.927
45.7804
12.851
16084.9
21816.4
16014.8
21729.3
16017.1
21625.2
16415.4
22289.7
16814.7
23765.4
14578.9
17787.4
15353.9
19477.4
14273.7
17302.9
14018.6
17124.8
12081.7
2148.47
479.125
110.193
19.8497
13931.2
3918.69
973.468
226.132
40.391
12045.5
2081.26
457.608
104.579
18.7661
13870.3
3867.61
951.888
218.876
39.0406
12010.6
2018.49
435.792
98.7463
17.6539
13841.1
3806.04
925.067
211.127
37.5061
12015.7
1938.65
410.673
92.6021
16.5612
13902.1
3740.27
899.685
204.75
36.3856
11921.4
1859.55
393.377
89.5217
16.1572
13902
3671.06
885.22
203.231
36.4182
10962.9
2043.34
481.895
117.064
21.9641
12184.2
3628.38
947.971
231.206
43.1781
11414.4
1977.74
443.501
104.238
19.1658
12916.4
3663.23
919.15
217.021
39.6434
10695
2084.2
506.563
125.788
23.9445
11857.8
3602.5
962.886
239.867
45.5157
10550.8
2040.16
498.474
124.906
23.951
11693.5
3549.21
956.026
240.228
45.8754
39290.7
57333.2
51249.6
35781
25965.2
32029.2
25504.5
31868.9
30002.7
49038.4
32764.9
53767.1
11.7644
15.682
24.7408
41.1602
68.1827
110.443
14.8445
19.2809
29.3255
47.0105
75.523
119.597
9.44798
8.3499
12.9902
11.6599
21.4407
19.6943
37.607
35.7383
64.9736
64.2307
108.678
110.601
174.372
276.488
451.503
765.773
1108.85
1397.88
186.249
285.987
431.505
624.994
819.099
953.511
31.0827
44.6104
54.7821
61.4297
64.6791
41.3483
59.1387
72.3617
80.9053
85.0465
65.035
92.5483
112.657
125.435
131.553
107.795
152.462
184.442
204.363
213.765
177.73
249.459
299.513
329.952
344.085
286.111
397.592
472.836
517.291
537.574
39.1602
56.0551
68.6467
76.8056
80.7694
50.7459
72.3613
88.2684
98.4498
103.352
76.9209
109.075
132.306
146.913
153.857
122.806
172.987
208.45
230.291
240.527
196.303
274.286
327.944
360.213
375.109
308.876
427.194
505.914
551.976
572.937
24.9999
35.9666
44.2757
49.7477
52.4377
22.1128
31.8562
39.2703
44.1741
46.5925
34.3059
49.1936
60.3511
67.6191
71.163
30.8211
44.2624
54.3839
61.0082
64.2495
56.4585
80.5683
98.3462
109.74
115.229
51.9122
74.2013
90.7219
101.363
106.508
98.6597
139.924
169.722
188.429
197.304
93.8477
133.304
161.933
179.986
188.576
169.633
238.677
287.21
316.899
330.727
167.809
236.363
284.695
314.324
328.136
281.938
392.613
467.731
512.249
532.561
287.107
400.165
477.012
522.511
543.217
447.843
613.864
720.94
782.089
809.595
701.235
942.384
1087.97
1168.21
1204.45
1123.17
1464.34
1649.28
1749.57
1798.31
1849.08
2300.24
2500.49
2621.98
2699.3
2586.98
3065.88
3233.41
3378.19
3516.81
3181.58
3637.65
3754.18
3923.21
4124.69
477.005
651.08
761.973
824.928
853.322
724.511
972.261
1121.4
1203.66
1241.07
1078.04
1415.89
1604.76
1707.29
1756.29
1535.43
1965.78
2185.21
2307.02
2372.73
1979.03
2473.46
2704.83
2843.2
2931.78
2278.18
2802.32
3033.48
3183.84
3292.1
11.9484
16.3087
26.0394
43.5638
72.3326
117.114
15.0619
19.9976
30.7314
49.424
79.3435
125.191
9.60545
8.49252
13.5413
12.1666
22.6545
20.8446
40.0608
38.1881
69.6394
69.2328
117.2
121.372
183.973
288.707
464.654
775.099
1112.9
1398.52
193.694
294.811
440.448
632.08
823.234
954.768
31.5772
45.3384
55.6988
62.4795
65.7979
43.0273
61.6063
75.4701
84.4657
88.8405
68.5168
97.6708
119.115
132.838
139.446
114.245
161.964
196.439
218.132
228.456
188.88
265.919
320.342
353.906
369.672
304.073
424.204
506.637
556.288
579.31
39.7439
56.9149
69.7309
78.0489
82.0952
52.6683
75.1921
91.8411
102.549
107.724
80.6962
114.643
139.343
154.996
162.485
129.297
182.581
220.604
244.277
255.472
206.601
289.564
347.365
382.629
399.103
324.012
449.778
534.788
585.458
608.871
25.4219
36.5863
45.055
50.639
53.3868
22.4948
32.4168
39.9749
44.9796
47.4501
35.7815
51.3597
63.0758
70.7365
74.483
32.1773
46.2522
56.8852
63.8684
67.2946
59.7098
85.344
104.357
116.621
122.559
54.9924
78.7224
96.4081
107.868
113.436
105.236
149.591
181.902
202.385
212.181
100.41
142.944
174.069
193.883
203.386
182.144
257.089
310.44
343.553
359.164
181.217
256.081
309.56
342.844
358.562
304.798
426.287
510.265
561.115
584.745
315.9
442.349
530.04
583.234
607.961
473.831
652.677
770.631
839.795
871.589
734.708
993.258
1154.17
1246.1
1288.76
1160.26
1522.88
1727.94
1844.48
1902.52
1878
2350.72
2573.28
2714.66
2804.14
2602.54
3097.61
3282.91
3445.1
3595.79
3185.62
3647.75
3771.23
3947.68
4154.69
497.281
681.632
801.405
871.004
902.988
748.825
1009.52
1170.25
1261.44
1303.79
1103.23
1455.65
1658.21
1771.76
1827.05
1556.27
2000.38
2233.57
2367.11
2439.8
1991.98
2496.35
2738.16
2885.92
2980.42
2282.38
2810.16
3045.26
3199.3
3309.99
3643.56
2327.75
284.308
182.755
240.273
187.343
266.106
3210.85
2913.94
1799.26
2201.03
778.235
1222.29
583.852
712.516
525.442
2899.65
1386.02
679.902
609.599
855.49
694.945
472.404
458.147
393.634
333.659
498.184
458.268
3136.93
1741.52
1877.98
1122.95
848.734
1381.96
487.782
324.662
571.494
7283.08
6796.02
6132.73
6634.89
10326.3
4928.81
5020.19
4812.41
5075.14
5578.98
725.585
984.917
1148.18
1241.96
1285.28
471.563
651.34
770.853
841.296
873.703
619.569
854.795
1010.3
1101.31
1142.99
484.43
671.309
796.68
870.863
904.975
682.797
934.723
1097.39
1191.55
1234.76
6974.93
7176.45
6646.32
7021.08
10664.2
6341.78
6569.21
6278.45
6625.47
7944.45
4066.15
4535.05
4571.2
4795.23
5152.9
5097.43
5606.1
5438.71
5655.47
6341.56
1901.2
2410.68
2664.94
2821.78
2924.16
2876.27
3426.58
3615.45
3790.12
3980.02
1457
1910.5
2166.14
2312.49
2389.37
1756.53
2259.34
2523.59
2678.93
2770.18
1320.93
1751.91
2003.71
2146.31
2217.13
6302.36
6509.01
6040.05
6416.76
9814.15
3212.96
3731.39
3864.92
4055.31
4280.71
1675.85
2155.22
2407.74
2557.49
2644.48
1510.42
1958.19
2201.07
2343.04
2420.97
2065.52
2569.8
2801.7
2959.15
3072.6
1707.6
2179.91
2417.82
2560.29
2641.36
1182.28
1554.82
1765.36
1885.19
1943.91
1152.83
1530.27
1750.9
1875.74
1936.14
1002.44
1356.41
1576.68
1702.11
1760.61
853.144
1161.63
1357.41
1469.73
1521.58
1253.28
1664.08
1905.29
2042.33
2110.01
1155.72
1540.21
1768.49
1898.01
1960.72
6516.13
6370.3
5815.32
6261.55
9665.06
3845
4173.83
4161.33
4373.42
4709.31
4530.01
5111.6
4914.34
5224.09
5756.98
2658.48
3173.72
3340.31
3505.65
3636.26
2059.66
2565.8
2787.32
2935.06
3025.53
3258.07
3790.56
3878.1
4073.63
4224.84
1221.51
1608.57
1828.54
1953.49
2015.08
828.211
1123.54
1309.04
1415.4
1464.74
1420.94
1850.86
2086.68
2222.64
2293.93
3199.91
3086.14
2922.65
2662.88
2118.69
871.894
22060.6
23384.1
24168.3
25143.1
23385.5
23009.6
22889.2
22876
20174.7
25568.9
22681.4
25234.6
30453.5
20322.4
34928.1
20241.6
21624.5
22222.5
22687.9
21946.3
22833.6
21455.8
22244.6
20835.6
33941.1
23383
32659.3
31695.3
25262.4
40573.7
18282.4
19457.6
19482.9
19481.3
20207.9
21862
19345.4
20935.9
23323.7
31871.5
26112.9
31234.5
32564.3
28428.6
38029.1
16427.9
17454
16786.9
16556.7
18562.9
20839.7
17048.5
19227.9
20720.3
28493.4
22969.3
26876.8
27789.1
24318.6
33007.9
14702.9
15703.9
14719.2
14444.8
17047.1
19569.6
14983.9
16971.3
17849.6
22264.2
20006.8
20472.6
23189
19261
25030.6
13225.7
14159.4
13172.7
12907.3
15050.4
16752.2
13408.6
14908.5
14780.4
16999.4
16691.4
16035.1
19349.5
15027.4
20394.2
22882.1
22710.9
24601.6
26043.7
22922.9
23186.1
23159.8
23527.5
18739.7
11316.9
19712.5
11141.8
19530.2
15863.8
16074.1
21299.4
21470.9
22291.4
23108.7
21729.2
22099.9
21396
21972.8
15904.8
10692.9
16516.1
10443.5
16063.6
14255.1
14117.4
17801.6
18030.4
19061.4
19309.5
18453.9
18764
18783.2
19777.9
13697.4
10456.5
14355.4
10012.2
14548.9
12062.7
13741
14247.6
14604.8
15903.4
15837.6
15138
15395.4
16168.9
17168.9
10866.9
9902.1
11508.9
9412.1
11767.3
9852.92
12895.9
11851.9
12285.2
13609.4
13468.4
12855
13468.9
13891.7
14681.2
9200.9
9868.96
10062
9937.12
10820.5
10057.9
13215.3
10025.2
10506.8
11970.5
11807
11489.8
12521
12250.3
13253
8528.9
10254
9656.66
10774
10759.4
10202.6
13933.7
14649.8
7898.08
25782.6
16982.8
24922.4
21379.1
35984
45326.2
55091.3
70720.8
29531.6
26171.2
18141.4
12589.9
11698.5
6520.13
23985.2
20422
22015.3
21047.6
27329.4
25276.2
32241.4
26812.3
8412.53
5680.43
4387.21
3069.73
12295.8
7683.61
6881.73
4497.44
25866
26733.9
22331
16929.3
17598.1
14319.9
15211.9
14656.8
19877.8
19812.5
42077.5
46686.4
29115.4
31195.5
22745.4
17967.4
22326.4
15497.9
9540.66
8385.43
7469.04
12482.2
3735.59
5462.54
10014.1
16732
6426.85
9346.72
9972.99
19794.4
7758.63
13680.5
2316.3
9056.21
322.284
6438.58
19209.9
23321.5
21000.5
23560
23824.2
23781.3
25147.4
23791.9
19600.6
23843.5
18968.6
23222.8
21421
23682.7
21203.5
23712.4
25833.1
23824.4
26136.7
23849.9
18630
24045.6
17059.2
24055.9
22052.9
24989.5
27726.7
41367.7
23229.5
29606.4
27706.6
46307.8
20810.5
21818.9
27488.6
38762.5
20018
19927.3
27454.9
37576.6
6638.16
8792.04
18338.1
31607
7850.11
9097.23
22491.2
34871.7
8997.41
9464.24
26888.3
37917.4
27159.7
27654
24947.7
24448.7
36856.4
27899
25703.2
24624.4
22097.5
42990.1
25476.6
24839.6
22376.7
25628.7
54018.7
2165.45
2869.06
6355.49
14098.1
3056.46
4374.45
8164.68
15836.7
4406.36
4221.65
10526.2
17863.8
26265.6
24511.1
22962.3
20456.1
21116.2
17308.7
16188
13462
14194.8
22098.3
23346.1
19799.4
22659.6
19953.4
20398.7
17665.1
19155.3
15959.7
16479
23228.5
23957.1
24986.7
25084
27088.6
23005
20750.1
23701.3
22295
23103.4
22971.3
22669.1
22025.1
25633.2
27828.6
25594.7
27725.7
24230.4
23397.6
24124.3
23381.7
22853.3
22753.9
23245.8
23017
21069.2
20478.8
15020.2
18100.2
21350.7
20187.5
15705
19204.9
20368.8
20078.8
14735.1
17895.8
20521.3
19829.5
14534
17385.4
2203.88
1601.86
1073.31
1102.69
829.441
805.307
3492.17
2093.81
1445.57
2686.66
2174.15
1671.91
3382.12
2719.2
2588.81
4850.55
3716.92
3059.52
20976.4
16065.6
13144.5
18315
14964.7
12761.6
13059.6
10964.4
9762.3
10212.5
8448.03
7433.27
7963.95
4974.43
3512.67
16617.3
13187.3
11081.2
17409.7
13959.2
12003.1
13608.7
10328.6
8673.94
10546.9
7972.85
6728.2
7915.88
4896.57
3465.02
30376
30729.3
32918.3
29522
30528.4
29625.3
37205.9
31048.1
18539.2
19705.4
18624.1
17875
25002.4
21126.6
24817.3
18904.5
27200.9
27873
23070.4
25384.5
29140
26184.2
31147.2
32678.5
33826.8
36718.2
26284.6
27230.2
22754.6
22614.4
25498.1
24771.6
16061.1
8943.58
15220
9914.44
15700.4
8783.68
14770.1
9609.86
14416.1
8086.44
13834.3
9115.58
13662.4
9454.16
13144.9
9398.9
22704
16982.9
22753.4
17513
25898.6
22325.9
26654
22480.7
20562.6
13275
20914.6
12543.6
23558.9
17833.7
24410.6
17927.2
27772.2
22682.6
28544.6
22771.6
20265
13613.4
20241
13684.5
11745.8
7812.56
9778.99
6274.16
10617.1
6947.59
8967.98
5717.73
12129.7
8283.79
10154.5
6581.65
12245.7
8554.73
10252.9
6731.47
2516.06
1304.89
4694.28
2756.92
2592.13
1488.98
4755.89
3010.41
2766.02
1935.58
4679.17
3384.95
12045.8
21231.7
7729.34
7007.43
5158.57
21513.2
13095
7021.21
6238.71
4027.09
20903.4
14473.4
10280.5
7398.16
4858.09
823.953
665.601
1904.82
1605.32
1029.83
715.838
2253.31
1874.84
1435.96
1070.94
2667.29
2236.01
21265.1
18741.3
12710.8
10507.5
7534.19
6383.28
5670.62
4703.97
3624.28
3058.77
18552.2
14740
12808.4
9955.71
9143.72
7325.8
6336.08
5215.52
4355.65
4138.89
12355.6
8739.87
12735.3
8389.45
16695.2
11511.4
17357.2
11659.2
9835.03
6906.75
9602.85
7245.44
13397.6
8123.72
13632.3
8310.06
18524.4
12209.4
18640.9
12426.9
10008.3
6585.95
10236.9
6911.87
6852.58
5341.16
4782.38
5251.19
6867.62
5506.84
4841.97
5102.34
6860.63
5241.67
4684.64
5471.21
7226.62
5349.68
4866.08
5424.35
1012.6
709.58
500.701
3584.26
1610.08
1124.4
965.144
785.35
599.136
3888.06
1923.81
1404.35
1254.99
1138.95
1013.42
4252.37
2416.85
1897.17
14576.3
11195.5
9258.47
8329.4
6501.68
5512.19
5430.2
4290.64
3706.34
4255.47
3315.61
2846.23
5095.93
3221.64
2563.81
10873.1
8186.36
6652.91
7352.52
5522.46
4539.05
5788.08
4274.4
3426.05
4911.19
3607.02
2931.16
6730.36
4026.33
3224.73
4443.55
2195.43
1152.9
634.734
4951.09
2362.57
1201.86
659.625
4306.83
2161.01
1150.62
640.249
4895.72
2363.03
1223.78
679.432
4069.55
2114.14
1184.74
658.539
4727.86
2372.44
1285.04
709.671
4913.99
2445.3
1250.83
693.28
4994.24
2509.99
1261.96
690.807
4278.51
2223.87
1239.69
682.94
3601.29
1993.56
1164.57
620.066
3780.46
2036.51
1196.9
652.559
3302.7
1872.53
1123.33
596.249
4560.38
2348.97
1257.12
690.44
3784.9
2082.36
1188.14
628.807
4700.92
2429.09
1277.72
696.573
3880.57
2142.79
1213.88
639.606
3417.02
1915.52
1087.73
600.057
2458.1
1604.22
1004.16
542.634
3321.85
1888.07
1090.63
601.768
2455.02
1603.24
1005.64
544.008
3184.73
1850.71
1107.29
607.023
2512.89
1627.79
1016.54
548.128
3061.89
1797.04
1099.56
602.819
2549.03
1641.38
1044.92
557.43
2922.43
1747.84
1065.82
567.684
1593.59
1337.43
817.537
240.414
775.265
1204.33
739.137
218.692
1697.31
1376.03
835.279
252.087
906.783
1247.92
753.986
223.484
1863.73
1436.08
850.162
251.225
1114.15
1319.41
770.707
226.1
2125.91
1517.69
884.583
269.479
1397.65
1416.45
802.057
236.713
2529.82
1633.94
940.72
302.724
1775.34
1521.48
833.409
245.633
2872.07
1781.25
974.941
292.83
1945.18
1663.61
896.728
258.289
2793.4
1717.76
952.303
292.308
1923.39
1609.09
864.356
251.235
2894.05
1821.99
979.476
278.145
1937.31
1704.26
912.436
257.303
2878.07
1861.58
1002.2
281.898
2020.64
1745.35
933.242
261.411
350.69
184.845
92.3973
41.5897
11.7532
358.042
186.417
92.7633
41.6876
11.7746
356.635
186.425
93.0167
41.8292
11.815
364.702
188.433
93.5821
42.0061
11.8569
358.194
187.721
93.6459
42.0815
11.8806
365.706
191.094
94.7903
42.479
11.9789
379.087
195.691
96.6507
43.1878
12.1604
383.915
199.392
98.3456
43.8614
12.3359
369.917
192.216
95.3892
42.7321
12.0458
363.809
191.53
95.3297
42.7365
12.0491
356.776
189.234
94.3466
42.3552
11.9511
357.724
189.841
94.7169
42.5114
11.9921
376.918
195.159
96.557
43.173
12.1584
368.547
194.151
96.4261
43.157
12.157
381.211
199.005
98.3716
43.9015
12.3488
373.144
197.784
98.1719
43.8643
12.3424
339.008
182.623
91.9226
41.4703
11.7279
329.328
181.028
91.6058
41.3942
11.7121
341.879
183.804
92.3916
41.6489
11.7737
332.571
182.211
92.0412
41.5539
11.7525
345
185.229
92.9823
41.8751
11.8317
338.661
183.886
92.6364
41.7705
11.8071
349.597
187.041
93.694
42.14
11.8988
346.548
186.033
93.3666
42.0283
11.8713
351.459
188.487
94.2385
42.3384
11.9486
14114.2
22167.7
14615.6
22403.7
15371.3
22699.8
16270.4
23630.1
17027.6
25385.6
14547.4
17847.6
15387.4
19855.9
14237.1
17292.3
14005.1
17116
11612.4
2102.85
472.217
108.722
19.5742
13833.2
3883.21
964.629
223.924
39.959
11725
2055.97
453.802
103.633
18.5679
13915.6
3857.73
946.963
217.231
38.672
11910.9
2017.43
435.539
98.412
17.5495
14087.2
3833.42
926.554
210.581
37.3009
12096.4
1956.22
413.037
92.7235
16.5289
14302.9
3796.98
906.333
205.137