/*--------------------------------*- C++ -*----------------------------------*\
| =========                 |                                                 |
| \\      /  F ield         | OpenFOAM: The Open Source CFD Toolbox           |
|  \\    /   O peration     | Version:  2412                                  |
|   \\  /    A nd           | Website:  www.openfoam.com                      |
|    \\/     M anipulation  |                                                 |
\*---------------------------------------------------------------------------*/
FoamFile
{
    version     2.0;
    format      ascii;
    arch        "LSB;label=32;scalar=64";
    class       volScalarField;
    location    "0.8";
    object      gradTx;
}
// * * * * * * * * * * * * * * * * * * * * * * * * * * * * * * * * * * * * * //

dimensions      [0 -1 0 1 0 0 0];

internalField   nonuniform List<scalar> 
5712
(
-9548.11
-11734.7
-21596
-34087.9
-32997
-64326.6
-22552.9
-67698.7
-23078.1
-54070.4
-28405.6
-46998.7
-21603.7
-28917.4
-11655.4
-11950.4
-16538.2
-19255.9
-22020.5
-20283.6
-15070.6
-22643.2
-22189.4
-22244.9
-6504.72
-4943.61
-8785
-6486.7
-14949.2
-10274.5
-27239.9
-19558
-22645.3
-23341
-23792
-25093.9
-6136.57
-5085.08
-51509.4
-63690.9
-27858.9
-36930
-65079
-80270.8
-30396.4
-37396
-39293.2
-51339.1
-31835.4
-43715.4
-18560.9
-23268.3
-4022.32
-1304.94
-5135.79
-1816.4
-9071.9
-3778.57
-15225.9
-5683.85
-10559.1
-3513.92
-10106.5
-2910.3
-19465.8
-5759.05
-25392.4
-8091.01
-31134.5
-18179.4
-26139.8
-18084.1
-30768.3
-19894.3
-24361.1
-19297.6
-21130.2
-15377.8
-23526.3
-15197.9
-25352.8
-18435.6
-26242.6
-18822.1
-23878.4
-19427
-24853.9
-19726.2
-21600.3
-15990.5
-23210.6
-16489.8
-23519.2
-10010.8
-13997.5
-16415.6
-25519.4
-11756.8
-14222.9
-17600.8
-23441.7
-9211.47
-14419.4
-15935.3
-24229.3
-9232.11
-15039.6
-15976.9
-3906.63
-4471.89
-1404.46
-2992.97
-11195.6
-13276.1
-4831.66
-9679.27
-18247.5
-21681.9
-8944.47
-16406.8
-18986.8
-9595.37
-21164.4
-27290.9
-14683.1
-6441.17
-10479.3
-14539.4
-27683.5
-19969.3
-12178
-16682.6
-19481.1
-20022.7
-25830.3
-4169.62
-4158.1
-2704.53
-2825.47
-12301.8
-11112.4
-8516.99
-8400.15
-18322.2
-15739.1
-12747.1
-12378
-9876.45
-10761.9
-15592.4
-16481.1
-19735.5
-18271.9
-24805.4
-22031.1
-19114.5
-18722.8
-14069.1
-13983.9
-18470.8
-15191.6
-18323.8
-13758.8
-17429.5
-12515
-21016.6
-15730.7
-15000.8
-6337.8
-12129.1
-10669.1
-16235.8
-17379.8
-16672.2
-20426.7
-10660.1
-9407.72
-14073.7
-4417.59
-12042.7
-17553.2
-12674.7
-19101.3
-17102
-25435.7
-17875.3
-26468.1
-10756.7
-16145.2
-11381.2
-17854.3
-13580
-9005.2
-18396
-7376.93
-14168.1
-3222.43
-17224.6
-2137.48
-14426.8
-13663.8
-19457.1
-9436.88
-13293.4
-16053.4
-18097.9
-12173.5
-3662.42
-3192.78
-2435.52
-2409.03
-2227.9
-1788.45
-9525.22
-7383.96
-5714.27
-6634.72
-4979.2
-3741.98
-11966.5
-8905.67
-7332.83
-9648.43
-6791.29
-5459.73
-8865.18
-5915.99
-4914.82
-14602.2
-8997.59
-6248.99
-14457.8
-8900.76
-5808.27
-16859
-11338.7
-8274.04
-15031.1
-8948.71
-5681.59
-16522.9
-11417.9
-8739.87
-13142.5
-8792.51
-6071.72
-12712.5
-8056.84
-5201.38
-12429.7
-7881.76
-5117.34
-15086
-7956.57
-4035.06
-12666.8
-20164.6
-11058.1
-15351.3
-10984.3
-21932.8
-9467.31
-18201.8
-91.3849
-1633.85
304.549
-1030.31
-3557.11
-6551.11
-2379.72
-4211.41
-2304.88
-4243.83
-11661.9
-16876.3
-8617.4
-6893.14
-13022.2
-11487.7
-18229.7
-19630.4
322.71
5728.82
-9055.62
-6318.75
-6870.29
-3890.82
-1534.39
-971.164
-1336.61
-861.905
-3873.11
-1203.3
-2188.81
-500.166
-9935.22
-2763.05
-7858.03
-2461.34
-8792.35
-2614.5
-9794.02
-3060.82
-13641.1
-12694.5
-10535
-12371.5
-21468.7
-18593.2
-17427.1
-17427.6
-7354.68
-8789.36
-8621.82
-8245.91
-9797.94
-12129.1
-10218.5
-12147.4
-16596.5
-16900
-17175.6
-16941
-6461.67
-8782.06
-6178.97
-8792.31
-612.215
-916.242
-6314.28
-2769.11
-695.987
-714.223
-5586.56
-2332.35
-568.871
-797.406
-6576.24
-3023.64
-774.454
-845.06
-6558.03
-3151.09
156.061
307.69
-424.075
-216.652
759.251
1237.5
-638.056
-269.165
-1001.79
-18.8745
-1952.13
-1465.85
6615.31
3348.94
3775.84
2577.08
216.058
6721.46
9391.66
4142.86
4175.74
300.824
-10379.3
-7225.78
-5317.65
-4779.43
-2147.86
426.061
332.304
-86.1675
-88.5589
1214.98
1175.61
-203.113
-191.975
1074.21
1324.68
-755.931
-680.828
2294.81
478.238
6656.99
3926.96
3278.45
1898.16
3053.19
2203.91
187.434
-122.587
-5718.97
-4049.34
-325.626
995.473
266.595
1090.84
-176.17
579.438
-71.6329
-140.514
-4296.63
-4297.76
-9236.08
-5685.22
-9043.99
-8023.93
-13096.8
-9662.97
-6384.88
-3723.48
-2326.9
-2701.97
-10798.2
-4659.57
-11555.5
-4417.87
-14972.8
-9483
-16006.2
-9329.67
-7618.16
-2771.5
-8215.59
-2448.32
-4005.3
-2814.82
-2097.01
-3615.17
-1843.37
-2240.66
-1176.97
-2933.86
-4385.86
-2509.19
-2619.05
-4154.73
-5358.2
-2273.02
-3282.88
-3956.8
302.986
291.116
305.062
-60.2381
53.7064
65.7285
1052.03
989.064
957.211
-66.9068
227.407
249.685
1304.3
1451.02
1455.84
-354.233
401.332
505.765
-268.406
385.98
346.491
2127.17
2182.89
1908.36
1554.9
1672.05
1542.53
1784.24
1860.25
1769.57
-161.098
563.981
492.896
-4560.79
-2324.73
-1320.36
-241.166
622.027
928.038
208.106
897.119
1073.36
153.458
822.972
948.395
-818.132
313.787
383.996
-81.9152
-15.8205
0.410121
5.73873
11.2421
23.8399
34.0385
21.728
-208.475
-43.7721
6.53733
17.4831
23.3158
53.169
68.5092
44.1415
-344.443
-88.6551
-8.60392
29.9355
-140.814
5.17227
24.9139
34.787
-76.342
3.05988
-8.16219
1.81379
-153.008
-39.658
-6.24629
8.88622
-704.15
-218.959
-121.033
-15.5657
-907.441
-282.899
-204.17
-20.9109
-580.338
-176.022
-89.2027
20.5066
-742.534
-230.792
-180.825
-16.0569
-639.483
-203.508
-105.906
-15.8778
-989.636
-308.638
-216.93
-18.8239
-647.062
-214.672
-94.5156
-5.10391
-1030.17
-322.327
-223.782
-19.223
-64.5634
-15.3114
-7.66621
1.85561
-44.6515
-9.63267
-13.0272
3.58436
-166.77
-41.3543
-16.9231
8.4373
-80.2697
-12.8425
-27.0607
11.0886
-481.708
-143.409
-76.4849
3.43093
-351.597
-96.7409
-74.342
19.3567
-224.697
-60.2103
-39.9004
35.2079
-142.532
-30.5054
-46.5303
26.0303
-623.624
-189.005
-155.673
12.6524
14.9905
9.67451
0.971573
7.0216
66.3768
25.1225
9.44815
6.40199
1.86277
14.5666
-7.18072
15.9315
166.107
64.9004
20.9135
15.8373
-53.6429
1.37509
-19.2692
24.5111
242.363
94.6815
30.6396
23.0514
-45.7047
6.46519
-24.3038
31.2279
286.261
112.754
30.6616
23.7905
-147.454
-15.9561
-66.5068
16.4118
199.554
98.0698
10.0528
16.5476
-588.992
-114.142
-143.734
-5.6156
-160.959
5.25424
-29.7109
-0.00357756
-356.194
-53.4733
-114.804
1.93608
-5.69243
52.6567
-13.1557
7.394
-773.044
-178.358
-168.013
-9.64581
-253.954
-34.3666
-41.3409
-4.38197
-883.368
-231.251
-186.508
-14.6116
-317.8
-70.3495
-50.9918
-7.60729
1.98686
1.0775
0.488475
0.20863
0.105624
4.3916
1.92337
0.807271
0.335159
0.168016
3.48928
2.23445
1.0252
0.437162
0.220638
11.2737
5.26058
2.20761
0.91369
0.457268
6.3262
3.56083
1.54705
0.644835
0.322299
17.1515
7.66138
3.16286
1.29928
0.647961
5.01313
2.34694
0.99474
0.414254
0.208295
1.20356
0.969928
0.472239
0.20696
0.106373
6.04986
2.99281
1.28334
0.533142
0.266412
-0.467016
0.20539
0.13429
0.0616885
0.0317509
13.6258
5.71642
2.29093
0.927584
0.45899
2.14669
1.0964
0.467106
0.192632
0.0958442
-1.47618
0.115362
0.150773
0.0765265
0.0404553
-0.704438
0.204004
0.145941
0.0684813
0.0355663
-2.78372
-0.168555
0.0821974
0.0564658
0.0322653
-2.08397
-0.267769
-0.0249083
0.00185003
0.00297111
1.30833
0.799469
0.363682
0.155124
0.0784973
2.22851
0.926073
0.373111
0.152038
0.0755499
3.54129
1.94187
0.84911
0.355772
0.178453
5.46521
2.1701
0.861628
0.348474
0.172479
4.48626
2.43095
1.04972
0.43606
0.217653
7.77892
2.8971
1.11975
0.447498
0.220412
11.4063
4.3545
1.67971
0.668889
0.328327
6.69039
2.32748
0.869641
0.342515
0.16763
7.03076
2.65238
1.01664
0.403727
0.198031
-493.434
-668.25
-1386.34
-1943.29
-2159.56
-3179.33
-2570.01
-4220.52
-2333.69
-3893.86
-2248.15
-3336.19
-1696.43
-2251.46
-3031.01
-4331.58
-3369.73
-4687.85
-795.323
-180.128
-40.5541
-8.98504
-2.33569
-259.541
-110.186
-10.5823
-3.54098
-1.60093
-2574.33
-586.805
-132.895
-29.6797
-7.77489
-657.544
-143.738
-30.3429
-6.29105
-1.47639
-4490.51
-1030.2
-234.999
-53.0549
-14.0574
-1205.27
-303.34
-71.0575
-16.7269
-4.49518
-6316.48
-1459.88
-337.138
-77.2371
-20.8125
-1730.2
-483.619
-122.017
-30.1842
-8.48642
-8601.35
-2051.01
-485.416
-113.703
-31.3413
-2377.3
-758.809
-202.546
-51.4463
-14.7665
-11119.4
-2912.9
-732.858
-180.106
-51.7089
-2887.83
-956.251
-261.798
-67.5034
-19.7027
-10324.2
-2614.74
-639.819
-153.578
-43.1973
-2723.17
-926.352
-254.266
-65.4591
-18.9231
-11468.2
-3047.42
-777.787
-193.763
-56.2993
-3021.48
-960.194
-257.653
-65.5684
-19.0701
-11767.3
-3118.25
-799.979
-200.663
-58.6987
-3070.09
-971.853
-259.557
-61.5561
-18.8562
-479.4
-7933.54
-7723.21
-4241.94
4033.87
5559.63
11062.5
14682.9
6068.47
12640.5
1762.06
7116.84
5951.51
10271.2
11587
16216.4
13921.1
15999.6
7929.05
9042.7
-18419.1
-13170.8
-2384.06
-1503.12
-1092.61
-1682.32
-1365.73
-11266.7
-9642.93
-8513.24
-7993.4
-5786.9
-3927.33
-6092.43
-3102.15
-2329.45
-2709.66
-1705.23
-18864.3
-8264.51
-1846.35
-3355.6
-5891.89
-3648.55
-3801.57
-2676.91
-1096.08
-1814.32
-1876.16
-2249.39
-18223.6
-10632
-10464.8
-6185.52
-6079.23
-6575.99
-2394.22
-2745.21
-3506.89
-11558.3
-10069.7
-7630.27
-6381.8
-4791.09
-8958.23
-6239.65
-4654.37
-3373.42
-1338.03
-2056.22
-1653.53
-1200.68
-728.461
-244.076
-1316.87
-1076.46
-790.479
-481.632
-161.656
-950.976
-771.35
-561.947
-340.268
-113.873
-1477.92
-1211.27
-890.62
-542.586
-182.066
-1187.32
-962.249
-701.249
-425.171
-142.42
-7047.27
-5550.86
-3976.76
-3134.08
-2777.42
-5043.21
-3692.81
-2362.3
-1657.75
-1182.62
-5770.86
-3810.58
-2663.82
-1784.72
-709.406
-4242.13
-2963.15
-1894.09
-1287.9
-760.821
-2878.75
-1891.28
-1168.6
-821.957
-423.479
-3051.64
-2224.87
-1519.25
-906.493
-310.38
-4313.07
-2938.08
-1988.95
-1224.17
-452.265
-2135.57
-1392.28
-906.555
-540.3
-193.364
-1880.08
-1414.87
-978.082
-579.695
-194.468
-2134.5
-1567.29
-1064.26
-624.504
-209.154
-1393.08
-1059.3
-735.24
-434.543
-144.846
-12073.3
-9232.02
-6874.04
-5447.32
-4180.67
-6116.28
-4346.72
-3088.58
-2026.31
-778.861
-1496.31
-1132.25
-789.287
-472.545
-159.555
-2760.89
-2122.61
-1502.03
-910.011
-308.646
-4705.96
-3530.64
-2494.99
-1542.37
-535.479
-3022.88
-2338.04
-1664.77
-1012.43
-341.674
-3206.63
-2519.24
-1806.69
-1095.4
-366.177
-2272.31
-1797.69
-1289.49
-778.208
-260.872
-923.468
-723.719
-512.854
-305.74
-101.829
-1559.82
-1249.07
-901.191
-543.163
-181.584
-1556.27
-1202.45
-846.343
-505.402
-169.192
-1896.05
-1489.65
-1062.83
-639.79
-214.61
-11423.5
-9356.54
-7121.05
-5832.46
-4242.22
-7512.01
-5286.12
-3892.54
-2726.01
-1083.24
-7932.99
-5962.63
-4299.37
-2992.84
-1187.33
-4862.83
-3486.9
-2487.04
-1587.06
-497.945
-4947.84
-3738.15
-2658.78
-1638.17
-540.428
-5154.02
-3680.45
-2615.44
-1664.31
-509.352
-2001.54
-1559.29
-1109.98
-670.609
-225.153
-2358.85
-1888.66
-1364.78
-824.836
-276.137
-2936.45
-2292.94
-1636.16
-990.273
-332.84
-7926.23
-17604.1
-13667.4
-45526
-12586.1
-58080
-8644.34
-23012.9
-10986.4
-9494.51
-22140.5
-17356.3
-10803.6
-12918.8
-23652.1
-19356.9
-5071.6
-3509.39
-11865.5
-8494.8
-8769.46
-4630.7
-32499
-23342.6
-18907.1
-12893.6
-20129.1
-13204.3
2496.21
-1852.43
-53699.7
-64589.3
-27031.5
-36869.2
-67063
-81132.1
-29370.1
-37170.5
-40758
-52148.8
-31123
-43816.8
-20262.8
-23984.6
-2829.11
-555.741
-6254.27
-2035.71
-5344.77
-2611.93
-17403.3
-6284.65
-2691.85
-1367.32
-7442.12
-2107.49
-19656.6
-5735.8
-25708.1
-8165.1
-22247.8
-14133.7
-23252.3
-16163.9
-20720.9
-15063.4
-21038.1
-17090.7
-19150.3
-13906.1
-17562.3
-12250.9
-24235.5
-17586.1
-25994.7
-18594.2
-22509.5
-18455.3
-24489.5
-19460.5
-20945.6
-15335.6
-23093.6
-16312.3
-22556.1
-9782.6
-12940.4
-16015.8
-22118.2
-10860.7
-12011.2
-16697.5
-23271.7
-9174.88
-13963.3
-15774.4
-24255
-9242.53
-14920.9
-15936.3
-837.256
-686.436
123.256
-1130.1
-3263.82
-4252.21
-2501.27
-6734.23
-5234.96
-7245.91
-5675.27
-12410.8
-19369.3
-17711.7
-16723.3
-20459.9
-13086.1
-11077
-9005.57
-9324.08
-20270.3
-18224.2
-15026.6
-15272.8
-15390.8
-15275.5
-23596.7
-1054
-1318.3
-800.023
-1100.43
-4330.75
-3880.94
-5086.69
-4944
-4666.48
-2854.61
-8412.35
-7815.93
-11932.8
-12302.9
-11512.5
-11398.6
-12089.4
-10058.2
-17036
-14452.9
-16446.9
-15278.4
-16069.8
-15324.3
-15913.3
-13000
-13935.2
-10450.7
-13367.2
-9594.61
-19099.1
-13450.4
-13897.9
-6959.47
-11444
-10734.2
-16398.2
-18280.5
-16320.3
-20603.2
-9920.01
-9432.18
-12595.5
-4921.53
-11629.7
-17459.6
-12521
-19046.7
-16797.1
-25486.7
-17736
-26426.4
-10355
-16051.8
-11242
-17808
-13089
-9110.51
-18303.6
-7593.63
-13042
-3931
-16953.3
-3139.27
-14186.7
-13629.8
-19405.6
-9470.4
-13206
-16029.7
-18077
-12174
-1531.39
-1223.72
-994.512
-1209.27
-3142.99
-1883.74
-4055.65
-4056.66
-1561.64
-1291.65
-6923.43
-6552.85
-12794.1
-10360.2
-11165.9
-7986.7
-8334.41
-5317.92
-11467
-8346.18
-13051.3
-8557.71
-18566.5
-14659.7
-10541.4
-7679.84
-9009.45
-5883.02
-8533.44
-5247.77
-10357.7
-4670.81
-5760.28
-11211.4
-5167.42
-11289.6
-7934.37
-12891.2
-9560.3
-14979.9
-1531.69
-1360.22
-1243.37
-1188.05
-4289.66
-4310.7
-3800.74
-3763.81
-1096.35
-1704.09
-8720.35
-9371.21
-4824.94
-5327.03
-11197.6
-10963.3
-16601.4
-19113.2
981.139
5842.13
-7612.4
-5870.88
-6119.22
-3706.56
-1145.57
-1040.76
-1192.71
-984.885
-2576.68
-1503.1
-1833.65
-925.922
-7244.76
-3103.55
-6803.18
-2803.13
-8086.29
-2761.23
-9519.24
-3104.19
-6922.16
-9777.75
-7937.14
-10762.2
-12618.7
-14123.5
-14226.9
-15279.4
-5788.1
-7908.14
-4867.6
-7016.59
-8580.77
-11380
-9857.07
-11933.9
-15145.6
-15938.5
-16745.5
-16672.1
-5707.32
-8338.52
-5941.03
-8659.64
-262.672
-984.018
-6016
-2780.82
-369.839
-995.146
-5390.64
-2415.51
-372.423
-866.793
-6393.01
-3036.39
-697.296
-873.393
-6493.32
-3162.61
-1020.13
-1118.12
-1022.47
-1084.86
-2497.92
-2691.14
-1666.36
-1789.91
-6360.21
-6653.37
-3083.48
-3186.71
-4112.86
-9978.2
-2451.24
146.597
-613.646
-3903.34
-810.864
-1789.48
1857.4
-253.649
-14980.6
-10181.1
-7015.22
-5947.97
-2534.98
-1297.46
-1320.27
-1208.09
-1318.1
-3097.7
-3140.1
-2027.21
-2293.49
-6729.68
-7029.58
-3054.93
-3471.59
-5889.09
-6945.33
-1737.09
-3647.93
-2935.64
-3962.51
-391.504
-1174.85
-783.688
-1283.67
-11350.9
-8351.3
-5748.45
-3816.1
-3719.91
-2514.03
-2959.55
-1856.61
-1046.92
-1239.08
-6581.45
-6705.12
-9931.12
-6558.31
-10821
-10116.2
-13383.5
-10393.7
-7311.18
-4592.47
-4459.93
-4865.04
-10965.6
-5064.98
-11554.5
-4486.82
-14910.8
-9806.56
-15928
-9364.44
-7953.94
-3192.53
-8277.35
-2536.74
-4908.22
-3573.7
-2848.07
-4411.89
-3575.15
-3987.16
-2262.6
-4387.65
-4780.64
-2905.77
-3015.39
-4574.72
-5456.34
-2377.16
-3395.84
-4056.24
-1044.78
-1096.74
-895.403
-756.956
-3279.64
-3604.38
-1392.48
-898.982
-7097.88
-5827.23
-1939.64
-321.406
-8384.77
-6846.65
-5260.58
-4147.98
-4147.53
-3236.17
-1467.25
-930.228
-959.3
280.554
-7790.81
-5948.52
-3903.62
-2703.35
-2557.33
-1550.18
-1728.55
-887.56
-1859.44
113.004
-167.856
-55.636
-16.266
-0.88917
-147.419
-53.4765
-0.103084
6.96296
-428.166
-145.467
-34.0846
3.26725
-329.865
-122.507
-13.7294
3.47468
-635.711
-226.643
-71.196
4.55608
-543.836
-206.717
-90.5133
-30.4007
-309.79
-125.138
-74.892
-26.7506
-246.954
-94.1829
-34.9035
-3.97946
-822.293
-291.471
-169.623
-43.82
-938.504
-301.015
-225.495
-26.0311
-803.394
-283.751
-156.073
-22.2046
-792.159
-255.673
-208.519
-22.4417
-729.471
-259.212
-136.389
-26.0029
-1015.57
-323.457
-234.021
-26.7019
-685.06
-238.539
-107.742
-10.4189
-1042.34
-329.161
-230.133
-21.6469
-164.884
-51.2729
-21.192
-1.93596
-165.192
-46.3774
-29.054
-0.566964
-419.543
-134.086
-52.8659
-1.84202
-411.419
-118.568
-71.3018
0.35701
-732.529
-244.402
-124.869
-9.03541
-703.725
-219.029
-134.597
4.77686
-664.15
-235.659
-123.358
-1.33572
-500.914
-162.149
-103.676
14.0959
-781.447
-254.81
-206.3
-1.66273
-125.261
-33.0138
-13.6944
2.17893
-78.8404
-21.7762
-5.303
0.135814
-334.717
-91.0207
-46.8517
2.49229
-206.343
-59.2491
-20.3983
-1.63078
-441.234
-129.991
-73.7438
4.50115
-252.464
-84.1148
-30.5711
-2.98884
-473.937
-153.269
-92.9545
4.52008
-268.715
-102.277
-43.3554
-7.0645
-539.408
-167.146
-137.948
-13.9343
-344.977
-113.129
-66.6514
-16.363
-945.155
-271.487
-218.552
-36.9814
-463.201
-129.218
-83.7348
-23.6301
-796.866
-230.212
-198.802
-33.1153
-464.976
-129.877
-83.3483
-23.3376
-980.443
-278.3
-216.356
-29.8568
-415.201
-114.283
-74.5231
-18.5038
-947.076
-263.889
-202.544
-21.285
-364.485
-95.3826
-61.6504
-12.1435
-2.04106
-0.897435
-0.364048
-0.152431
-0.0787724
-2.89923
-1.3513
-0.572657
-0.245351
-0.128042
-5.35567
-1.98037
-0.77665
-0.323087
-0.167084
-9.44108
-3.85608
-1.60601
-0.687591
-0.359312
-8.22367
-2.86448
-1.13317
-0.476954
-0.248444
-13.7784
-5.54024
-2.30314
-0.988631
-0.517871
-5.31361
-1.96709
-0.79028
-0.334408
-0.173848
-4.01277
-1.24213
-0.451999
-0.183032
-0.0933539
-7.24065
-2.4753
-0.951896
-0.397183
-0.206248
-2.1028
-0.439392
-0.124849
-0.044992
-0.0220337
-9.70622
-3.80247
-1.57994
-0.68051
-0.357723
-2.70306
-0.882495
-0.332601
-0.138058
-0.0715841
-3.95484
-0.72839
-0.176204
-0.0566871
-0.0263976
-2.75732
-0.555176
-0.156012
-0.0562555
-0.027619
-4.54114
-0.820962
-0.178666
-0.0516581
-0.0224438
-2.35008
-0.32163
-0.0395793
-0.0029947
0.000950842
-1.47093
-0.627075
-0.25796
-0.108468
-0.0560254
-0.777971
-0.487016
-0.226769
-0.0999062
-0.0525309
-3.41688
-1.42489
-0.588196
-0.249084
-0.129407
-1.83851
-1.14677
-0.527401
-0.231945
-0.122092
-4.65147
-1.82098
-0.7322
-0.308626
-0.160475
-2.51991
-1.5048
-0.681091
-0.29929
-0.15784
-5.71299
-2.52515
-1.09036
-0.476453
-0.252081
-1.85442
-1.12814
-0.517304
-0.229353
-0.121657
-3.85972
-1.56509
-0.667037
-0.291207
-0.1541
-181.702
-373.621
-646.357
-1211.82
-1315.25
-2282.12
-1920.84
-3431.56
-2042
-3539.17
-2373.61
-3489.02
-1809.44
-2536.35
-3081.64
-4377.3
-3377.89
-4694.06
-766.222
-176.856
-40.198
-8.96108
-2.34051
-206.662
-102.692
-9.37192
-3.37002
-1.57815
-2500.19
-578.521
-132.078
-29.6585
-7.80236
-531.237
-124.759
-27.4814
-5.86026
-1.3991
-4379.97
-1017.17
-233.706
-53.0313
-14.1071
-1059.81
-281.289
-67.7227
-16.2274
-4.41032
-6182.89
-1442.87
-335.307
-77.1669
-20.8682
-1624.5
-466.985
-119.39
-29.7774
-8.41891
-8472.8
-2033.06
-483.349
-113.615
-31.4063
-2354.54
-752.194
-201.212
-51.2268
-14.7365
-11096.7
-2907.53
-732.185
-180.146
-51.7782
-2919.04
-960.175
-262.241
-67.558
-19.7135
-10250.3
-2601.43
-638.13
-153.522
-43.2688
-2759.21
-927.99
-254.124
-65.4142
-18.9225
-11465.8
-3046.36
-777.727
-193.843
-56.3515
-3033.19
-962.159
-257.931
-65.6092
-19.0767
-11768
-3118.23
-800.017
-200.7
-58.7185
-3071.82
-972.226
-259.616
-61.565
-18.8575
-184.43
-7672.08
-6871.48
-2965.52
-1552.77
-745.326
-3167.64
-2136.92
-6168.43
-6682.42
-3679.91
-3420.03
-80.9813
-140.379
-269.202
-475.777
-771.146
-1150.28
-60.5387
-144.184
-325.939
-623.036
-1048.09
-1596.19
-59.2483
-24.9735
-117.287
-68.619
-246.156
-172.065
-454.463
-371.839
-725.397
-683.024
-1060.59
-1083.14
-1642.68
-2281.52
-3197.8
-5262.41
-6228.81
-8035.53
-2231.25
-2845.19
-3271.14
-3504.97
-3223.26
-3160.81
-72.5637
-60.8492
-45.7146
-28.2831
-9.56456
-125.579
-105.096
-78.7961
-48.673
-16.4457
-240.337
-200.654
-150.087
-92.543
-31.2387
-423.651
-352.622
-262.988
-161.81
-54.5607
-684.211
-567.189
-421.445
-258.641
-87.102
-1015.29
-836.821
-618.744
-378.558
-127.313
-54.1962
-45.3945
-34.0642
-21.0562
-7.11722
-128.827
-107.657
-80.6014
-49.7346
-16.7949
-290.629
-242.294
-180.988
-111.489
-37.6162
-554.028
-460.447
-342.948
-210.824
-71.0593
-928.541
-768.506
-570.292
-349.728
-117.744
-1407.01
-1158.2
-855.607
-523.294
-175.988
-53.1283
-44.5924
-33.5323
-20.7611
-7.02344
-22.4038
-18.8138
-14.1548
-8.76735
-2.96666
-105.032
-88.0121
-66.0713
-40.8523
-13.8102
-61.4946
-51.5742
-38.751
-23.9764
-8.10825
-220.039
-183.98
-137.813
-85.0655
-28.7302
-153.937
-128.836
-96.5988
-59.6693
-20.1606
-405.178
-337.723
-252.203
-155.314
-52.3929
-331.727
-276.699
-206.767
-127.391
-42.9826
-644.317
-534.731
-397.705
-244.208
-82.2598
-606.973
-503.974
-374.943
-230.252
-77.5588
-936.298
-771.762
-570.565
-348.985
-117.337
-956.751
-788.95
-583.255
-356.604
-119.859
-1438.57
-1175.96
-863.986
-526.879
-176.989
-1973.22
-1593.03
-1160.98
-706.273
-237.215
-2709.62
-2145.71
-1549.07
-943.641
-317.799
-4320.24
-3325.63
-2384.12
-1470.95
-499.426
-4827.2
-3589.59
-2583.47
-1661.34
-597.787
-5972.13
-4341.46
-3148.52
-2095.98
-773.939
-1953.66
-1597.09
-1173.69
-716.032
-240.635
-2468.95
-2000.67
-1461.89
-890.345
-299.278
-2802.99
-2245.14
-1630.57
-993.325
-334.585
-2943.53
-2317.04
-1672.17
-1023.78
-346.96
-2613.67
-2006.59
-1443.16
-899.702
-312.251
-2470.74
-1849.87
-1329.83
-848.431
-301.118
-83.3818
-148.697
-286.679
-507.029
-821.523
-1222.2
-63.4021
-154.182
-346.884
-659.6
-1102.87
-1666.18
-61.3711
-26.3142
-125.188
-74.0631
-264.719
-186.626
-491.924
-407.222
-792.507
-772.058
-1159.75
-1283.18
-1739.29
-2404.97
-3345.3
-5380.28
-6296.06
-8055
-2307.16
-2913.25
-3319.41
-3523.63
-3221.89
-3157.24
-74.7389
-62.699
-47.1252
-29.1667
-9.86545
-133.118
-111.508
-83.6881
-51.7382
-17.4896
-256.186
-214.147
-160.388
-99.0021
-33.4395
-452.021
-376.802
-281.472
-173.413
-58.5167
-730.014
-606.303
-451.408
-277.483
-93.5332
-1080.9
-893.076
-662.022
-405.873
-136.655
-56.7903
-47.6006
-35.7467
-22.1101
-7.47607
-137.892
-115.372
-86.4897
-53.4255
-18.0523
-309.639
-258.491
-193.366
-119.256
-40.2636
-587.264
-488.819
-364.673
-224.479
-75.7184
-978.463
-811.254
-603.132
-370.426
-124.818
-1471.09
-1213.37
-898.226
-550.285
-185.238
-55.0514
-46.2266
-34.7775
-21.5404
-7.28875
-23.6173
-19.8443
-14.9394
-9.25811
-3.13361
-112.188
-94.0937
-70.706
-43.7538
-14.7979
-66.4227
-55.76
-41.9387
-25.9709
-8.787
-236.856
-198.279
-148.715
-91.8934
-31.0552
-167.122
-140.039
-105.134
-65.0121
-21.9794
-439.13
-366.606
-274.239
-169.125
-57.0974
-363.782
-303.956
-227.554
-140.414
-47.4186
-705.155
-586.505
-437.226
-268.991
-90.7052
-687.493
-572.305
-426.961
-262.805
-88.6402
-1026.46
-848.76
-629.565
-386.109
-130.015
-1137.33
-941.865
-699.46
-429.259
-144.587
-1527.22
-1252.48
-923.282
-564.538
-189.915
-2087.66
-1692.92
-1239.28
-756.517
-254.56
-2848.99
-2269.66
-1648.12
-1008.34
-340.337
-4439.83
-3438.49
-2479.69
-1536.84
-522.814
-4903.29
-3665.88
-2652.17
-1712.56
-617.718
-5997.96
-4369.51
-3175.75
-2118.1
-782.838
-2023.7
-1657.94
-1221.15
-746.334
-251.067
-2532.69
-2056.96
-1506.51
-919.244
-309.306
-2849.66
-2287.71
-1665.41
-1016.52
-342.752
-2964.46
-2338.54
-1691.67
-1037.9
-352.137
-2616.25
-2011.98
-1450.1
-906.066
-314.967
-2469.32
-1850.12
-1331.38
-850.474
-302.096
-18379.7
-13188.6
-2579.15
-1672.15
-1437.11
-2016.45
-1638.95
-12023.1
-12245.1
-9911.14
-11267.4
-5050.17
-8794.02
-3468.27
-3731.86
-2472.26
-19492
-9042.58
-2349.05
-3845.23
-6359.02
-3923.47
-4170.65
-3047.88
-1420.09
-2311.19
-2448.74
-2644.08
-18156.1
-10733.6
-10839.1
-6412.45
-6340.16
-6907.26
-2810.9
-3161.77
-3829.86
-11547.1
-10083.3
-7665.11
-6442.66
-4849.94
-8993.61
-6281.19
-4698.43
-3414.55
-1355.73
-2237.38
-1811.87
-1324.99
-808.356
-271.686
-1470.98
-1208.48
-891.995
-545.721
-183.586
-1262.09
-1035.09
-762.928
-466.458
-156.974
-1780.55
-1468.58
-1087.05
-665.911
-224.146
-1435.95
-1174.79
-864.46
-528.205
-177.705
-8200.18
-6808.01
-5181.24
-4166.74
-3543.83
-7991.03
-6752.05
-5078.65
-3838.09
-2566.44
-7302.99
-5220.77
-3870.8
-2676.36
-1075.7
-7692.82
-6141.21
-4527.66
-3351.61
-1887.61
-4147.21
-3199.2
-2304.51
-1434.33
-504.059
-6853.15
-5046.04
-3646.28
-2361.06
-900.225
-2920.52
-2301.86
-1662.96
-1020.31
-349.173
-3129.92
-2457.84
-1773.37
-1089.47
-373.894
-2099.41
-1667.05
-1207
-738.177
-251.05
-12989.3
-10224.5
-7832.18
-6269.4
-4747.04
-6930.07
-5110.84
-3740.61
-2493.76
-962.115
-1970.59
-1548.71
-1119.1
-688.638
-236.221
-3227.88
-2539.73
-1837.47
-1131.8
-387.36
-5179.06
-3973.52
-2868.67
-1801.87
-631.394
-3290.49
-2581.94
-1864.76
-1146.69
-389.567
-3553.38
-2825.45
-2049.81
-1253.44
-421.099
-2619.76
-2103.76
-1531.7
-935.216
-315.569
-1224.79
-986.721
-719.171
-438.743
-148.098
-2012.34
-1636.25
-1199.18
-731.987
-246.477
-2086.7
-1662.71
-1206.17
-737.592
-250.298
-2265.71
-1814.9
-1320.08
-806.762
-272.934
-11459.4
-9465.14
-7278.25
-6030.24
-4442.01
-7651.09
-5431.44
-4031.21
-2840.05
-1132.9
-8404.88
-6444.16
-4749.26
-3349.78
-1343.05
-5104.46
-3718.59
-2687.43
-1729.66
-544.952
-5215.7
-3990.01
-2872.79
-1786.78
-593.296
-5505.82
-4009.68
-2898.65
-1865.14
-579.084
-2390.11
-1899.86
-1378.36
-844.178
-285.542
-2742.54
-2221.04
-1623.52
-990.135
-333.162
-3245.33
-2570.37
-1860.21
-1138.39
-385.112
-268.787
-762.971
-1223.91
-1700.83
-2212.72
-2704.78
-2870.17
-7283.08
-6615.15
-2787.65
-8324.93
-8022.43
-8487.73
-11644.9
-1657.78
-119.099
-3117.31
1943.85
-12003.8
-10745.9
2848.48
-2035.96
-5600.73
-5176.39
-2073.5
-6153.54
-3699.22
-6521.41
-6667.46
-702.269
1371.66
-1263.29
4868.81
-7957.47
-5750.37
5363.9
-1160.04
-3529.17
-3492.74
-1314.03
-3455.45
-265.055
-4428.25
-4177.82
-101.366
1536.79
401.283
4870.11
-4245.47
-203.702
5895.55
-679.757
-2261.89
-2516.32
-894.112
-1437.31
1480.98
-3331.32
-3457.46
161.866
1025.85
847.927
3812.44
-2746.5
2270.23
5373.35
-531.469
-1990.68
-2235.54
-750.956
-1158.28
1151.73
-3371.75
-4525.59
246.4
656.041
918.297
2929.3
-2692.57
1999.79
3289.26
-490.146
-1901.87
-2088.93
-692.855
-1651.85
40.4352
-3199.33
-4434.29
275.411
983.414
686.543
2794.06
-3615.92
431.382
2005.66
-1284.8
-3005.45
-4488.67
-1863.21
-6256.43
-11427.8
-7359.56
-13158.5
-1450.68
-1203.88
-4725.09
-3701.54
-1849.21
-8663.56
-3941.48
-1215.57
-2834.11
-3866.67
-1552.17
-5732.87
-9379.32
-6372.7
-9096.98
-1458.48
-1039.63
-4428.4
-3344.8
-1121.87
-7668.94
-3641.63
-1047.95
-2457.93
-2976.99
-1157.33
-4838.47
-7548.74
-4960.49
-7362.39
-1153.35
-1283.44
-3599.11
-3804.78
-1314.53
-6351.5
-3921.2
-955.4
-2461
-2469.71
-913.71
-4669.53
-6721.8
-4465.45
-6629.11
-1099.83
-1483.09
-3393.67
-4334.35
-1642.88
-6424.97
-4389.81
-892.481
-2281.83
-2259.59
-811.493
-4253.38
-6764.06
-4228.59
-7016.58
-1108.2
-1806.52
-3393.93
-5187.76
-2418.68
-7132.49
-5363.88
-859.326
-2177.35
-2132.58
-761.555
-4210.13
-6798.99
-3967.91
-6755.95
-1204.6
-2175.69
-3633.47
-5720.59
-3374.54
-7749.46
-5844.18
8753.82
10664.7
21594.6
34032.1
33003
64308.8
22557
67694.3
23083.7
54065.7
28423.8
46994.5
21646
28905.4
10039.8
10270.1
16541.4
19256.4
22015.4
20281.9
15073.7
22644.8
22189.6
22245.4
5995.77
4575.61
8056.47
5953.25
14956.6
10269.7
27197.3
19523.1
22627.9
23338.9
23784.9
25090.1
6131.69
5066.29
51511
63692.5
27858.8
36930.5
65079.5
80271.4
30396.8
37396.4
39294.6
51341.3
31834.3
43716.3
18564.5
23270.7
3769.43
1234.14
4738.14
1685.01
9052.21
3780.21
15194.8
5677.04
10548.7
3510.75
10092.5
2905.99
19466.1
5758.96
25394.1
8091.57
31133.5
18178.8
26138.7
18083.6
30768.7
19894.5
24361.2
19297.6
21128.1
15376.8
23524.2
15196.7
25352.3
18435.3
26242.5
18821.8
23878.5
19427
24854
19726.1
21599.7
15990
23210.6
16489.5
23515.5
10009.8
13996.3
16415.2
25514.4
11755.5
14221
17600
23441
9211.32
14418.8
15935.2
24229.6
9232.28
15039.3
15977
3663.16
4177.18
1326.78
2794.29
11157
13212.8
4830.05
9648.92
18230.6
21660.4
8939.32
16397.4
18985.7
9594.99
21162.2
27283.5
14681.4
6440.79
10478.6
14537.8
27675
19967.1
12177.9
16681.9
19479.3
20018.9
25828.7
3843.62
3838.61
2458.5
2613.74
12291.2
11078.7
8547.02
8405.53
18313.8
15729.3
12751.8
12380.9
9876.12
10761.6
15591.5
16480.4
19733.8
18270.7
24801
22027.6
19116.3
18725.1
14068.8
13983.6
18469.9
15191.1
18322.3
13758
17427.5
12514.2
21017.1
15731.8
15000.2
6337.55
12128.7
10668.9
16235.6
17379.5
16672
20426.4
10659.5
9407.52
14072.8
4417.3
12042.4
17553
12674.5
19101.1
17101.8
25435.4
17875.1
26467.9
10756.3
16145.1
11380.9
17854.2
13579.6
9005.14
18396.1
7377.09
14167.2
3222.27
17224.8
2137.81
14426.6
13663.8
19457.2
9436.99
13293.3
16053.4
18098.1
12173.6
3338.81
2908.06
2226.2
2234.88
2069.37
1665.77
9514.13
7373.7
5710.66
6638.85
4981.73
3746.15
11962.1
8903.09
7332.31
9650.36
6792.71
5461.88
8865.01
5915.91
4914.79
14601.8
8997.42
6248.95
14457.2
8900.52
5808.25
16857.3
11337.8
8273.95
15032.4
8949.54
5682.56
16522.7
11417.7
8739.81
13142.2
8792.38
6071.69
12712.3
8056.73
5201.39
12429.4
7881.63
5117.39
15086.6
7956.9
4035.41
12676.1
20168.2
11070.4
15354.5
10989.4
21935.6
9472.68
18203.8
118.305
1514.35
-247.819
950.178
3516.67
6535.97
2335.75
4199.79
2295.79
4236
11659.6
16873.3
8610.28
6886.01
13023.2
11488.2
18230.7
19630.9
-323.662
-5729.02
9054.99
6318.88
6869.6
3890.74
1397.7
899.949
1213.71
791.535
3877.83
1197.23
2190.56
497.648
9933.57
2760.49
7856.2
2459.48
8791.62
2613.9
9794.03
3060.68
13642.3
12694.9
10535.8
12371.8
21470.2
18593.8
17428
17428
7354.31
8789.3
8621.22
8245.78
9798.38
12129.3
10218.9
12147.7
16597
16900.1
17176
16941.1
6461.62
8782.1
6179.16
8792.48
611.159
915.412
6314.01
2768.75
694.749
712.928
5586.19
2331.82
568.326
796.974
6576.14
3023.44
774.374
844.884
6558.11
3151.03
-148.251
-285.975
397.885
204.226
-755.336
-1233.8
632.361
263.368
1002.2
19.7965
1949.38
1463.75
-6615.21
-3348.85
-3775.9
-2577.26
-217.253
-6721.42
-9391.59
-4142.78
-4175.35
-301.733
10379.4
7225.94
5317.53
4779.15
2147.1
-402.598
-309.445
71.2745
73.5841
-1208.14
-1172.62
205.898
194.414
-1071.94
-1322.58
756.501
682.181
-2294.72
-478.161
-6656.78
-3926.71
-3278.2
-1897.81
-3052.25
-2202.76
-187.516
123.076
5719.02
4049.36
325.782
-995.304
-266.466
-1090.61
176.368
-579.085
71.4765
140.701
4296.78
4297.81
9236.15
5685.22
9044.09
8023.9
13096.9
9662.91
6384.85
3723.46
2326.92
2702.03
10798.2
4659.58
11555.6
4417.93
14972.8
9482.94
16006.2
9329.64
7618.14
2771.5
8215.66
2448.38
4005.18
2814.76
2096.79
3615.04
1843.31
2240.71
1176.75
2933.82
4385.78
2509.15
2618.9
4154.61
5358.21
2273.04
3282.82
3956.75
-287.502
-272.931
-285.282
45.0364
-56.593
-65.9262
-1045.31
-984.558
-954.375
72.5482
-224.26
-247.881
-1301.57
-1449.04
-1454.55
356.109
-400.01
-504.909
268.471
-385.909
-346.425
-2126.92
-2182.67
-1908.19
-1554.47
-1671.69
-1542.27
-1782.92
-1859.19
-1768.81
161.798
-563.366
-492.44
4560.79
2324.76
1320.41
241.327
-621.867
-927.891
-207.834
-896.862
-1073.14
-153.031