/*--------------------------------*- C++ -*----------------------------------*\
| =========                 |                                                 |
| \\      /  F ield         | OpenFOAM: The Open Source CFD Toolbox           |
|  \\    /   O peration     | Version:  2412                                  |
|   \\  /    A nd           | Website:  www.openfoam.com                      |
|    \\/     M anipulation  |                                                 |
\*---------------------------------------------------------------------------*/
FoamFile
{
    version     2.0;
    format      ascii;
    arch        "LSB;label=32;scalar=64";
    class       volScalarField;
    location    "0.8";
    object      gradTz;
}
// * * * * * * * * * * * * * * * * * * * * * * * * * * * * * * * * * * * * * //

dimensions      [0 -1 0 1 0 0 0];

internalField   nonuniform List<scalar> 
5712
(
9033.44
27300
6905.51
29705.1
3738.15
31139.8
6217.85
48438.2
10090.9
60599
10465.8
43557.7
11256.1
38965.9
11148.3
33704.3
5143.7
2989.36
15705.4
7705.7
4768.42
2254.62
16593.5
6743.9
7048.03
5430.89
20709.6
15714.2
4722.21
3929.08
20794.9
16333.2
10720.9
3976.34
8448.38
3275.57
3996.3
10287.8
48275
14584
14644
6426.39
57520.4
17751.3
13235.4
5791.73
32750.7
10829.8
16747.5
7440.7
27331.3
8613.59
8064.74
4322.27
12158.6
5067
7509.42
4547.3
12690.2
4968.83
9678.5
6101.22
8163.2
3597.42
13606.2
5048.21
5263.95
1991.83
17242.7
13502.8
10007.7
9273.31
17511.8
15481.6
9250.75
9877.8
9913.29
8972
14032.4
12441.7
7083.76
6237.74
3753.04
3231.52
6542.42
6521.71
3343.07
3349.14
7173.98
5921.36
3882.6
2798.9
8891.34
5114.97
9328.48
10006.2
12678.7
9597.93
13973.2
17653.8
6110.35
2720.48
5720.48
5809.13
3232.45
1183.15
2427.09
2149.06
10268.4
19761.2
7167.7
22169.9
11126
19767.8
8478.3
23311.6
13992.1
19094.3
11456.4
23209.6
13258.7
13760
12018.3
12451.6
14163.4
9076.04
11705.5
17195.6
20898.6
29969.7
12469.7
11674.4
12204.1
15491.5
23495.8
24596.4
23836.3
28707.3
29138.2
23676.3
23639.7
28501.1
28551.6
21277.8
22039.7
26853.4
27264.1
11296.4
11993.9
12811.3
13631.3
16059.7
16661.7
19602.7
19611.9
25483.3
26155.4
10111.8
11365.6
12568.8
14337.6
15039.1
17321.8
18161.7
20911.9
24406.9
27527.1
12033.9
8198.29
9522.27
9093.83
12455.6
13203.1
9968.76
12311.5
9397.79
9051.09
12243.2
8845.3
4215.91
6408.11
1434.27
2185.33
6025.45
8896.45
2030.01
3084.92
3928.09
6042.15
1265.56
2045.97
9433.73
7833.4
10065
6427.82
13584
9831.85
15973.9
10959.2
4614.09
4883.75
5686.29
3326.16
3145.27
3252.67
3508.01
2597.68
20975.9
13948.2
4672.26
22731.1
14464.3
5028.89
20411.1
13533.4
4728.17
22397
14324.5
4915.19
19092.1
12491.8
4211.99
21594.3
13926.3
4812.2
9020.16
5491.32
1627.94
11996.7
8213.33
2701.68
14753.8
10257.4
3477.7
17020.3
11256
3749.39
20480.5
13166.4
4637.79
9429.42
5457.43
1890.31
11146.1
7430.78
2691.06
13413.3
9005.62
3200.02
16142.6
10478.6
3665
19499.8
11714.7
4132.14
-595.76
904.65
199.214
2513.01
2039.86
1967.56
5185.95
4437.33
593.801
867.551
627.904
908.267
287.731
808.772
545.895
1194.38
1448.12
977.047
3459.71
2556.04
1482.08
2245.31
2786.01
92.5194
6539.37
1540.45
-5164.51
-1765.06
75.8541
-168.83
-848.702
-970.741
9214.63
3527.1
2392.7
1243.53
9043.03
3513.84
2549.98
1411.67
8596.22
3692.41
3141.53
1854.17
2236.88
1144.94
672.64
584.273
13492.6
11610.1
5648.64
7239.76
16578.2
15335.5
7885.82
9371.45
4584.74
5566.88
10445.9
8359.19
3305.58
4481.25
1492.87
2242.4
5013.84
5854.64
2478.08
2965.02
2262.85
3451.73
863.764
1795.68
3677.22
2148.57
4127.96
2219.94
6782.28
3268.11
5717.06
2997.85
1863.74
1292.98
2694.15
1400.18
665.476
589.699
1479.71
724.922
10354.7
5936
4377.18
3941.49
10275
5995.69
4249.38
3835.79
10406.7
5923.97
4218.16
3557.12
13517
14399.5
11458.7
7950.78
3706.82
8661.94
9302.81
8815.76
7361.81
4105.39
12459.5
10034
7457.32
5303.8
2735.99
4184.3
3447.9
3676.91
3712.88
4322.69
3529.74
3638.87
3712.22
4408.58
3682.46
3533.66
3671.82
9656.7
9136.1
7925.86
6664.91
5197.74
4897.63
4259.88
4022.2
3133.52
3583.54
7288.31
8174.91
5488.27
6054.19
4215.36
4581.88
3406.21
3746.48
2322.65
3345.69
5005.18
3988.31
3384.22
2096.4
8224.09
6112.31
6516.39
4259.98
2196.4
1406.87
3328.7
2925.81
3921.04
1856.79
1507.34
818.095
5648.62
3318.72
1972.52
1343.11
2800.73
1242.98
1171.54
558.119
1401.84
1580.14
1331.01
2114.54
2235.29
2503.14
1591.06
2716.11
1706.96
1117.67
939.818
1519.69
552.578
146.42
-76.1121
206.54
2523.78
1175.85
340.717
2402.79
675.054
184.112
2642.77
1321.89
414.109
2460.36
727.437
208.264
2733.53
1417.14
396.701
2454.98
739.011
190.801
6364.35
3688.39
1074.2
4540.84
2614.77
786.867
3651.77
2001.17
614.618
2901.74
1496.19
410.576
2454.14
724.549
170.299
6789.83
3732.1
1236.91
5071.4
2814.52
946.386
3871.23
2101.65
697.512
3027.1
1415.01
430.402
2688.5
786.222
258.462
1156.51
376.327
166.976
49.4169
462.878
155.817
72.6974
23.7708
1162.8
388.31
187.585
62.7411
519.525
187.726
105.488
42.9741
1281.19
442.654
231.367
85.0881
782.854
315.968
135.39
51.4798
445.906
218.214
50.5497
9.65491
365.78
202.55
69.3582
26.1655
948.51
363.998
157.613
39.9807
869.276
325.266
174.969
34.6396
1282.21
454.324
244.628
78.2647
1099.91
385.314
228.167
38.8031
621.729
264.339
102.393
27.502
602.445
244.832
126.526
33.1839
358.008
177.622
77.3067
32.9806
336.19
159.328
84.3703
35.6593
1443.64
464.846
219.296
54.8856
1416.61
449.095
257.646
39.4911
1415.69
461.69
229.981
59.0885
1354.57
430.288
253.965
37.4282
1392.55
460.795
257.336
71.1978
1209.58
384.671
245.695
40.9316
1251.02
420.357
259.42
89.9477
1311.84
418.081
300.456
56.5696
937.388
315.172
199.067
50.3951
1087.02
321.908
197.298
24.7891
408.358
112.803
61.8732
12.5657
1079.08
322.703
196.69
25.5044
419.715
117.581
65.1794
14.8014
1024.28
308.565
194.826
27.1966
411.639
116.995
68.0047
17.4574
870.395
260.353
181.713
30.698
368.031
102.746
70.0641
20.6219
760.147
234.288
164.836
36.1511
338.291
99.7967
70.7323
23.31
533.744
189.464
101.251
22.3361
276.992
108.09
49.8089
19.2272
607.369
195.641
128.374
28.6316
299.499
101.045
60.8545
22.6773
416.549
168.488
81.0455
21.6849
236.072
104.326
41.7049
18.1524
259.738
126.693
63.1448
27.2282
173.56
89.8381
40.6192
21.2693
10.7525
2.47861
0.692593
0.232702
0.105735
4.56565
1.1154
0.325311
0.112178
0.0516361
12.5638
3.42844
1.11818
0.413669
0.197424
7.81052
2.63243
0.957702
0.373177
0.182319
18.37
6.09609
2.21443
0.86297
0.421384
24.9169
9.67608
3.78444
1.52445
0.756119
22.7388
9.45186
3.81566
1.56344
0.78343
19.6123
8.71349
3.65431
1.53487
0.781985
20.0254
7.30974
2.81413
1.12918
0.560345
14.9116
5.60621
2.18315
0.880582
0.437994
21.3893
7.49435
2.8199
1.11712
0.549388
13.6704
4.99191
1.9221
0.769196
0.380044
19.654
7.87375
3.1406
1.2834
0.643685
16.4031
6.92959
2.82536
1.16452
0.585902
17.7945
7.94437
3.34011
1.40501
0.716605
16.7793
7.61241
3.22073
1.35805
0.693511
10.6667
2.29906
0.612425
0.199716
0.0893075
4.43715
0.920287
0.239144
0.0767849
0.0340166
11.3803
2.73944
0.828439
0.29488
0.138104
4.40009
0.992581
0.285239
0.0986635
0.0455264
11.5117
3.25333
1.09184
0.41011
0.196592
5.48684
1.61871
0.555638
0.21092
0.10152
18.346
6.28275
2.31087
0.902799
0.439347
9.34805
3.14579
1.14719
0.446091
0.216227
17.2855
6.37086
2.43611
0.96817
0.475395
4186.84
7306.93
4010.04
7120.16
3823.58
6665.74
3789
6436.63
3961.96
7051.51
2359.32
3151.48
3154.56
4738.6
1562.65
1876.75
563.453
701.958
12552.2
3085.71
726.044
166.586
44.2201
3385.48
915.258
249.92
57.8531
13.7638
12334.4
2993.15
699.897
159.626
42.2288
3506.89
1034.54
259.93
62.1832
16.4294
11675.4
2789.9
646.704
146.71
38.7073
3404.03
996.808
248.294
58.787
15.3892
10668.6
2505.07
577.026
130.846
34.6512
3244.92
926.718
226.322
52.7712
13.6388
9068.74
2104.03
485.802
111.034
29.7751
2950.27
806.404
192.957
44.5316
11.4374
4867.84
1212.76
291.672
68.6665
18.9009
1501.99
388.067
86.8166
18.5413
4.43967
6916.32
1670.95
393.716
91.2972
24.8397
2084.49
551.611
129.311
29.4469
7.50476
3014.17
771.416
188.572
44.9142
12.4626
954.93
253.001
55.9214
11.3915
2.58426
1094.67
284.258
70.1645
16.8523
4.70886
430.991
106.674
22.6183
6.08263
0.958285
-2389.73
44.5399
4682.78
-4376.98
1048.99
1119.98
2823.98
3466.1
2362.2
3834.04
3267.42
4942.86
3250.19
4225.18
1538.23
2226.37
1623.25
1892.67
1113.01
1153.58
2662.53
1871.49
162.145
-227.649
-247.946
-366.323
2.87521
13105.1
4662.91
4925.03
4068.7
883.06
621.551
3470.98
-35.3573
284.359
4.77061
52.819
6355.14
3542.82
2074.87
1142.4
3141.42
1737.96
512.784
776.53
-238.957
-128.859
1133.35
1037.07
9171.88
4107.85
4599.28
2494.08
2959.49
3557.26
587.858
-112.486
841.368
1706.58
1363.94
1069.37
868.575
563.231
1403.34
1051.78
783.589
530.586
194.874
137.57
109.323
79.4122
48.7328
16.5044
-199.406
-162.763
-119.167
-72.3391
-24.2095
-218.939
-180.231
-132.654
-80.6331
-27.0035
-322.883
-265.368
-195.263
-118.811
-39.8201
2.85248
3.13082
3.6499
3.24843
1.26964
9057
7399.22
5553.43
4324.27
3199.71
3762.26
2728.03
2090.93
1472.23
577.003
3816.52
2822.93
2084.76
1413.98
556.324
3020.51
2172.45
1584.68
1041.37
368.335
677.81
467.88
353.568
231.108
92.5335
554.871
462.16
348.372
219.362
75.178
2773.37
2091.84
1497.58
944.712
334.066
71.8738
122.956
116.277
80.9823
28.08
250.373
208.66
159.664
102.649
35.9201
55.0595
82.7993
81.3015
58.1126
20.7823
33.9076
20.0747
12.9289
8.71854
3.43042
4080.19
3557.06
2729.5
2245.5
1801.5
2782.7
2056.37
1526.78
1022.16
363.24
1769.43
1412.71
1037.02
646.496
221.472
964.418
762.638
555.608
344.197
117.322
2559.4
1958.05
1402.17
869.325
299.461
1492.56
1188.82
866.899
531.492
174.403
433.559
343.798
251.36
155.797
52.6842
670.478
540.526
395.798
242.802
81.6309
-201.678
-157.392
-109.516
-63.3868
-20.635
-112.941
-91.3737
-64.7932
-37.4798
-12.1434
966.138
770.107
559.502
342.895
116.204
886.183
707.643
514.52
315.01
106.438
5755.54
4261.48
3340.5
2733.31
1857.12
3064.84
2275.97
1676.14
1124.88
424.831
3431.3
2636.88
1983.29
1424.11
537.273
1914
1483.13
1096.44
722.417
287.142
2453.08
1908.07
1379.66
854.799
290.727
2849.7
1982.63
1450.97
950.479
226.545
503.978
404.083
296.497
183.135
61.6496
-101.444
-84.552
-61.4973
-36.242
-11.8788
722.065
577.689
423.872
262.1
87.6452
-38292.6
-58539.7
-29283.9
-49608.2
-30352
-67809.6
-39592.7
-82571.2
-22158
-15436.4
-23867.8
-13447.5
-20338.4
-13775.6
-23730.1
-11899.3
-32446.5
-23427.2
-43831.6
-32300.4
-25807
-19429.1
-37584.3
-28731.2
-19373.6
-20401.4
-13968.9
-14266.7
-17381.5
-17583.8
-54433.6
-16740.4
-18054.8
-8704.76
-62931.1
-20141.9
-16304
-8115.43
-38849
-12787.7
-19988
-9405.28
-33207.7
-10042.8
-16128.7
-6938.16
-21543.7
-8181.72
-14172.8
-6423.35
-19855.7
-7189.12
-14816.8
-7341.59
-12290.7
-4805.37
-16802.3
-6065.07
-6548.34
-2459.67
-14444.3
-11073.2
-11709.3
-9157.1
-12254.5
-10744.6
-10247.3
-9074.91
-11887.6
-9223.46
-14086.3
-11679.1
-8714.41
-6710.74
-5167.21
-3907.86
-7823.79
-6673.82
-4601.85
-3838.42
-8841.91
-6486.66
-5225.77
-3473.89
-10718.4
-5737.44
-9615.31
-10043.2
-14204.9
-10051
-13782.7
-17275
-7488.81
-3201.45
-6165.52
-5968.71
-4273.25
-1557.54
-2927.35
-2335.34
-14576
-18850.3
-8512.48
-21843.8
-14529.5
-18375.2
-9380.26
-22606.3
-16123.1
-17693.8
-11736.3
-22098.4
-9215.4
-5929.67
-11905.7
-13896.2
-14258.4
-7908.01
-11332.1
-16993.8
-19993.5
-28595.4
-7584.91
-8971.11
-10952.4
-14658.8
-22589
-20030.2
-16389.5
-25473.8
-21141
-19367.1
-16691.8
-25470.4
-21279.7
-17678.9
-15685.9
-24032.2
-21076.3
-10793.2
-9943.24
-11683.7
-10541.8
-13580.1
-12332.8
-16053.6
-14435.4
-22864.7
-21034.1
-8645.06
-9358.18
-10335.2
-10550.1
-12385.5
-12632.1
-15441.4
-15811.5
-22306.9
-22297
-10392
-7062.12
-8783.91
-8409.02
-10232.9
-11743.6
-8794.79
-11257.5
-8988.05
-8571.05
-11135.7
-7859.86
-4021.26
-6100.14
-1489.39
-2088.91
-5545.01
-8361.73
-1899.89
-2832.38
-3887.95
-5871.91
-1405.51
-2036.07
-9195.24
-7471.3
-9863.56
-6113.11
-12790.8
-8917
-15358
-10023.1
-4614.53
-4785.75
-5661.76
-3243.79
-3265.66
-3274.92
-3565.63
-2609.81
-11918.6
-4584.21
-13193.7
-4596.51
-12173.4
-4603.68
-13804.9
-5090.73
-11793.6
-4365.88
-14750.2
-5802.77
-5911.3
-1621.27
-7446.86
-2701.17
-8990.37
-3489.71
-10995.9
-4135.6
-14685
-5697.79
-6647.3
-1494.92
-6892.54
-2472.21
-8278.02
-3107.6
-10615.6
-3942.78
-13584.1
-4578.31
-8266.65
-7862.65
-6030.35
-5510.95
-13269
-10601.6
-10648.5
-8374.58
-6393
-5317.49
-2545.01
-1919.99
-6077.44
-5339.65
-2371.7
-2073.9
-3841.15
-6828.45
-4937.03
-8078.99
-5395.1
-3160.04
-4695
-1921.15
-8958.99
-3745.03
3060.54
46.6317
-1279.69
-1086.54
-60.723
47.556
-2702.96
-1179.97
-1134.94
-391.352
-2806.84
-1342.75
-1369.56
-474.622
-3196.99
-1614.39
-1972.25
-610.482
-1965.36
-353.182
-764.97
104.524
-6486.87
-6256.78
-5041.96
-5389.61
-9663.56
-9273.69
-7986.54
-7828.92
-3326.76
-3755.83
-4776.89
-4398.37
-3678.19
-3855.82
-2121.52
-2087.01
-5842.4
-5568.63
-3473.92
-3137.25
-2104.39
-2620.15
-1046.77
-1368.09
-2066.46
-996.684
-2605
-1198.12
-2914.71
-1554.56
-3024.99
-1579.49
-1260.67
-542.69
-1830.5
-667.899
-431.954
-17.3555
-903.732
-133.345
-2777.9
-2404.97
-1760.1
-2334.51
-2915.57
-2613.42
-1845.15
-2395.01
-3491.37
-2800.39
-2086.59
-2371.14
-3378.43
-4232.39
-3414.33
-2759.17
-1714.69
-5965.32
-4585.12
-3721.84
-3546.93
-2601.39
-6240.6
-4475.42
-3320.57
-2501.76
-1312.6
-2802.01
-3208.75
-3616.19
-5882.28
-2808.84
-2880.28
-3384.36
-5443.23
-2971.72
-3302.64
-3126.49
-4851.75
-9100.81
-7780.37
-6718.63
-5690.75
-4139.73
-4244.09
-3426.82
-3783.2
-2704.61
-4347.93
-6162.59
-6880.19
-4191.64
-5020.71
-2941.18
-3733.42
-2398.94
-3202.02
-1455.61
-3341.16
-2975.38
-2890.42
-2065.37
-1160.81
-5880.98
-4884.6
-5128.78
-3256.88
-1053.83
-592.942
-1761.39
-2028.42
-3142.12
-1275.93
-1053.3
-446.927
-4930.99
-2723.02
-1646.95
-997.142
-2052.82
-725.233
-656.059
-196.751
-534.734
-997.47
-754.189
-1825.74
-1129.88
-1903.28
-955.293
-2547.8
-1074.26
-707.658
-419.816
-1230.65
-39.16
186.816
532.838
67.5727
-2639
-917.589
-4162.04
-546.021
-2425.4
-1054.14
-3917.8
-545.928
-2331.75
-772.856
-3169.63
-218.588
-4438.68
-1154.55
-3403.42
-944.06
-3101.76
-989.172
-2316.81
-498.145
-2882.25
-215.29
-4928.03
-942.435
-3812.23
-756.25
-3125.92
-692.841
-2509.58
-338.148
-2973.49
-323.151
-491.884
-171.029
-98.3853
-21.4927
-175.203
-60.7633
-39.9998
-11.8635
-500.206
-166.999
-108.408
-27.8036
-143.933
-43.9985
-48.4252
-18.3694
-571.962
-182.256
-126.715
-29.1879
-131.643
-18.2469
17.3449
35.0125
125.938
87.3762
115.037
77.6444
251.894
155.059
121.716
64.6699
-381.949
-104.596
-27.605
31.462
-340.029
-77.2875
-58.7035
29.6996
-633.041
-195.083
-130.661
-6.9575
-502.722
-136.216
-126.375
24.5413
-132.819
-6.51617
33.5893
44.0666
-148.27
-6.96334
-3.63537
34.5873
98.0383
84.2014
68.728
44.5983
75.8943
71.8702
41.6345
35.1687
-709.878
-240.445
-154.012
-22.8987
-867.459
-263.366
-226.081
-8.92857
-703.441
-232.485
-161.641
-24.1891
-849.346
-254.431
-223.694
-7.29547
-718.598
-227.176
-186.727
-33.1537
-782.346
-229.908
-217.858
-10.8308
-545.506
-154.947
-164.491
-27.5607
-767.531
-213.341
-252.043
-12.6043
-406.002
-106.624
-113.723
20.6173
-792.958
-196.057
-183.204
-2.10131
-336.056
-70.6739
-54.4745
-5.19057
-718.685
-177.213
-175.446
-1.42962
-312.935
-65.5166
-54.3309
-6.02839
-605.794
-142.828
-166.101
-3.17199
-268.978
-53.6053
-52.5056
-6.55553
-497.292
-112.624
-151.554
-7.13209
-235.003
-45.6472
-53.6625
-7.95651
-364.576
-79.8867
-118.796
-4.16109
-151.34
-26.0176
-44.1496
-4.95425
-209.614
-34.0876
-28.2169
25.4616
-5.9186
21.3633
9.35945
16.8178
-314.506
-71.174
-77.808
9.29671
-63.3046
-0.859033
-18.4344
4.57342
-71.96
15.3501
9.53901
32.7276
35.3593
42.6548
29.1966
23.9813
80.974
68.6921
35.1468
30.3769
88.7851
64.9669
35.6112
23.7011
-3.10706
-0.0196679
0.201697
0.121983
0.0711634
-1.07044
0.0590108
0.111059
0.0624673
0.0357914
-0.763374
0.864952
0.54809
0.26662
0.146007
1.91172
1.19611
0.581118
0.263999
0.141143
4.62794
2.85326
1.36991
0.62031
0.331702
12.6993
6.0115
2.66643
1.173
0.619266
15.0907
6.87722
3.00544
1.31061
0.6877
18.6276
7.9637
3.37865
1.44445
0.747281
8.5713
4.39807
1.98479
0.877953
0.463817
8.16545
3.60329
1.57421
0.690039
0.363563
8.20279
4.10265
1.85488
0.823521
0.437247
7.147
3.01242
1.29244
0.56394
0.297466
11.5019
5.58084
2.48749
1.09151
0.573334
12.3294
5.33663
2.29386
0.994752
0.520465
16.7481
7.29683
3.10764
1.33016
0.6885
16.1131
7.05568
3.00258
1.28498
0.665201
-3.44394
-0.1508
0.146311
0.0978293
0.0584285
-1.42675
-0.0812077
0.0516409
0.0365409
0.0221197
-2.1642
0.357145
0.336495
0.174941
0.0979173
-0.984061
0.0600627
0.0997275
0.0550399
0.0314039
0.516555
1.06269
0.583905
0.2751
0.149682
0.549895
0.575252
0.299094
0.138539
0.0749262
6.82757
3.21715
1.46003
0.651973
0.34864
3.01856
1.5303
0.705908
0.316618
0.169877
8.96863
3.72312
1.59333
0.696028
0.368316
-4146.02
-6438.83
-3998.29
-6336.65
-3769.09
-5967.68
-3655.67
-5765.56
-3676.8
-6231.31
-2236.46
-2971.11
-2957.92
-4345.75
-1509.59
-1813.92
-559.934
-697.07
-12675.2
-3110.99
-732.27
-168.222
-44.7278
-3379.3
-921.668
-252.201
-58.459
-13.9338
-12400.7
-3008.52
-704.425
-160.961
-42.669
-3507.84
-1041.6
-262.161
-62.8014
-16.6199
-11643.5
-2789.37
-648.53
-147.556
-39.0357
-3398.34
-1000.74
-249.843
-59.2717
-15.5495
-10554.2
-2491.05
-576.432
-131.215
-34.8633
-3211.75
-924.573
-226.758
-53.0497
-13.7535
-8930.78
-2085.82
-484.098
-111.098
-29.8924
-2884.89
-798.797
-192.423
-44.6205
-11.5063
-4822.97
-1205.08
-290.726
-68.6431
-18.9446
-1454.58
-380.38
-85.8697
-18.4901
-4.46501
-6824.92
-1657
-392.116
-91.2545
-24.9048
-2019.1
-542.718
-128.354
-29.4176
-7.53846
-2996.49
-768.071
-188.179
-44.9337
-12.4993
-932.021
-248.634
-55.3784
-11.3907
-2.61755
-1089.28
-282.973
-70.0401
-16.8907
-4.74084
-424.799
-105.159
-22.4883
-6.14233
-1.00196
-614.332
-3095.37
-8003.53
390.079
-8671.6
-3848.98
-8501.12
-4036.29
-14666.4
-7997.8
-17035.2
-9223.77
-34.5436
-110.417
-173.865
-207.858
-175.37
-22.6312
-59.9276
-190.618
-300.763
-358.941
-309.004
-68.1974
-23.9847
-21.0244
-71.6694
-64.2453
-92.5734
-90.881
-53.3091
-70.6691
-9.45488
-52.9775
-24.6798
-49.9398
421.85
1239.14
2507.06
2015.91
1809.88
749.796
475.58
1361.02
2389.44
2728.68
2349.7
979.716
-30.9005
-25.8573
-19.3824
-11.9695
-4.04346
-98.8224
-82.7485
-62.0747
-38.3596
-12.9636
-155.484
-130.071
-97.4832
-60.1981
-20.3363
-185.692
-155.148
-116.132
-71.645
-24.1908
-156.711
-130.948
-98.0045
-60.4422
-20.4026
-21.8595
-19.6857
-15.5901
-9.91656
-3.3858
-53.5185
-44.6945
-33.4359
-20.6164
-6.95886
-170.29
-142.284
-106.509
-65.7118
-22.1885
-268.34
-223.872
-167.347
-103.141
-34.8092
-319.605
-266.031
-198.437
-122.119
-41.1831
-274.583
-228.035
-169.746
-104.316
-35.1557
-61.5624
-51.974
-39.2086
-24.2828
-8.20798
-21.4894
-18.0163
-13.5312
-8.36901
-2.82958
-18.8541
-15.8246
-11.8988
-7.36624
-2.49182
-64.2336
-53.8754
-40.4833
-25.0499
-8.47162
-57.6098
-48.3506
-36.3553
-22.5071
-7.61384
-82.925
-69.5066
-52.1935
-32.2785
-10.9132
-81.3975
-68.2156
-51.2156
-31.6695
-10.7064
-47.9075
-40.3001
-30.3636
-18.8232
-6.37172
-63.2415
-52.9429
-39.7036
-24.5278
-8.28776
-8.96726
-7.9681
-6.28073
-4.00468
-1.37269
-47.3002
-39.4787
-29.5078
-18.177
-6.13171
-22.8518
-19.7492
-15.1302
-9.42512
-3.1889
-44.6416
-37.2714
-27.8194
-17.0942
-5.75609
367.407
298.752
218.718
133.234
44.7713
1070.71
864.389
630.583
384.289
129.311
2129.81
1695.51
1231.61
754.452
255.388
1692.28
1354.97
992.508
616.566
216.43
1526.34
1218.28
888.625
547.998
186.42
652.501
529.886
389.053
238.449
80.0356
414.415
337.119
246.838
150.336
50.5083
1179.42
954.706
697.306
424.81
142.885
2052.28
1649.03
1200.71
732.608
247.137
2327.06
1862.71
1355.87
830.141
281.832
1996.3
1592.91
1158.68
710.394
240.996
837.454
672.253
491.819
302.772
102.85
45.1328
123.092
190.563
230.621
206.958
70.48
76.575
209.836
323.896
385.104
335.237
92.0747
31.0991
26.3441
80.1191
71.0297
102.695
99.7016
63.3039
79.1575
25.8592
50.4183
80.3209
69.9605
-354.99
-1144.43
-2344.17
-1827.97
-1620.67
-564.599
-453.445
-1329.42
-2323.82
-2622.75
-2206.75
-814.577
40.4879
34.0012
25.5852
15.8507
5.36436
110.297
92.4973
69.5011
43.0071
14.5454
170.603
142.916
107.27
66.324
22.4216
206.297
172.649
129.462
79.9873
27.0303
185.27
155.173
116.433
71.9646
24.3226
64.9923
56.1445
43.2272
27.1495
9.23973
68.5977
57.5115
43.2046
26.7325
9.04098
187.705
157.094
117.803
72.7865
24.5976
289.318
241.728
180.976
111.685
37.72
343.345
286.255
213.888
131.813
44.4873
298.381
248.305
185.231
114.032
38.4673
83.1224
70.2375
53.0826
32.9477
11.1537
27.9279
23.483
17.6928
10.9719
3.7152
23.6677
19.9108
15.0089
9.31121
3.15355
71.8807
60.3684
45.4264
28.1418
9.52372
63.7493
53.5628
40.3229
24.9886
8.45814
92.0836
77.2812
58.1112
35.9797
12.1725
89.3805
74.9942
56.3769
34.8984
11.8053
56.9399
47.956
36.1826
22.4586
7.608
70.9232
59.4654
44.6703
27.6356
9.34555
23.7784
20.5105
15.807
9.95464
3.39603
45.2091
37.9338
28.5108
17.6427
5.96669
72.9505
62.0376
47.1502
29.379
9.96614
62.8099
52.7566
39.6646
24.5379
8.29623
-307.399
-248.311
-180.701
-109.636
-36.774
-986.021
-793.505
-577.414
-351.443
-118.21
-1983.52
-1572.29
-1138.59
-696.758
-235.829
-1517.55
-1202.36
-872.808
-539.769
-190.317
-1345.33
-1056.15
-757.948
-461.508
-155.819
-472.444
-365.821
-254.476
-147.815
-47.6198
-394.724
-320.74
-234.637
-142.844
-47.9862
-1151.59
-931.84
-680.509
-414.635
-139.49
-1993.57
-1599.83
-1163.79
-709.834
-239.458
-2229.73
-1778.63
-1290.69
-788.752
-267.69
-1862.48
-1475.01
-1065.36
-649.926
-219.966
-681.299
-533.193
-380.529
-229.91
-77.3341
-2376.24
-1630.49
38.4902
386.534
426.217
613.649
286.435
-11113.7
-2612.06
-3684.79
-1625.73
100.106
-3545.68
365.854
1452.63
333.629
-5559.79
-2624.85
-1193.54
-712.634
-2818.41
-1201.19
-281.772
-392.961
798.304
617.878
-705.31
-648.754
-8731.29
-3841.63
-4042.39
-2135.48
-2656.01
-2840.34
-177.402
572.736
-376.076
-1389.75
-1060.01
-801.158
-668.085
-479.948
-1160.61
-825.69
-593.539
-398.384
-146.23
43.142
43.2899
36.2362
23.4118
8.02447
342.687
283.93
211.121
129.776
43.7492
379.5
315.822
235.425
144.779
48.8218
544.905
452.167
336.34
206.618
69.6374
257.639
216.794
163.05
100.847
34.1602
-7480.75
-6277.25
-4831.15
-4022.08
-3397.12
-1858.5
-1178.1
-932.32
-724.815
-273.233
-2728.07
-1942.09
-1434.31
-1011.82
-418.471
-1112.23
-741.42
-584.299
-426.643
-135.742
92.7195
79.758
60.2911
37.0074
13.0283
-2829.45
-2145.16
-1551.69
-991.913
-352.793
324.721
268.184
197.252
119.591
39.8876
1222.97
963.754
696.291
427.376
146.475
299.522
249.942
184.915
112.084
37.201
-3380.14
-2973.11
-2297.62
-2010.61
-1819.51
-1942.63
-1339.05
-975.241
-670.641
-240.579
-972.61
-742.914
-530.522
-328.635
-111.933
-577.896
-437.764
-310.487
-191.445
-65.2294
-2284.9
-1740.46
-1249.68
-782.434
-272.148
-1002.29
-768.733
-543.413
-325.957
-102.999
-224.107
-165.461
-115.096
-70.2036
-23.4188
-324.539
-248.106
-173.881
-103.982
-34.2605
699.417
572.294
421.127
257.386
86.7431
549.505
456.527
339.48
208.305
70.2209
-587.188
-456.698
-326.545
-199.343
-67.6081
-539.421
-418.01
-297.377
-180.523
-60.8266
-5351.62
-3916.43
-3075.87
-2583.04
-1846.98
-2815.12
-2055.3
-1501.3
-1012.32
-386.654
-2895.44
-2175.78
-1614.48
-1184.33
-445.687
-1581.33
-1193.23
-869.584
-577.644
-239.484
-2178.76
-1675.83
-1202.99
-744.155
-252.544
-2202.56
-1419.65
-1016.99
-674.926
-123.361
-132.727
-89.0415
-56.5178
-32.6502
-10.2482
512.392
428.278
319.848
196.628
66.3123
-299.191
-217.384
-148.133
-88.1609
-27.8333
-66.6084
-166.69
-246.932
-346.763
-502.002
-685.291
-27602.5
-22958
-21012.3
-25019.2
-19747.5
-15538.4
-17654.7
-13640.3
-25263.8
-20444.3
-21546.4
-18518.8
-18741.4
-14756.2
-17717.1
-23569.3
-20788.9
-18064.3
-20446.8
-17719.7
-13925.8
-15368.6
-11632.9
-23381.1
-19966.7
-21191.3
-18720.6
-18368.3
-15350
-17928.7
-18583.1
-17087.5
-14663.9
-15958.3
-14935.9
-12453.3
-12991.4
-11019
-19280.4
-18003.9
-18300.5
-17453.1
-16651.7
-14421.1
-16771.7
-12922.8
-12398.4
-10559.4
-11027
-11473.2
-10716.1
-9955.11
-9650.7
-14069.6
-15567.6
-13655.9
-15093
-13074.1
-11988
-14514.3
-8326
-8179.62
-6840.6
-6993.91
-8007.07
-8054.94
-6661.7
-6717.04
-9715.46
-11905.8
-9569.1
-11287.1
-9518.66
-9302.41
-10918.8
-3029.69
-3002.53
-2471.79
-2510.45
-3003.25
-3141.61
-2410.34
-2377.02
-3877.49
-4980.47
-3809.83
-4495.66
-3851.28
-3864.6
-4343.22
-9797.08
-9691.79
-14195.9
-15669.9
-9577.46
-8895.12
-13118.5
-10894.8
-8176.11
-4817.34
-8216.57
-4768.26
-8160.6
-8248.4
-4864.8
-9386.96
-9049.27
-13170.1
-14279.2
-8593.99
-7374.5
-11879.6
-9590.25
-6057.65
-2023.15
-5892.05
-2221.39
-4949.66
-4718.03
-2520.77
-7988.3
-7706.31
-11169.8
-11860.2
-7480.01
-6605.77
-10299.6
-8954.59
-3583.45
-1855.81
-3422.87
-2352.84
-3125.34
-3318.37
-2888.32
-5968.1
-5840.31
-8277.09
-8562.6
-5763.16
-5389.51
-7951.93
-7532.54
-3511.25
-1800.39
-3564.86
-2485.31
-3591.61
-4001.21
-3127.23
-3828.46
-3754.3
-5349.05
-5464.24
-3595.66
-3424.92
-5203.95
-4992.83
-2223.36
-1468.63
-2299.23
-2010.52
-2550.45
-2918.36
-2453.26
-1344.9
-1321.94
-1917.41
-1950.84
-1289.37
-1282.19
-1864
-1774.36
-634.517
-660.074
-729.361
-912.905
-935.969
-1113.23
-1038.96
8929.27
26747.8
6892.95
29718.9
3732.56
31145.3
6215.21
48436.9
10086.6
60594.3
10455.9
43553.8
11239.1
38959.4
11004.7
32936.4
5141.27
2988.91
15707
7706.12
4766.89
2254.17
16592.6
6743.6
6963.16
5365.47
20328.5
15427.6
4711.42
3924.53
20813.2
16355.5
10727.6
3974.42
8450.01
3275.39
3996.43
10297.6
48279
14584.5
14645
6426.36
57520.5
17751
13235.5
5791.48
32759.7
10831.5
16749.8
7441.24
27344.1
8615.79
8004.69
4270.75
11926
4962.26
7515.36
4547.72
12711.1
4973.84
9682.04
6101.91
8170.04
3599.6
13613.8
5050.78
5265.84
1992.54
17242.5
13502.9
10007.9
9273.41
17511.9
15481.7
9250.7
9877.83
9914.02
8972.25
14032.5
12441.8
7084.09
6237.86
3752.91
3231.47
6542.42
6521.74
3342.94
3349.11
7174.83
5921.61
3882.7
2798.9
8892.92
5115.63
9328.83
10006.4
12679.7
9598.23
13973.4
17653.7
6111.78
2721.06
5720.79
5809.31
3232.82
1183.33
2427.15
2149.11
10275.1
19816.1
7140.93
22223.2
11134.3
19755
8481.85
23298.7
13993.3
19089.6
11456
23205
13258.7
13760.3
12018.4
12452.8
14163
9076.08
11705.3
17194.9
20897.1
29967.3
12469.9
11674.4
12204.1
15491.5
23495.5
24650.4
23866.7
28772.1
29122.2
23665.8
23635.6
28491
28557.4
21273.6
22037.5
26850.1
27265.2
11296.3
11993.7
12810.9
13630.9
16058.7
16660.9
19600.3
19610.6
25481.9
26155.5
10111.7
11365.4
12568.5
14337.3
15038.6
17321.4
18161
20911.5
24406.6
27527.1
12033.8
8198.24
9522.25
9093.82
12455.6
13203
9968.74
12311.4
9397.8
9051.14
12243.1
8845.28
4215.95
6408.13
1434.27
2185.34
6025.46
8896.41
2030.03
3084.93
3928.14
6042.19
1265.56
2045.98
9433.8
7833.46
10065.1
6427.83
13583.9
9831.89
15973.9
10959.2
4614.17
4883.8
5686.34
3326.16
3145.31
3252.69
3508.04
2597.69
20981.7
13941.7
4678.96
22720
14448.5
5021.45
20406
13530.6
4726.56
22398.8
14324.3
4914.57
19090.4
12490.7
4211.49
21595.1
13926.2
4811.97
9019.98
5491.19
1627.89
11996.3
8213.09
2701.59
14753.2
10257
3477.56
17019.6
11255.5
3749.2
20480.8
13166.3
4637.67
9429.25
5457.31
1890.26
11145.8
7430.59
2690.98
13412.9
9005.39
3199.93
16142.3
10478.4
3664.91
19499.8
11714.5
4132.04
-597.675
904.026
194.516
2512.2
2038.39
1966.96
5183.12
4436.58
584.089
865.466
616.371
902.632
290.118
810.429
548.609
1195.91
1451.6
978.674
3460.29
2556.33
1483.81
2248.83
2785.76
93.0021
6539.1
1540.46
-5162.78
-1763.3
76.3934
-167.783
-846.069
-968.698
9201.79
3527.8
2389.91
1242.21
9040.91
3514.66
2549.4
1413.05
8595.22
3692.56
3142.34
1855.37
2238.34
1146.07
674.302
585.233
13492.8
11610.2
5648.56
7239.82
16578.5
15335.8
7885.67
9371.46
4584.93
5566.96
10445.8
8359.12
3305.67
4481.39
1493.28
2242.67
5013.78
5854.68
2478.18
2965.13
2263.29
3451.95
864.423
1796.04
3677.47
2148.92
4128.03
2220.03
6781.87
3267.97
5716.86
2997.67
1864.35
1293.49
2694.4
1400.4
666.258
590.215
1480.08
725.199
10352.2
5941.98
4382.4
3946.74
10272.5
5993.3
4247.8
3831.22
10404.8
5922.5
4217.01
3555.1
13517.4
14400
11458.4
7949.91
3706.25
8662.07
9302.87
8815.33
7360.8
4104.24
12459.7
10034.2
7457.16
5303.46
2735.66
4185.24
3442.29
3678.74
3708.49
4321.36
3529.25
3634.73
3710.85
4407.67
3682.12
3531.88
3671.08
9656.73
9136.02
7925.83
6664.82
5197.51
4897.46
4259.42
4021.92
3132.64
3583.07
7288.33
8174.84
5488.28
6054.13
4215.24
4581.76
3405.97
3746.3
2322.23
3345.4
5005.24
3988.31
3384.28
2096.42
8224.17
6112.29
6516.43
4259.98
2196.42
1406.87
3328.64
2925.77
3921.12
1856.83
1507.46
818.16
5648.66
3318.74
1972.59
1343.15
2800.82
1243.02
1171.69
558.194
1401.83
1580.12
1330.99
2114.48
2235.15
2503.03
1590.87
2715.96
1707.05
1117.7
939.9
1519.71
552.731
146.496
-75.9692
206.611
2516.89
1171.31
340.001
2400.55
675.142
183.954
2642.56
1322.93
414.534
2460.18
728.24
208.626
2733.48
1417.45
396.848
2454.81
739.186
190.904
6364.24
3688.31
1074.17
4540.76
2614.74
786.855
3651.69
2001.17
614.628
2901.62
1496.23
410.595
2453.99
724.593
170.327
6789.73
3732.03
1236.88
5071.32
2814.47
946.367
3871.15
2101.61
697.499
3026.99
1414.97
430.386
2688.37
786.217
258.469
1154.44
375.096
165.717
48.7547
459.85
154.478
71.7577
23.3596
1163.31
388.494
187.71
62.7967
520.02
187.88
105.601
43.0254
1281.3
442.7
231.406
85.1064
783.074
315.994
135.419
51.4909
446.128
218.237
50.5628
9.65887
366.089
202.647
69.3986
26.1802
948.638
364.038
157.636
39.9922
869.329
325.291
174.98
34.6458
1282.17
454.311
244.628
78.2671
1099.84
385.291
228.156
38.7999
621.913
264.398
102.422
27.5163
602.561
244.885
126.55
33.1962
358.221
177.706
77.3454
32.9973
336.338
159.399
84.406
35.677
1445.79
465.269
218.874
54.4757
1419.89
450.06
257.831
39.3538
1415.22
461.54
229.916
59.0391
1352.8
429.724
253.666
37.3312
1392.14
460.658
257.275
71.1678
1208.77
384.407
245.57
40.8847
1250.77
420.257
259.377
89.9267
1311.37
417.919
300.383
56.5392
937.254
315.121
199.043
50.3834
1091.48
323.382
198.073
24.7921
410.916
113.594
62.2229
12.6025
1077.14
322.086
196.401
25.4487
419.51
117.523
65.1741
14.8033
1023.36
308.236
194.689
27.1562
411.341
116.887
67.9627
17.4439
869.992
260.205
181.651
30.6761
367.857
102.681
70.035
20.6094
759.965
234.219
164.804
36.1375
338.204
99.7628
70.7144
23.3
533.752
189.473
101.256
22.3382
277
108.096
49.8109
19.2275
607.304
195.621
128.364
28.6259
299.463
101.031
60.8457
22.671
416.615
168.525
81.0632
21.6948
236.119
104.354
41.7185
18.16
259.841
126.751
63.1738
27.2446
173.636