/*--------------------------------*- C++ -*----------------------------------*\
| =========                 |                                                 |
| \\      /  F ield         | OpenFOAM: The Open Source CFD Toolbox           |
|  \\    /   O peration     | Version:  2412                                  |
|   \\  /    A nd           | Website:  www.openfoam.com                      |
|    \\/     M anipulation  |                                                 |
\*---------------------------------------------------------------------------*/
FoamFile
{
    version     2.0;
    format      ascii;
    arch        "LSB;label=32;scalar=64";
    class       volScalarField;
    location    "0.8";
    object      T;
}
// * * * * * * * * * * * * * * * * * * * * * * * * * * * * * * * * * * * * * //

dimensions      [0 0 0 1 0 0 0];

internalField   nonuniform List<scalar> 
5712
(
533.117
553.308
517.864
541.938
497.849
525.346
467.806
497.228
472.265
501.889
500.256
529.747
513.305
540.422
525.674
549.254
486.659
466.3
507.612
476.917
457.624
436.444
476.881
445.186
541.908
549.246
558.079
561.81
529.876
539.478
548.991
554.823
528.633
512.475
497.394
487.784
528.441
542.31
531.49
538.11
486.725
495.166
504.48
511.104
454.547
461.532
544.592
550.693
509.015
520.49
556.962
564.071
554.15
564.9
564.746
569.714
545.051
561.373
558.438
567.358
532.72
555.355
545.485
562.168
554.131
565.281
559.243
567.165
448.232
430.227
458.244
435.355
412.846
397.438
422.36
402.65
489.031
466.192
479.526
460.492
464.806
438.585
468.326
440.024
428.765
405.902
432.083
407.317
495.642
469.784
499.175
471.378
519.406
553.452
499.016
539.164
510.444
547.571
492.302
533.597
525.248
556.279
502.847
542.243
528.18
557.417
504.451
543.987
546.097
529.435
559.927
547.647
535.618
518.922
555.383
541.66
520.687
503.785
547.496
532.251
427.461
387.884
465.31
497.407
536.277
386.133
424.266
458.179
487.531
522.584
385.507
421.38
452.976
482.833
522.538
496.861
466.628
502.038
472.993
490.792
460.909
500.059
470.717
481.103
452.813
496.507
467.466
377.548
361.369
414.152
395.631
444.661
421.799
469.245
443.187
493.502
464.943
376.465
359.199
410.149
391.502
439.341
417.789
466.086
441.151
492.684
463.921
411.45
398.207
412.44
400.153
377.082
355.182
377.343
354.088
443.996
433.696
442.147
429.818
413.067
400.661
414.073
401.895
378.264
354.148
379.488
355.822
444.752
434.552
445.955
435.948
474.38
464.042
501.991
492.068
471.445
458.623
498.905
485.386
475.115
464.944
503.201
494.201
475.893
465.928
503.547
494.133
431.486
401.994
385.722
435.065
404.302
387.74
427.212
397.454
381.242
432.911
401.25
384.216
418.86
388.832
372.529
429.501
396.313
378.658
340.508
324.366
315.904
370.785
347.766
335.378
393.369
365.798
350.628
410.343
380.298
364.036
425.434
390.773
372.213
337.622
321.315
312.484
368.135
346.271
334.363
389.892
363.32
348.768
407.019
375.903
359.075
420.571
385.705
367.248
390.58
375.938
394.733
380.284
422.068
403.558
431.838
410.508
361.034
340.606
362.243
342.358
362.078
341.173
363.745
343.375
361.555
358.627
360.669
354.505
340.185
343.786
382.874
385.337
415.266
419.191
362.587
364.162
362.756
363.798
345.483
346.15
319.67
301.564
324.538
304.133
321.069
301.274
325.75
304.101
321.961
300.775
327.659
304.383
329.913
305.723
331.013
306.55
353.234
340.81
360.4
345.645
379.771
365.156
388.748
370.715
339.685
326.561
332.963
322.484
364.177
348.345
366.081
349.497
393.891
373.891
396.512
375.182
342.774
328.839
344.114
329.848
322.589
302.042
312.145
297.936
317.134
299.178
309.133
296.126
325.422
303.817
313.947
299.055
326.72
304.861
314.86
299.63
303.955
295.182
296.248
291.17
305.006
296.57
296.041
291.334
306.328
299.476
295.74
292.003
332.705
354.418
317.663
307.795
295.175
352.265
329.298
312.336
302.465
292.402
352.53
331.002
315.641
304.871
293.955
289.198
284.505
286.69
282.614
290.987
286.02
287.359
283.328
294.126
289.031
288.515
284.566
344.753
331.2
322.501
311.923
307.716
300.685
298.417
292.856
290.007
286.195
344.517
330.573
324.455
313.82
310.382
302.566
300.481
294.32
291.865
287.968
327.509
314.656
328.861
314.73
346.534
329.458
348.182
328.555
314.305
304.279
313.114
303.812
329.933
314.794
331.021
315.941
349.968
327.823
351.349
329.19
315.139
304.665
315.942
305.496
302.658
295.855
293.741
288.756
302.306
295.165
293.184
288.505
302.858
296.486
294.004
288.884
303.853
296.966
294.318
289.541
279.55
276.804
275.698
276.653
274.897
274.289
281.041
277.902
276.557
277.243
275.331
274.607
283.54
279.786
278.186
278.199
275.978
275.137
316.151
305.16
299.67
301.739
294.217
290.599
292.899
287.33
284.793
286.401
281.996
280.045
279.182
276.712
275.68
314.867
303.498
297.785
302.399
293.965
289.764
293.785
287.466
284.417
286.857
282.371
280.393
279.897
277.272
276.002
287.899
280.559
276.977
275.017
288.867
280.882
277.115
275.056
287.758
280.536
276.993
275.041
288.915
280.935
277.186
275.101
287.488
280.477
277.024
275.078
288.949
281.001
277.271
275.154
289.491
281.254
277.324
275.164
289.919
281.481
277.368
275.171
288.164
280.776
277.177
275.149
286.795
280.331
276.912
275.104
287.022
280.349
277
275.111
286.068
280.046
276.794
275.083
288.925
281.092
277.268
275.162
287.332
280.563
276.988
275.12
289.416
281.322
277.343
275.188
287.704
280.743
277.064
275.155
286.281
280.041
276.771
274.972
284.472
279.455
276.502
274.922
286.146
280.009
276.77
274.986
284.476
279.465
276.503
274.936
285.933
279.955
276.766
275.01
284.628
279.53
276.53
274.961
285.621
279.867
276.735
275.037
284.711
279.57
276.556
275.003
285.303
279.776
276.664
275.059
282.942
278.982
276.18
274.894
282.13
278.759
276.032
274.854
283.16
279.058
276.217
274.913
282.375
278.844
276.068
274.873
283.528
279.19
276.273
274.944
282.799
278.993
276.124
274.903
284.004
279.353
276.363
274.992
283.367
279.189
276.209
274.945
284.649
279.571
276.471
275.04
283.976
279.398
276.292
274.984
285.528
279.953
276.577
275.091
284.822
279.785
276.43
275.053
285.148
279.768
276.528
275.069
284.491
279.609
276.367
275.022
285.808
280.113
276.607
275.107
285.081
279.941
276.47
275.076
286.071
280.265
276.663
275.136
285.346
280.088
276.524
275.105
273.971
273.481
273.231
273.112
273.065
273.978
273.483
273.232
273.112
273.065
273.978
273.484
273.232
273.112
273.065
273.987
273.487
273.233
273.112
273.065
273.984
273.487
273.234
273.113
273.065
274
273.493
273.235
273.113
273.066
274.022
273.502
273.239
273.115
273.066
274.04
273.51
273.242
273.116
273.067
274.006
273.496
273.237
273.114
273.066
274.003
273.495
273.237
273.114
273.066
273.992
273.491
273.235
273.113
273.065
273.995
273.492
273.236
273.114
273.066
274.02
273.501
273.239
273.115
273.066
274.016
273.501
273.239
273.115
273.066
274.039
273.51
273.243
273.116
273.067
274.034
273.509
273.242
273.116
273.067
273.961
273.479
273.231
273.112
273.065
273.955
273.478
273.23
273.111
273.065
273.967
273.481
273.231
273.112
273.065
273.96
273.48
273.231
273.112
273.065
273.973
273.484
273.233
273.112
273.065
273.968
273.483
273.232
273.112
273.065
273.982
273.488
273.234
273.113
273.065
273.977
273.486
273.233
273.113
273.065
273.989
273.49
273.235
273.113
273.065
515.102
507.303
514.735
507.021
514.013
506.496
513.315
505.729
513.451
505.595
518.009
514.094
515.847
510.598
519.24
515.666
519.98
516.419
560.589
570.208
572.351
572.85
572.96
550.234
567.371
571.692
572.705
572.924
560.914
570.325
572.383
572.858
572.962
550.433
567.489
571.729
572.715
572.927
561.173
570.438
572.415
572.866
572.964
550.624
567.618
571.769
572.726
572.93
561.552
570.573
572.449
572.874
572.966
550.849
567.735
571.801
572.732
572.931
561.973
570.666
572.466
572.876
572.966
551.189
567.801
571.805
572.73
572.929
560.87
570.136
572.298
572.828
572.951
551.555
567.439
571.636
572.674
572.909
561.258
570.365
572.376
572.852
572.958
551.297
567.604
571.722
572.704
572.92
560.624
569.987
572.244
572.811
572.945
551.741
567.357
571.585
572.655
572.902
560.885
570.034
572.248
572.81
572.944
552.023
567.396
571.58
572.65
572.899
397.416
440.527
437.592
395.587
376.371
378.345
384.12
387.557
397.942
401.62
426.877
435.24
432.076
440.132
407.298
410.326
397.211
399.977
387.893
390.097
332.392
315.585
280.923
278.282
279.452
278.222
280.266
328.145
319.054
305.624
306.778
300.223
289.403
295.922
290.904
285.873
287.267
284.711
324.991
301.382
288.532
287.623
292.368
289.96
285.462
284.752
282.369
281.368
284.8
284.378
326.875
307.768
312.775
298.74
293.446
302.505
285.607
281.521
287.133
318.634
307.104
298.156
289.695
279.371
307.43
299.636
292.405
285.272
277.301
279.992
278.764
277.264
275.611
273.878
277.688
276.889
275.892
274.776
273.598
278.719
277.736
276.515
275.155
273.725
277.638
276.849
275.863
274.759
273.592
279.426
278.307
276.932
275.408
273.81
315.743
304.181
295.419
287.477
278.628
307.931
298.256
290.808
284.088
276.929
299.555
293.361
287.504
281.882
276.056
298.788
291.656
285.987
280.879
275.784
293.999
288.175
283.505
279.303
275.166
287.009
284.177
281.069
277.878
274.637
292.01
287.785
283.526
279.351
275.146
288.027
284.792
281.412
278.05
274.692
284.154
282.018
279.564
276.978
274.333
285.247
282.811
280.093
277.283
274.434
283.191
281.273
279.037
276.661
274.227
313.905
303.241
294.961
287.231
278.464
296.681
291.524
286.332
281.168
275.783
286.391
283.779
280.833
277.754
274.597
285.67
283.249
280.476
277.547
274.528
289.551
286.22
282.584
278.834
274.967
287.653
284.817
281.612
278.242
274.761
283.887
281.879
279.518
276.977
274.336
283.28
281.393
279.161
276.756
274.262
281.238
279.76
277.977
276.035
274.019
280.38
279.077
277.488
275.743
273.922
283.292
281.377
279.13
276.727
274.251
282.952
281.124
278.961
276.631
274.219
314.974
304.312
295.999
288.101
278.752
301.674
295.41
289.292
283.166
276.523
305.925
297.879
290.966
284.197
276.624
294.854
290.344
285.593
280.716
275.595
290.558
287.072
283.233
279.238
275.092
297.753
292.337
286.941
281.541
275.836
284.008
281.972
279.581
277.012
274.348
280.51
279.179
277.563
275.79
273.938
285.28
282.96
280.279
277.431
274.488
483.204
535.464
473.608
523.118
446.342
499.706
454.991
513.18
462.632
449.346
498.578
468.859
435.106
420.783
468.466
437.573
504.13
522.162
545.48
552.784
496.785
514.878
537.334
546.296
519.242
489.426
489.751
471.813
509.132
534.474
528.308
537.368
482.839
494.117
501.05
510.144
450.68
460.369
541.604
550.069
505.614
519.63
554.793
563.718
538.981
559.818
559.415
567.937
530.503
556.73
553.011
565.601
520.909
551.694
539.949
560.365
552.034
564.532
558.807
566.996
441.315
428.107
453.594
433.479
407.782
396.974
418.528
401.512
484.432
464.22
472.32
457.833
462.326
437.397
467.604
439.609
426.572
405.028
431.417
406.992
493.284
468.605
498.495
470.975
515.713
552.176
497.516
538.632
504.289
545.473
490.132
532.927
523.422
555.631
501.975
541.921
527.666
557.229
504.156
543.879
522.684
504.177
552.308
539.429
513.888
496.165
548.847
534.89
503.674
487.131
542.723
527.932
427.981
395.988
459.769
489.881
533.806
395.728
425.079
451.713
478.872
520.256
392.052
422.167
450.517
480.095
521.988
475.605
453.067
495.182
473.935
471.501
448.865
494.975
472.816
466.875
445.035
494.152
471.344
386.459
372.723
415.016
399.495
439.737
421.226
463.352
442.763
493.17
469.925
383.133
367.558
412.333
397.413
439.068
422.518
465.696
446.097
493.711
469.501
412.33
400.789
412.595
401.158
379.981
359.64
378.475
356.205
443.692
434.157
442.002
431.467
412.958
400.947
413.998
401.938
378.55
354.874
379.523
355.991
444.464
434.598
445.835
435.924
474.106
464.304
501.98
492.377
471.254
460.03
499.239
486.831
474.875
464.9
503.102
494.196
475.787
465.882
503.501
494.106
436.21
427.37
454.978
446.108
431.753
421.971
453.117
442.322
427.476
416.877
450.091
436.293
359.125
351.274
385.198
375.164
405.825
394.135
424.801
412.123
445.894
428.975
350.591
343.715
382.805
373.361
405.572
393.643
424.408
409.369
439.916
422.57
374.487
366.439
385.465
374.911
403.276
391.024
423.319
403.886
354.503
336.38
359.94
340.32
352.988
336.664
359.164
340.972
357.01
350.322
357.301
349.165
336.735
341.622
379.826
384.361
411.616
418.011
359.95
363.27
360.682
363.077
344.068
345.641
323.336
306.458
325.582
307.268
324.229
305.833
326.39
306.783
324.782
304.837
327.98
306.453
329.787
306.841
330.914
306.903
353.206
344.223
359.015
346.698
377.312
366.944
386.074
370.72
339.826
328.387
335.416
326.735
363.095
348.584
365.715
349.525
392.168
373.559
395.96
375.023
342.479
329.556
343.974
330.04
324.03
304.036
314.269
299.887
321.24
302.796
313.351
299.433
325.856
304.809
314.924
300.07
326.804
305.154
315.153
299.947
319.66
316.736
304.642
302.258
320.219
317.305
303.851
301.524
320.045
317.285
302.677
300.527
346.226
367.72
329.869
317.756
301.02
368.225
346.439
328.929
316.072
299.673
363.51
342.065
325.236
312.57
298.909
313.72
309.568
299.057
293.866
314.401
310.382
298.601
293.689
314.338
310.125
297.886
293.305
360.243
348.927
340.384
331.895
325.197
319.676
313.032
308.26
297.657
293.516
355.257
341.783
336.026
325.792
320.778
313.252
308.856
302.755
297.267
293.521
333.028
320.449
331.377
317.496
351.413
335.154
350.275
331.282
316.91
306.842
318.447
309.04
330.91
315.864
331.27
316.218
350.674
328.829
351.505
329.442
316.241
305.701
316.245
305.777
304.988
297.977
295.665
290.367
306.891
299.37
296.563
291.5
303.939
297.413
294.959
289.624
304.186
297.238
294.587
289.745
305.612
303.843
284.995
283.759
307.281
305.041
285.273
283.932
306.1
302.914
285.414
283.757
338.363
332.066
324.223
319.618
313.66
309.974
302.899
299.495
285.5
283.413
328.634
323.619
315.846
311.813
305.322
302.115
295.619
293.464
284.521
282.784
290.824
281.994
277.673
275.34
291.209
282.127
277.751
275.359
290.494
281.885
277.65
275.343
290.951
282.034
277.756
275.374
289.927
281.689
277.623
275.358
290.561
281.886
277.74
275.378
290.472
281.818
277.622
275.301
290.254
281.679
277.475
275.222
289.518
281.506
277.563
275.339
288.039
280.993
277.257
275.287
289.083
281.381
277.518
275.359
287.965
280.996
277.257
275.312
289.698
281.532
277.512
275.29
288.033
280.954
277.202
275.241
289.669
281.47
277.425
275.231
287.931
280.873
277.136
275.196
290.109
281.745
277.548
275.322
289.133
281.421
277.338
275.3
289.771
281.64
277.515
275.323
288.863
281.346
277.305
275.3
289.234
281.465
277.462
275.328
288.459
281.224
277.265
275.303
288.467
281.195
277.353
275.329
288.067
281.088
277.221
275.316
287.818
280.969
277.213
275.323
288.086
281.129
277.029
275.31
287.387
280.981
276.895
275.293
287.941
281.089
277.031
275.315
287.257
280.941
276.893
275.294
287.687
281.011
277.018
275.316
287.044
280.868
276.876
275.293
287.492
280.923
277.027
275.327
286.903
280.789
276.872
275.294
287.316
280.823
277.031
275.332
286.751
280.696
276.854
275.289
286.772
280.619
276.902
275.274
286.046
280.452
276.747
275.234
287.073
280.731
276.978
275.311
286.421
280.583
276.809
275.269
286.492
280.502
276.803
275.222
285.739
280.325
276.657
275.186
286.286
280.391
276.728
275.175
285.549
280.211
276.585
275.142
274.105
273.539
273.255
273.122
273.07
274.106
273.539
273.255
273.122
273.07
274.102
273.537
273.254
273.121
273.07
274.102
273.536
273.254
273.121
273.07
274.096
273.535
273.253
273.121
273.069
274.092
273.532
273.252
273.12
273.069
274.079
273.526
273.249
273.119
273.069
274.062
273.519
273.247
273.118
273.068
274.085
273.53
273.251
273.12
273.069
274.081
273.529
273.251
273.12
273.069
274.09
273.533
273.252
273.121
273.069
274.085
273.531
273.252
273.12
273.069
274.076
273.526
273.249
273.119
273.069
274.071
273.525
273.249
273.119
273.069
274.058
273.518
273.246
273.118
273.068
274.053
273.518
273.246
273.118
273.068
274.102
273.539
273.255
273.122
273.07
274.099
273.539
273.255
273.122
273.07
274.1
273.538
273.255
273.122
273.07
274.098
273.538
273.255
273.122
273.07
274.096
273.536
273.254
273.121
273.07
274.096
273.536
273.254
273.121
273.07
274.092
273.534
273.253
273.121
273.069
274.094
273.535
273.253
273.121
273.069
274.088
273.532
273.252
273.121
273.069
512.932
506.885
513.242
507.185
513.563
507.534
513.719
507.449
514.278
507.547
518.184
514.359
516.349
511.494
519.259
515.695
519.973
516.41
560.381
570.181
572.346
572.849
572.96
550.057
567.328
571.682
572.702
572.923
560.789
570.309
572.379
572.857
572.962
550.391
567.468
571.721
572.713
572.926
561.173
570.439
572.414
572.866
572.964
550.783
567.629
571.767
572.725
572.929
561.654
570.587
572.45
572.874
572.966
551.168
567.773
571.803
572.732
572.93
562.111
570.685
572.467
572.876
572.966
551.548
567.848
571.809
572.73
572.929
560.919
570.144
572.299
572.828
572.951
551.65
567.458
571.639
572.674
572.909
561.363
570.382
572.378
572.852
572.958
551.532
567.642
571.726
572.704
572.92
560.637
569.99
572.244
572.811
572.945
551.763
567.362
571.585
572.655
572.902
560.886
570.034
572.248
572.81
572.944
552.024
567.397
571.58
572.65
572.899
396.011
439.033
432.924
390.932
379.426
387.728
377.373
387.434
409.372
430.357
413.711
433.632
273.408
273.54
273.84
274.377
275.237
276.538
273.512
273.658
273.987
274.557
275.452
276.79
273.33
273.293
273.45
273.405
273.733
273.676
274.266
274.208
275.145
275.125
276.498
276.566
278.41
281.209
285.58
292.488
298.89
303.728
278.725
281.466
285.206
289.799
294.037
296.792
273.367
273.309
273.233
273.145
273.049
273.485
273.408
273.307
273.191
273.065
273.754
273.633
273.476
273.295
273.1
274.233
274.033
273.775
273.479
273.162
274.999
274.67
274.25
273.772
273.261
276.151
275.624
274.959
274.206
273.407
273.46
273.387
273.292
273.181
273.061
273.591
273.496
273.374
273.232
273.078
273.885
273.742
273.557
273.345
273.117
274.392
274.165
273.873
273.539
273.182
275.187
274.825
274.365
273.841
273.284
276.371
275.803
275.089
274.285
273.433
273.297
273.25
273.189
273.117
273.04
273.263
273.222
273.168
273.104
273.035
273.404
273.341
273.257
273.159
273.054
273.365
273.307
273.232
273.144
273.049
273.658
273.553
273.417
273.258
273.087
273.608
273.511
273.385
273.239
273.081
274.135
273.951
273.715
273.442
273.15
274.083
273.909
273.683
273.423
273.143
274.917
274.603
274.201
273.742
273.251
274.901
274.59
274.192
273.736
273.249
276.118
275.598
274.94
274.195
273.403
276.179
275.65
274.979
274.219
273.411
277.8
276.98
275.958
274.817
273.612
280.242
278.967
277.414
275.703
273.91
284
281.985
279.607
277.037
274.358
289.808
286.558
282.907
279.057
275.041
295.009
290.574
285.811
280.874
275.676
298.835
293.484
287.922
282.222
276.153
278.073
277.201
276.12
274.915
273.645
280.465
279.15
277.549
275.786
273.938
283.696
281.757
279.448
276.942
274.327
287.612
284.88
281.714
278.325
274.793
291.17
287.69
283.749
279.576
275.22
293.455
289.481
285.048
280.38
275.496
273.415
273.563
273.888
274.466
275.393
276.79
273.52
273.685
274.04
274.647
275.597
277.005
273.336
273.298
273.47
273.424
273.778
273.719
274.357
274.298
275.318
275.311
276.815
276.962
278.781
281.703
286.166
293.031
299.262
303.857
279.019
281.83
285.605
290.16
294.286
296.88
273.373
273.315
273.237
273.147
273.05
273.506
273.425
273.321
273.199
273.067
273.797
273.67
273.504
273.313
273.106
274.314
274.101
273.828
273.512
273.173
275.14
274.79
274.342
273.829
273.28
276.38
275.819
275.107
274.299
273.439
273.467
273.393
273.296
273.184
273.062
273.615
273.517
273.389
273.241
273.082
273.932
273.782
273.588
273.364
273.123
274.474
274.235
273.926
273.573
273.194
275.319
274.937
274.45
273.895
273.302
276.567
275.97
275.217
274.366
273.461
273.302
273.255
273.192
273.12
273.041
273.268
273.226
273.171
273.106
273.036
273.423
273.356
273.269
273.167
273.057
273.381
273.321
273.243
273.151
273.051
273.699
273.588
273.443
273.275
273.093
273.646
273.543
273.41
273.254
273.086
274.217
274.021
273.768
273.476
273.161
274.165
273.978
273.736
273.456
273.154
275.074
274.737
274.303
273.805
273.272
275.069
274.733
274.3
273.804
273.272
276.405
275.842
275.126
274.311
273.443
276.537
275.954
275.21
274.363
273.46
278.137
277.267
276.179
274.955
273.659
280.692
279.354
277.713
275.892
273.974
284.54
282.453
279.971
277.27
274.438
290.319
287.01
283.266
279.29
275.122
295.367
290.898
286.074
281.049
275.738
298.963
293.601
288.019
282.288
276.176
278.341
277.43
276.296
275.026
273.683
280.799
279.436
277.77
275.926
273.986
284.063
282.075
279.696
277.1
274.381
287.948
285.175
281.946
278.474
274.845
291.404
287.898
283.915
279.684
275.258
293.538
289.556
285.108
280.42
275.51
332.613
315.779
281.647
278.779
280.574
278.967
281.244
333.475
328.901
311.279
319.396
293.641
301.977
289.521
292.408
288.211
327.776
304.49
291.521
289.87
294.914
291.65
286.442
286.285
284.885
283.213
287.459
286.401
327.709
308.377
314.521
299.718
294.758
304.602
286.916
282.861
288.956
318.892
307.36
298.39
289.879
279.448
307.632
299.828
292.571
285.391
277.346
280.652
279.329
277.698
275.884
273.972
278.139
277.273
276.185
274.96
273.661
279.733
278.595
277.169
275.564
273.865
278.311
277.42
276.297
275.03
273.685
280.313
279.063
277.509
275.77
273.934
321.333
309.378
299.807
290.596
279.865
317.877
306.981
297.94
289.049
278.85
304.982
298.181
291.377
284.468
276.991
311.135
301.99
294.129
286.36
277.872
290.917
287.548
283.685
279.553
275.219
297.699
292.737
287.419
281.891
276.049
287.477
284.858
281.746
278.36
274.808
289.914
286.782
283.136
279.211
275.099
286.372
283.985
281.116
277.974
274.677
316.817
305.999
297.325
288.925
279.142
299.639
294.158
288.445
282.563
276.279
289.141
286.153
282.676
278.93
275.003
287.736
285.034
281.862
278.43
274.832
291.92
288.29
284.211
279.885
275.333
289.218
286.18
282.678
278.927
274.997
284.789
282.659
280.124
277.363
274.469
284.682
282.598
280.091
277.345
274.464
283.507
281.681
279.438
276.95
274.331
282.045
280.486
278.56
276.414
274.151
285.715
283.45
280.723
277.734
274.596
284.797
282.705
280.177
277.4
274.483
315.896
305.191
296.773
288.679
278.993
302.282
295.972
289.761
283.488
276.64
307.677
299.482
292.299
285.109
276.935
295.787
291.181
286.266
281.16
275.749
291.787
288.154
284.09
279.792
275.284
299.765
294.137
288.393
282.502
276.172
285.209
283.008
280.383
277.522
274.523
281.724
280.214
278.354
276.287
274.108
286.955
284.407
281.403
278.147
274.735
275.431
280.169
284.689
288.937
292.678
295.729
457.631
451.279
424.904
431.063
441.923
434.001
416.183
406.198
480.94
502.57
475.935
496.587
469.293
458.077
490.425
443.757
439.264
414.354
418.928
431.718
426.082
407.294
399.821
465.684
482.181
462.558
478.242
457.274
448.315
473.769
424.223
421.674
399.247
402.143
416.666
413.856
394.301
389.32
443.479
459.398
441.76
457.185
438.853
433.214
454.487
404.275
402.785
383.055
385.027
399.434
397.983
379.382
375.522
422.147
437.824
421.15
436.046
419.067
414.619
433.848
389.814
388.65
371.126
372.786
385.577
383.956
367.774
363.57
406
420.126
405.378
419.409
403.656
399.465
417.564
379.862
378.788
363.008
364.54
375.826
374.12
359.857
355.855
394.212
408.378
393.629
408.066
392.172
388.198
406.102
371.042
368.206
395.576
399.68
364.537
357.501
389.585
380.102
347.907
329.394
345.832
329.115
341.293
340.218
328.591
365.671
362.98
388.045
391.465
359.535
353.059
382.774
374.578
342.267
326.927
340.162
326.925
336.26
335.646
326.38
357.641
355.316
376.77
379.322
352.321
346.995
372.633
366.356
339.067
325.139
337.305
324.648
333.909
333.279
323.644
348.526
346.401
364.095
366.114
343.208
337.934
360.569
354.683
333.887
322.302
332.095
321.161
328.724
327.415
319.398
341.744
339.759
354.725
356.521
336.821
331.817
351.45
345.819
329.706
320.45
327.799
318.473
324.324
322.371
315.866
337.328
335.418
348.428
350.114
332.636
327.804
345.328
340.06
327.56
318.678
325.551
316.17
321.561
319.163
313.197
533.882
553.818
517.863
541.904
497.85
525.333
467.812
497.228
472.275
501.89
500.269
529.74
513.329
540.41
526.676
549.932
486.656
466.297
507.605
476.912
457.626
436.444
476.881
445.185
542.465
549.67
558.426
562.07
529.865
539.456
548.952
554.787
528.618
512.465
497.386
487.777
528.425
542.292
531.487
538.109
486.723
495.163
504.48
511.103
454.545
461.531
544.588
550.692
509.011
520.488
556.958
564.069
554.493
565.058
564.956
569.802
545.023
561.365
558.408
567.349
532.705
555.349
545.471
562.163
554.126
565.279
559.241
567.165
448.229
430.225
458.241
435.352
412.845
397.436
422.358
402.649
489.026
466.189
479.521
460.488
464.803
438.583
468.324
440.022
428.764
405.901
432.081
407.316
495.639
469.781
499.172
471.375
519.4
553.449
499.013
539.163
510.437
547.568
492.298
533.595
525.245
556.277
502.845
542.242
528.178
557.416
504.449
543.986
546.442
529.751
560.124
547.863
535.578
518.874
555.372
541.644
520.667
503.767
547.489
532.246
427.457
387.882
465.304
497.398
536.274
386.132
424.263
458.173
487.521
522.581
385.505
421.377
452.972
482.828
522.536
497.1
466.794
502.207
473.099
490.775
460.886
500.076
470.726
481.092
452.804
496.511
467.47
377.546
361.368
414.149
395.629
444.656
421.796
469.239
443.182
493.502
464.944
376.464
359.197
410.147
391.5
439.337
417.787
466.083
441.149
492.683
463.921
411.447
398.205
412.438
400.151
377.08
355.18
377.342
354.087
443.994
433.694
442.144
429.816
413.065
400.659
414.071
401.894
378.263
354.147
379.487
355.821
444.75
434.55
445.953
435.946
474.379
464.041
501.99
492.067
471.442
458.622
498.904
485.386
475.113
464.943
503.2
494.2
475.891
465.927
503.545
494.131
431.64
402.159
385.907
435.159
404.425
387.886
427.2
397.446
381.239
432.916
401.254
384.223
418.855
388.829
372.528
429.503
396.314
378.661
340.507
324.365
315.903
370.783
347.765
335.378
393.367
365.797
350.628
410.34
380.296
364.035
425.434
390.773
372.214
337.62
321.314
312.483
368.133
346.27
334.362
389.89
363.319
348.767
407.018
375.902
359.074
420.571
385.704
367.248
390.587
375.94
394.739
380.285
422.074
403.56
431.843
410.509
360.894
340.547
362.073
342.281
362.062
341.16
363.727
343.362
361.551
358.622
360.668
354.504
340.178
343.781
382.875
385.338
415.266
419.191
362.586
364.163
362.756
363.799
345.481
346.15
319.621
301.559
324.481
304.126
321.066
301.266
325.746
304.095
321.957
300.771
327.656
304.38
329.911
305.722
331.013
306.55
353.234
340.81
360.4
345.644
379.772
365.155
388.748
370.714
339.684
326.561
332.963
322.484
364.177
348.345
366.082
349.497
393.891
373.89
396.511
375.181
342.774
328.839
344.114
329.848
322.588
302.04
312.145
297.935
317.133
299.176
309.132
296.125
325.421
303.816
313.947
299.054
326.72
304.86
314.86
299.629
303.918
295.129
296.24
291.15
305.006
296.573
296.034
291.33
306.327
299.476
295.737
292.001
332.704
354.418
317.662
307.794
295.173
352.264
329.298
312.336
302.465
292.401
352.53
331.001
315.641
304.87
293.954
289.139
284.448
286.67
282.593
290.994
286.026
287.361
283.333
294.129
289.034
288.516
284.568
344.752
331.199
322.501
311.922
307.716
300.685
298.418
292.857
290.007
286.196
344.516
330.573
324.454
313.819
310.382
302.566
300.481
294.32
291.864
287.968
327.509
314.655
328.861
314.729
346.533
329.458
348.181
328.554
314.304
304.278
313.113
303.811
329.933
314.794
331.02
315.94
349.968
327.823
351.348
329.189
315.139
304.665
315.941
305.496
302.658
295.855
293.741
288.756
302.306
295.165
293.184
288.504
302.858
296.486
294.004
288.884
303.852
296.966
294.318
289.541
279.506
276.771
275.669
276.648
274.891
274.283
281.05
277.908
276.561
277.249
275.335
274.61
283.544
279.789
278.188
278.201
275.98
275.138
316.15
305.16
299.67
301.739
294.217
290.599
292.899
287.331
284.793
286.403
281.997
280.047
279.183
276.712
275.681
314.867
303.498
297.785
302.398
293.965
289.764
293.785
287.466
284.417
286.857
282.372
280.394
279.898
277.272
276.003
287.902
280.559
276.975
275.016
288.866
280.88
277.112
275.054
287.756
280.535
276.993
275.04
288.914
280.935
277.186
275.101
287.486
280.476
277.024
275.078
288.948
281.001
277.271
275.153
289.49
281.253
277.324
275.164
289.918
281.481
277.368
275.171
288.163
280.776
277.177
275.149
286.794
280.331
276.912
275.103
287.021
280.349
277
275.111
286.067
280.046
276.794
275.083
288.924
281.091
277.268
275.162
287.332
280.563
276.988
275.12
289.416
281.322
277.343
275.188
287.704
280.743
277.064
275.155
286.284
280.042
276.77
274.971
284.47
279.454
276.501
274.921
286.144
280.009
276.769
274.986
284.475
279.465
276.503
274.936
285.931
279.954
276.766
275.01
284.627
279.53
276.53
274.961
285.62
279.867
276.735
275.037
284.71
279.569
276.556
275.003
285.303
279.775
276.664
275.059
282.94
278.981
276.18
274.893
282.124
278.757
276.031
274.854
283.162
279.059
276.217
274.913
282.377
278.845
276.068
274.873
283.528
279.19
276.273
274.944
282.8
278.994
276.124
274.903
284.003
279.353
276.363
274.992
283.367
279.189
276.209
274.944
284.648
279.571
276.471
275.04
283.975
279.397
276.292
274.984
285.528
279.953
276.577
275.091
284.822
279.784
276.43
275.053
285.148
279.767
276.528
275.069
284.491
279.609
276.367
275.022
285.807
280.113
276.607
275.107
285.081
279.941
276.469
275.076
286.071
280.265
276.663
275.136
285.346
280.088
276.524
275.105
273.97
273.481
273.231
273.112
273.065
273.977
273.483
273.231
273.112
273.065
273.978
273.484
273.232
273.112
273.065
273.987
273.487
273.233
273.112
273.065
273.984
273.487
273.233
273.113
273.065
274
273.493
273.235
273.113
273.066
274.022
273.502
273.239
273.115
273.066
274.04
273.51
273.242
273.116
273.067
274.006
273.496
273.237
273.114
273.066
274.003
273.495
273.237
273.114
273.066
273.992
273.491
273.235
273.113
273.065
273.995
273.492
273.236
273.114
273.066
274.02
273.501
273.239
273.115
273.066
274.015
273.501
273.239
273.115
273.066
274.039
273.51
273.243
273.116
273.067
274.034
273.509
273.242
273.116
273.067
273.961
273.479
273.23
273.111
273.065
273.954
273.478
273.23
273.111
273.065
273.967
273.481
273.231
273.112
273.065
273.96
273.48
273.231
273.112
273.065
273.973
273.484
273.232
273.112
273.065
273.968
273.483
273.232
273.112
273.065
273.982
273.488
273.234
273.113
273.065
273.977
273.486
273.233
273.113
273.065
273.989
273.49
273.235
273.113
273.065
515.162
507.369
514.761
507.046
514.025
506.508
513.32
505.734
513.453
505.597
518.009
514.094
515.847
510.598
519.239
515.666
519.979
516.418
560.644
570.221
572.355
572.851
572.96
550.267
567.38
571.695
572.706
572.924
560.935
570.332
572.385
572.859
572.962
550.457
567.499
571.731
572.716
572.927
561.181
570.441
572.416
572.867
572.964
550.636
567.623
571.771
572.726
572.93