/*--------------------------------*- C++ -*----------------------------------*\
| =========                 |                                                 |
| \\      /  F ield         | OpenFOAM: The Open Source CFD Toolbox           |
|  \\    /   O peration     | Version:  2412                                  |
|   \\  /    A nd           | Website:  www.openfoam.com                      |
|    \\/     M anipulation  |                                                 |
\*---------------------------------------------------------------------------*/
FoamFile
{
    version     2.0;
    format      ascii;
    arch        "LSB;label=32;scalar=64";
    class       volScalarField;
    location    "50/leftSolid";
    object      T;
}
// * * * * * * * * * * * * * * * * * * * * * * * * * * * * * * * * * * * * * //

dimensions      [0 0 0 1 0 0 0];

internalField   nonuniform List<scalar> 
130
(
300.00062
300.00075
300.00102
300.00148
300.00216
300.00312
300.00442
300.00611
300.00819
300.0106
300.01316
300.01556
300.01733
300.00067
300.00082
300.00114
300.00167
300.00247
300.00364
300.00527
300.00746
300.01029
300.01376
300.01771
300.02168
300.02484
300.00077
300.00094
300.00133
300.00198
300.00301
300.00454
300.00677
300.00992
300.01426
300.02001
300.02723
300.03552
300.04335
300.00086
300.00107
300.00153
300.00232
300.00358
300.00553
300.00847
300.01282
300.01919
300.02832
300.04113
300.05836
300.07901
300.00092
300.00115
300.00166
300.00254
300.00396
300.0062
300.00965
300.01492
300.02296
300.03524
300.05414
300.08369
300.12898
300.00092
300.00115
300.00166
300.00254
300.00396
300.0062
300.00965
300.01492
300.02296
300.03524
300.05414
300.08369
300.12898
300.00086
300.00107
300.00153
300.00232
300.00358
300.00553
300.00847
300.01282
300.01919
300.02832
300.04113
300.05836
300.07901
300.00077
300.00094
300.00133
300.00198
300.00301
300.00454
300.00677
300.00992
300.01426
300.02001
300.02723
300.03552
300.04335
300.00067
300.00082
300.00114
300.00167
300.00247
300.00364
300.00527
300.00746
300.01029
300.01376
300.01771
300.02168
300.02484
300.00062
300.00075
300.00102
300.00148
300.00216
300.00312
300.00442
300.00611
300.00819
300.0106
300.01316
300.01556
300.01733
)
;

boundaryField
{
    minX
    {
        type            zeroGradient;
    }
    minZ
    {
        type            zeroGradient;
    }
    maxZ
    {
        type            zeroGradient;
    }
    leftSolid_to_bottomWater
    {
        type            compressible::turbulentTemperatureRadCoupledMixed;
        refValue        nonuniform List<scalar> 
130
(
300.00001
300.00002
300.00003
300.00004
300.00006
300.00009
300.00014
300.0002
300.00029
300.00039
300.00052
300.00087
300.01007
300.00001
300.00002
300.00003
300.00005
300.00007
300.00011
300.00016
300.00024
300.00036
300.00051
300.00075
300.00271
300.03844
300.00001
300.00002
300.00004
300.00006
300.00009
300.00014
300.00022
300.00033
300.00051
300.00078
300.00154
300.0164
300.32786
300.00001
300.00003
300.00004
300.00007
300.00011
300.00017
300.00028
300.00045
300.00071
300.00116
300.00359
300.07456
301.84586
300.00002
300.00003
300.00005
300.00007
300.00012
300.0002
300.00032
300.00053
300.00088
300.00155
300.00759
300.2226
307.12313
300.00002
300.00003
300.00005
300.00007
300.00012
300.0002
300.00032
300.00053
300.00088
300.00155
300.00759
300.2226
307.12312
300.00001
300.00003
300.00004
300.00007
300.00011
300.00017
300.00028
300.00045
300.00071
300.00116
300.00359
300.07456
301.84586
300.00001
300.00002
300.00004
300.00006
300.00009
300.00014
300.00022
300.00033
300.00051
300.00078
300.00154
300.0164
300.32786
300.00001
300.00002
300.00003
300.00005
300.00007
300.00011
300.00016
300.00024
300.00036
300.00051
300.00075
300.00271
300.03844
300.00001
300.00002
300.00003
300.00004
300.00006
300.00009
300.00014
300.0002
300.00029
300.00039
300.00052
300.00087
300.01007
)
;
        refGradient     uniform 0;
        valueFraction   uniform 0.0075140686;
        source          uniform 0;
        logInterval     -1;
        writePrecision  8;
        updateHeader    1;
        writeToFile     0;
        useUserTime     1;
        kappaMethod     solidThermo;
        value           nonuniform List<scalar> 
130
(
300.00061
300.00074
300.00101
300.00146
300.00214
300.00309
300.00438
300.00605
300.00811
300.01051
300.01305
300.01542
300.01725
300.00067
300.00081
300.00113
300.00165
300.00245
300.0036
300.00522
300.00739
300.0102
300.01364
300.01755
300.02151
300.0249
300.00076
300.00093
300.00132
300.00197
300.00298
300.0045
300.00671
300.00983
300.01413
300.01984
300.027
300.03533
300.04544
300.00085
300.00106
300.00151
300.0023
300.00355
300.00548
300.00839
300.01271
300.01902
300.02808
300.0408
300.05842
300.09221
300.00091
300.00114
300.00164
300.00251
300.00393
300.00614
300.00956
300.01479
300.02276
300.03494
300.05373
300.08465
300.18143
300.00091
300.00114
300.00164
300.00251
300.00393
300.00614
300.00956
300.01479
300.02276
300.03494
300.05373
300.08465
300.18143
300.00085
300.00106
300.00151
300.0023
300.00355
300.00548
300.00839
300.01271
300.01902
300.02808
300.0408
300.05842
300.09221
300.00076
300.00093
300.00132
300.00197
300.00298
300.0045
300.00671
300.00983
300.01413
300.01984
300.027
300.03533
300.04544
300.00067
300.00081
300.00113
300.00165
300.00245
300.0036
300.00522
300.00739
300.0102
300.01364
300.01755
300.02151
300.0249
300.00061
300.00074
300.00101
300.00146
300.00214
300.00309
300.00438
300.00605
300.00811
300.01051
300.01305
300.01542
300.01725
)
;
    }
    leftSolid_to_heater
    {
        type            compressible::turbulentTemperatureRadCoupledMixed;
        refValue        nonuniform List<scalar> 10(314.55224 318.23047 326.1231 339.27034 358.95121 358.95123 339.27035 326.12311 318.23047 314.55218);
        refGradient     uniform 0;
        valueFraction   uniform 2.0832466e-05;
        source          uniform 0;
        logInterval     -1;
        thicknessLayers List<scalar> 1(0.001);
        kappaLayers     List<scalar> 1(0.0005);
        writePrecision  8;
        updateHeader    1;
        writeToFile     0;
        useUserTime     1;
        kappaMethod     solidThermo;
        value           nonuniform List<scalar> 10(300.0176 300.02518 300.04384 300.07975 300.1301 300.1301 300.07975 300.04384 300.02518 300.0176);
    }
    leftSolid_to_topAir
    {
        type            compressible::turbulentTemperatureRadCoupledMixed;
        refValue        nonuniform List<scalar> 
130
(
300.00003
300.00006
300.0001
300.00016
300.00025
300.00038
300.00057
300.00084
300.0012
300.00168
300.0023
300.00422
300.03714
300.00003
300.00006
300.00011
300.00017
300.00027
300.00042
300.00063
300.00093
300.00134
300.00189
300.00263
300.00444
300.03429
300.00003
300.00007
300.00012
300.0002
300.00032
300.0005
300.00078
300.00118
300.00175
300.00256
300.00369
300.00638
300.04764
300.00004
300.00008
300.00014
300.00023
300.00038
300.0006
300.00095
300.00147
300.00226
300.00342
300.00517
300.00948
300.072
300.00004
300.00008
300.00015
300.00025
300.00041
300.00067
300.00106
300.00168
300.00263
300.0041
300.00644
300.01278
300.10587
300.00004
300.00008
300.00015
300.00025
300.00041
300.00067
300.00106
300.00168
300.00263
300.0041
300.00644
300.01278
300.10587
300.00004
300.00008
300.00014
300.00023
300.00038
300.0006
300.00095
300.00147
300.00226
300.00342
300.00517
300.00948
300.072
300.00003
300.00007
300.00012
300.0002
300.00032
300.0005
300.00078
300.00118
300.00175
300.00256
300.00369
300.00638
300.04764
300.00003
300.00006
300.00011
300.00017
300.00027
300.00042
300.00063
300.00093
300.00134
300.00189
300.00263
300.00444
300.03429
300.00003
300.00006
300.0001
300.00016
300.00025
300.00038
300.00057
300.00084
300.0012
300.00168
300.0023
300.00422
300.03714
)
;
        refGradient     uniform 0;
        valueFraction   uniform 0.00032132529;
        source          uniform 0;
        logInterval     -1;
        writePrecision  8;
        updateHeader    1;
        writeToFile     0;
        useUserTime     1;
        kappaMethod     solidThermo;
        value           nonuniform List<scalar> 
130
(
300.00062
300.00075
300.00102
300.00147
300.00215
300.00311
300.00441
300.00609
300.00817
300.01058
300.01314
300.01553
300.01731
300.00067
300.00082
300.00113
300.00166
300.00246
300.00363
300.00525
300.00744
300.01027
300.01373
300.01767
300.02165
300.0248
300.00076
300.00094
300.00133
300.00198
300.003
300.00453
300.00675
300.0099
300.01423
300.01997
300.02718
300.03547
300.0433
300.00086
300.00107
300.00152
300.00231
300.00358
300.00552
300.00845
300.0128
300.01915
300.02828
300.04107
300.05828
300.07893
300.00092
300.00114
300.00165
300.00253
300.00395
300.00619
300.00963
300.01489
300.02292
300.03518
300.05407
300.08358
300.12886
300.00092
300.00114
300.00165
300.00253
300.00395
300.00619
300.00963
300.01489
300.02292
300.03518
300.05407
300.08358
300.12886
300.00086
300.00107
300.00152
300.00231
300.00358
300.00552
300.00845
300.0128
300.01915
300.02828
300.04107
300.05828
300.07893
300.00076
300.00094
300.00133
300.00198
300.003
300.00453
300.00675
300.0099
300.01423
300.01997
300.02718
300.03547
300.0433
300.00067
300.00082
300.00113
300.00166
300.00246
300.00363
300.00525
300.00744
300.01027
300.01373
300.01767
300.02165
300.0248
300.00062
300.00075
300.00102
300.00147
300.00215
300.00311
300.00441
300.00609
300.00817
300.01058
300.01314
300.01553
300.01731
)
;
    }
}


// ************************************************************************* //
