/*--------------------------------*- C++ -*----------------------------------*\
| =========                 |                                                 |
| \\      /  F ield         | OpenFOAM: The Open Source CFD Toolbox           |
|  \\    /   O peration     | Version:  2412                                  |
|   \\  /    A nd           | Website:  www.openfoam.com                      |
|    \\/     M anipulation  |                                                 |
\*---------------------------------------------------------------------------*/
FoamFile
{
    version     2.0;
    format      ascii;
    arch        "LSB;label=32;scalar=64";
    class       surfaceScalarField;
    location    "60/topAir";
    object      phi;
}
// * * * * * * * * * * * * * * * * * * * * * * * * * * * * * * * * * * * * * //

dimensions      [1 0 -1 0 0 0 0];

oriented        oriented;

internalField   nonuniform List<scalar> 
3140
(
9.0698439e-06
1.1666389e-07
8.2461538e-08
8.8421547e-06
1.234968e-07
1.0419249e-07
8.617267e-06
1.1482553e-07
1.1006216e-07
8.3933378e-06
1.1083731e-07
1.1309197e-07
8.1719438e-06
1.0721655e-07
1.141775e-07
7.9569923e-06
1.0191136e-07
1.1304032e-07
7.7511239e-06
9.561838e-08
1.1025015e-07
7.5559135e-06
8.8726586e-08
1.0648404e-07
7.3728842e-06
8.0857008e-08
1.0217259e-07
7.2043695e-06
7.0941199e-08
9.7573877e-08
7.0549299e-06
5.6531971e-08
9.2908023e-08
6.9335929e-06
3.293815e-08
8.8399555e-08
6.8500108e-06
-6.6883853e-10
8.4253636e-08
6.7785427e-06
-1.1149172e-08
8.2671338e-08
6.7100891e-06
-1.66487e-08
8.5201394e-08
6.6395038e-06
-2.0843645e-08
9.1567197e-08
6.5634689e-06
-2.4304736e-08
1.0051107e-07
6.4808467e-06
-2.802356e-08
1.1084507e-07
6.3920947e-06
-3.2578098e-08
1.2155155e-07
6.2985e-06
-3.795254e-08
1.3178581e-07
6.2015514e-06
-4.3678215e-08
1.408773e-07
6.1024057e-06
-4.8842716e-08
1.4824615e-07
6.0013173e-06
-5.195294e-08
1.5330196e-07
5.8970523e-06
-5.0773893e-08
1.552988e-07
5.7864232e-06
-4.2281387e-08
1.5316676e-07
5.6639723e-06
-2.2529964e-08
1.4523107e-07
5.5206836e-06
1.3924601e-08
1.2960287e-07
5.3352865e-06
7.9085102e-08
1.0653837e-07
5.0534549e-06
2.0796094e-07
7.4084114e-08
4.7810086e-07
2.7825011e-08
9.3012154e-06
-8.3606442e-11
8.4493011e-08
9.3178573e-06
-1.8055599e-10
1.0703544e-07
9.3192194e-06
-3.3632491e-10
1.1379968e-07
9.312474e-06
-6.0187084e-10
1.181846e-07
9.2999509e-06
-1.0568659e-09
1.2079651e-07
9.2824193e-06
-1.8355215e-09
1.2127854e-07
9.260998e-06
-3.1611134e-09
1.2020075e-07
9.2369243e-06
-5.3975681e-09
1.181979e-07
9.211272e-06
-9.1229925e-09
1.156323e-07
9.1847503e-06
-1.5210271e-08
1.1267316e-07
9.1567027e-06
-2.4811383e-08
1.0939094e-07
9.1225351e-06
-3.8727114e-08
1.0583299e-07
9.074836e-06
-5.4967113e-08
1.0199749e-07
9.0336424e-06
-6.7118568e-08
9.7164399e-08
8.9960004e-06
-7.0840243e-08
9.1837226e-08
8.9619747e-06
-7.264154e-08
8.5830163e-08
8.9320229e-06
-7.3685815e-08
7.9343024e-08
8.9057765e-06
-7.4389537e-08
7.2626726e-08
8.8825417e-06
-7.5178621e-08
6.5854021e-08
8.8616775e-06
-7.6112064e-08
5.9047145e-08
8.8427102e-06
-7.6757523e-08
5.2074622e-08
8.8254228e-06
-7.6123495e-08
4.4601038e-08
8.8097867e-06
-7.2543538e-08
3.6264102e-08
8.795758e-06
-6.3316071e-08
2.6612871e-08
8.7833187e-06
-4.494772e-08
1.515207e-08
8.7737655e-06
-1.4237595e-08
1.3118369e-09
8.7594158e-06
4.4163545e-08
-1.5831674e-08
8.7335356e-06
1.4215093e-07
-3.7119831e-08
8.7031073e-06
2.9806782e-07
-5.9602206e-08
5.2342128e-07
-7.6558681e-08
9.3011516e-06
-1.1677564e-07
8.4492891e-08
9.3176682e-06
-1.2373253e-07
1.0703536e-07
9.3187872e-06
-1.1525499e-07
1.1379967e-07
9.3115944e-06
-1.1159299e-07
1.1818396e-07
9.2982689e-06
-1.0852478e-07
1.2079334e-07
9.2793229e-06
-1.0415789e-07
1.212684e-07
9.2554467e-06
-9.9458976e-08
1.2017404e-07
9.2271904e-06
-9.5276632e-08
1.1813529e-07
9.1945987e-06
-9.2029199e-08
1.1549789e-07
9.1570708e-06
-9.0089341e-08
1.1240699e-07
9.1132069e-06
-8.9850455e-08
1.0890294e-07
9.0609578e-06
-9.1441588e-08
1.0496361e-07
8.9996352e-06
-9.416932e-08
1.0052479e-07
8.9330678e-06
-9.5941954e-08
9.5390892e-08
8.8672553e-06
-9.4551212e-08
8.9523603e-08
8.8035909e-06
-9.1848357e-08
8.2871498e-08
8.7433232e-06
-8.8898028e-08
7.548032e-08
8.6874969e-06
-8.5953265e-08
6.7390825e-08
8.6369221e-06
-8.3155232e-08
5.8552594e-08
8.592289e-06
-8.0339276e-08
4.8861954e-08
8.5546614e-06
-7.6957777e-08
3.7830096e-08
8.525774e-06
-7.2509326e-08
2.527607e-08
8.5095624e-06
-6.6919044e-08
1.0590777e-08
8.5120454e-06
-5.9256128e-08
-6.5384718e-09
8.5400704e-06
-4.6759168e-08
-2.6208149e-08
8.5985524e-06
-2.3763586e-08
-4.8949452e-08
8.6970868e-06
1.8502011e-08
-7.2863652e-08
8.8498035e-06
8.7108016e-08
-9.7660778e-08
9.0862679e-06
1.8461132e-07
-1.2298901e-07
3.0764535e-07
-1.4349106e-07
9.0697075e-06
8.2460965e-08
8.8417835e-06
1.0419145e-07
8.616468e-06
1.1006044e-07
8.3917873e-06
1.1308775e-07
8.1690963e-06
1.141662e-07
7.9519268e-06
1.1301162e-07
7.7422862e-06
1.1018161e-07
7.5406805e-06
1.0632905e-07
7.3468138e-06
1.0183746e-07
7.1598503e-06
9.6874114e-08
6.9785119e-06
9.1487976e-08
6.8014254e-06
8.5644891e-08
6.6280213e-06
7.9234795e-08
6.4599795e-06
7.2099908e-08
6.3012969e-06
6.4131315e-08
6.1541228e-06
5.5325815e-08
6.0194709e-06
4.5753878e-08
5.8980542e-06
3.5463487e-08
5.7910159e-06
2.3883145e-08
5.6998024e-06
1.0874306e-08
5.6269239e-06
-4.0791107e-09
5.5743796e-06
-1.9964675e-08
5.5464052e-06
-3.8944259e-08
5.5479473e-06
-6.0797577e-08
5.5871046e-06
-8.5915732e-08
5.6779401e-06
-1.1459815e-07
5.842587e-06
-1.4614327e-07
6.1063202e-06
-1.7662287e-07
6.4931135e-06
-2.0217807e-07
-2.2412232e-07
9.1964274e-06
1.1861967e-07
3.6383753e-08
9.109802e-06
1.2552855e-07
6.5289379e-08
9.0236895e-06
1.1660847e-07
7.9566256e-08
8.9368456e-06
1.1288173e-07
8.7054261e-08
8.8497049e-06
1.0967756e-07
9.1640653e-08
8.7640063e-06
1.0477381e-07
9.396528e-08
8.6809812e-06
9.8917891e-08
9.435745e-08
8.6015668e-06
9.2537871e-08
9.3360829e-08
8.5269868e-06
8.5280875e-08
9.1472022e-08
8.4593389e-06
7.6135626e-08
8.9086453e-08
8.4026394e-06
6.2961849e-08
8.6646146e-08
8.3646129e-06
4.1531903e-08
8.489482e-08
8.3538519e-06
9.7311209e-09
8.5285701e-08
8.3459269e-06
-7.8958652e-10
9.1432287e-08
8.338523e-06
-1.4336923e-08
1.0702773e-07
8.3266949e-06
-2.7089485e-08
1.3060453e-07
8.3076721e-06
-3.9809931e-08
1.5949276e-07
8.2805438e-06
-5.2965618e-08
1.911121e-07
8.2459237e-06
-6.6781544e-08
2.2314569e-07
8.2051467e-06
-8.1041465e-08
2.5381135e-07
8.1596174e-06
-9.520831e-08
2.8183218e-07
8.1104096e-06
-1.0851308e-07
3.0619041e-07
8.0577211e-06
-1.1960522e-07
3.2582141e-07
8.000332e-06
-1.2651385e-07
3.3942681e-07
7.934803e-06
-1.2642324e-07
3.4534112e-07
7.8541351e-06
-1.1525649e-07
3.4137306e-07
7.745706e-06
-8.6475929e-08
3.2472017e-07
7.5905636e-06
-3.0350217e-08
2.9223842e-07
7.3480856e-06
8.1368269e-08
2.3539422e-07
3.2884694e-07
1.4920348e-07
9.4345354e-06
-8.459028e-11
3.762278e-08
9.5992706e-06
-1.8236259e-10
6.8011122e-08
9.7464013e-06
-3.3780252e-10
8.3615237e-08
9.8855831e-06
-6.0014765e-10
9.2484678e-08
1.0018535e-05
-1.0452302e-09
9.8567698e-08
1.0143906e-05
-1.799779e-09
1.0248039e-07
1.0261568e-05
-3.0730387e-09
1.0452989e-07
1.0372297e-05
-5.2037945e-09
1.0521116e-07
1.0477005e-05
-8.7258505e-09
1.0493031e-07
1.0576347e-05
-1.4436392e-08
1.0390331e-07
1.0669922e-05
-2.3376235e-08
1.021546e-07
1.0754222e-05
-3.6327874e-08
9.9392673e-08
1.0823055e-05
-5.1816956e-08
9.4712428e-08
1.0896658e-05
-6.419688e-08
8.6970326e-08
1.0968894e-05
-7.0985271e-08
7.6251514e-08
1.1041098e-05
-7.7406378e-08
6.3948562e-08
1.1113893e-05
-8.4196416e-08
5.0941192e-08
1.1187074e-05
-9.1554126e-08
3.8045318e-08
1.1260113e-05
-9.9773393e-08
2.5819941e-08
1.1332496e-05
-1.0887e-07
1.4510348e-08
1.1403844e-05
-1.1866362e-07
4.2024423e-09
1.147441e-05
-1.2807608e-07
-6.3790171e-09
1.1544507e-05
-1.3580824e-07
-1.7602503e-08
1.1614647e-05
-1.3977761e-07
-3.0233445e-08
1.1685493e-05
-1.3620135e-07
-4.5882593e-08
1.1756932e-05
-1.1898984e-07
-6.6358442e-08
1.1828674e-05
-7.9982161e-08
-9.4028711e-08
1.1905521e-05
-1.2355212e-08
-1.319194e-07
1.1988622e-05
1.1943046e-07
-1.8071824e-07
3.0820998e-07
-2.3291229e-07
9.4344719e-06
-1.1873267e-07
3.7621527e-08
9.5990831e-06
-1.2576638e-07
6.8008168e-08
9.7459756e-06
-1.1703987e-07
8.3609211e-08
9.8847235e-06
-1.1363636e-07
9.2472285e-08
1.0016904e-05
-1.109746e-07
9.854198e-08
1.014093e-05
-1.0698446e-07
1.0242732e-07
1.0256278e-05
-1.0266888e-07
1.0442193e-07
1.0363102e-05
-9.8888589e-08
1.0499635e-07
1.0461396e-05
-9.6037922e-08
1.0451564e-07
1.0550673e-05
-9.4443368e-08
1.0313714e-07
1.0629823e-05
-9.4460484e-08
1.0083718e-07
1.0697273e-05
-9.6226519e-08
9.7412079e-08
1.0752663e-05
-9.9149152e-08
9.2467091e-08
1.079994e-05
-1.0144425e-07
8.5360957e-08
1.0844221e-05
-1.0137859e-07
7.5636592e-08
1.0886849e-05
-1.006558e-07
6.3492971e-08
1.0928976e-05
-1.0008037e-07
4.9237755e-08
1.097138e-05
-9.9719058e-08
3.315214e-08
1.1014885e-05
-1.002319e-07
1.5506912e-08
1.1059774e-05
-1.013592e-07
-3.5369114e-09
1.1107874e-05
-1.0297104e-07
-2.5962052e-08
1.1160243e-05
-1.050767e-07
-5.0090178e-08
1.1218442e-05
-1.0633208e-07
-7.7082368e-08
1.1284909e-05
-1.0506803e-07
-1.0771183e-07
1.1364891e-05
-9.9202511e-08
-1.4318589e-07
1.1467537e-05
-8.5499245e-08
-1.8508273e-07
1.1607692e-05
-5.7903894e-08
-2.3509151e-07
1.1798317e-05
-6.7835236e-09
-2.9385205e-07
1.2078015e-05
7.5052459e-08
-3.5830137e-07
1.7715323e-07
-4.2153644e-07
9.1962917e-06
3.6380658e-08
9.1094348e-06
6.5281909e-08
9.0229044e-06
7.9550965e-08
8.9353324e-06
8.702339e-08
8.846946e-06
9.1577994e-08
8.7591352e-06
9.3837976e-08
8.6725482e-06
9.409974e-08
8.5871462e-06
9.284243e-08
8.5025088e-06
9.0436976e-08
8.417906e-06
8.703346e-08
8.3323414e-06
8.2592154e-08
8.2448526e-06
7.6907161e-08
8.1553246e-06
6.9613675e-08
8.0657479e-06
6.0232394e-08
7.9801023e-06
4.8398246e-08
7.9006805e-06
3.4091856e-08
7.8287084e-06
1.7645564e-08
7.7639298e-06
5.2301845e-10
7.7094343e-06
-2.1853153e-08
7.6638937e-06
-4.4944249e-08
7.6271376e-06
-7.0293981e-08
7.6006509e-06
-9.855451e-08
7.5862659e-06
-1.308912e-07
7.5886277e-06
-1.6822706e-07
7.6152399e-06
-2.1173005e-07
7.6779281e-06
-2.6278501e-07
7.7959887e-06
-3.2210705e-07
8.0032343e-06
-3.9065104e-07
8.3426191e-06
-4.6650882e-07
-5.4074938e-07
9.1673962e-06
1.1843822e-07
1.9518619e-08
9.0708194e-06
1.2511093e-07
3.6755302e-08
8.9869221e-06
1.1566416e-07
4.7799454e-08
8.9080998e-06
1.1155011e-07
5.4326448e-08
8.8332469e-06
1.0809773e-07
5.8395948e-08
8.7633913e-06
1.0297256e-07
6.0848501e-08
8.6988744e-06
9.6906225e-08
6.1968271e-08
8.6398714e-06
9.0321063e-08
6.2043018e-08
8.587149e-06
8.278196e-08
6.1412778e-08
8.5427026e-06
7.3088786e-08
6.0444501e-08
8.5109971e-06
5.8690487e-08
5.9661697e-08
8.5010132e-06
3.4802884e-08
6.0076601e-08
8.5235544e-06
-3.4807744e-10
6.3094853e-08
8.5489172e-06
-9.7605049e-09
7.5876002e-08
8.5703876e-06
-1.6956478e-08
1.0259853e-07
8.584037e-06
-2.411786e-08
1.4119128e-07
8.5871184e-06
-3.1484518e-08
1.8804287e-07
8.5793824e-06
-4.0074086e-08
2.3909322e-07
8.5623165e-06
-5.0575107e-08
2.9097689e-07
8.5378143e-06
-6.3028424e-08
3.4154689e-07
8.5073525e-06
-7.6983285e-08
3.8949243e-07
8.4713647e-06
-9.1361769e-08
4.3376131e-07
8.4288363e-06
-1.0457908e-07
4.7315259e-07
8.3765926e-06
-1.1414918e-07
5.060426e-07
8.3083047e-06
-1.1621295e-07
5.3006178e-07
8.2134507e-06
-1.0510165e-07
5.4154405e-07
8.0767368e-06
-7.2754657e-08
5.3439918e-07
7.8808886e-06
-9.3526441e-09
4.9764528e-07
7.5832774e-06
1.1937714e-07
4.1382778e-07
4.0528751e-07
2.7341082e-07
9.4049694e-06
-8.684143e-11
2.0139337e-08
9.5601745e-06
-1.8769606e-10
3.8104576e-08
9.7098844e-06
-3.4863236e-10
4.9918089e-08
9.8572281e-06
-6.2148881e-10
5.7312618e-08
1.0002606e-05
-1.0867954e-09
6.2374136e-08
1.0144014e-05
-1.880064e-09
6.5925358e-08
1.0280459e-05
-3.2269326e-09
6.8218238e-08
1.0412002e-05
-5.4957175e-09
6.9484922e-08
1.053903e-05
-9.2708619e-09
6.995497e-08
1.0661701e-05
-1.542633e-08
6.9747267e-08
1.0778874e-05
-2.5082023e-08
6.8754017e-08
1.0885631e-05
-3.8927113e-08
6.6366102e-08
1.0973885e-05
-5.5274473e-08
6.138494e-08
1.1067353e-05
-6.6818072e-08
5.0560938e-08
1.1161523e-05
-6.9898036e-08
3.5025475e-08
1.1257107e-05
-7.2033766e-08
1.6284648e-08
1.135479e-05
-7.4729154e-08
-3.489956e-09
1.1453373e-05
-7.8672125e-08
-2.1929303e-08
1.1551551e-05
-8.4497997e-08
-3.8422208e-08
1.1647959e-05
-9.2451038e-08
-5.2457817e-08
1.1741457e-05
-1.0197592e-07
-6.4283676e-08
1.1830563e-05
-1.124158e-07
-7.4408845e-08
1.1914149e-05
-1.2192277e-07
-8.3818731e-08
1.1991369e-05
-1.2749305e-07
-9.4081053e-08
1.206119e-05
-1.2441403e-07
-1.0746994e-07
1.2122369e-05
-1.0539068e-07
-1.2721412e-07
1.2173318e-05
-5.9990939e-08
-1.5770325e-07
1.220984e-05
2.683937e-08
-2.0459155e-07
1.2236039e-05
1.8894422e-07
-2.7643618e-07
4.3018064e-07
-3.7952412e-07
9.404904e-06
-1.1855443e-07
2.0137583e-08
9.5599799e-06
-1.2535599e-07
3.8100467e-08
9.7094407e-06
-1.1610981e-07
4.990958e-08
9.8563287e-06
-1.1233243e-07
5.7295304e-08
1.0000893e-05
-1.0944825e-07
6.2339037e-08
1.0140872e-05
-1.0528658e-07
6.5854683e-08
1.0274847e-05
-1.0085767e-07
6.8077574e-08
1.04022e-05
-9.706234e-08
6.9209944e-08
1.052232e-05
-9.4307308e-08
6.9432026e-08
1.0634164e-05
-9.2930827e-08
6.8798068e-08
1.0736028e-05
-9.3287896e-08
6.7178739e-08
1.0825766e-05
-9.545735e-08
6.4204336e-08
1.0902378e-05
-9.8673644e-08
5.9254229e-08
1.0970459e-05
-1.0059539e-07
5.1057815e-08
1.1036313e-05
-9.9098441e-08
3.8982371e-08
1.1101181e-05
-9.6463169e-08
2.305484e-08
1.116614e-05
-9.3923343e-08
3.4735714e-09
1.1231502e-05
-9.2001181e-08
-1.8880417e-08
1.1297046e-05
-9.0354996e-08
-4.4179978e-08
1.1362947e-05
-8.9591356e-08
-7.2296524e-08
1.1428235e-05
-8.9993786e-08
-1.0323125e-07
1.1493774e-05
-9.0841463e-08
-1.3720176e-07
1.1560845e-05
-9.1124576e-08
-1.7494918e-07
1.1632531e-05
-8.9042456e-08
-2.1784548e-07
1.171422e-05
-8.1772922e-08
-2.6751377e-07
1.1814631e-05
-6.4297726e-08
-3.2658222e-07
1.1944819e-05
-2.7303217e-08
-3.979625e-07
1.2120494e-05
4.1881806e-08
-4.8456223e-07
1.2386425e-05
1.5226405e-07
-5.8754131e-07
2.9379735e-07
-7.0046303e-07
9.1672558e-06
1.9514437e-08
9.0704363e-06
3.6745377e-08
8.9860986e-06
4.7778878e-08
8.9065046e-06
5.4284961e-08
8.8303215e-06
5.8312783e-08
8.7581909e-06
6.0682053e-08
8.6897972e-06
6.1635739e-08
8.6241973e-06
6.1379997e-08
8.5602342e-06
6.0092769e-08
8.4965216e-06
5.7815153e-08
8.4314225e-06
5.4403383e-08
8.363364e-06
4.9508358e-08
8.291735e-06
4.2569014e-08
8.2185277e-06
3.2844295e-08
8.1480758e-06
1.97517e-08
8.0828429e-06
2.8615511e-09
8.0234721e-06
-1.6906915e-08
7.9714602e-06
-3.9466274e-08
7.9242263e-06
-6.4974288e-08
7.8828674e-06
-9.3176651e-08
7.8474309e-06
-1.2485117e-07
7.8190091e-06
-1.6097407e-07
7.7996431e-06
-2.0264958e-07
7.7935596e-06
-2.5118577e-07
7.8094313e-06
-3.0937421e-07
7.8633146e-06
-3.8096548e-07
7.9846772e-06
-4.707718e-07
8.2179708e-06
-5.8206098e-07
8.6146855e-06
-7.1095614e-07
-8.3785351e-07
9.1615572e-06
1.1858556e-07
8.3451955e-09
9.0566236e-06
1.2548398e-07
1.6204899e-08
8.9663147e-06
1.1613962e-07
2.1968801e-08
8.8828708e-06
1.1204458e-07
2.5725856e-08
8.8045738e-06
1.0857653e-07
2.8116498e-08
8.7324518e-06
1.0338092e-07
2.9589707e-08
8.6669071e-06
9.716512e-08
3.0347977e-08
8.6080891e-06
9.0319981e-08
3.0541342e-08
8.5568448e-06
8.2309004e-08
3.0348456e-08
8.5156322e-06
7.1658952e-08
2.9998549e-08
8.4902548e-06
5.5165645e-08
2.9874127e-08
8.4921951e-06
2.7344005e-08
3.0793174e-08
8.5388726e-06
-1.7489025e-08
3.3908872e-08
8.5814782e-06
-1.4918899e-08
4.8235257e-08
8.6133359e-06
-5.3071081e-09
7.6132019e-08
8.6323856e-06
6.9425196e-09
1.1531734e-07
8.6351967e-06
2.3357283e-08
1.6202242e-07
8.6230569e-06
3.9621782e-08
2.1178452e-07
8.5980194e-06
5.4475582e-08
2.6173286e-07
8.5615924e-06
6.7292193e-08
3.1089232e-07
8.5146159e-06
7.7950677e-08
3.5874106e-07
8.4567685e-06
8.7324434e-08
4.0451506e-07
8.3863058e-06
9.6772041e-08
4.4707827e-07
8.2994269e-06
1.0842501e-07
4.8473224e-07
8.1892013e-06
1.2570024e-07
5.1482084e-07
8.0438811e-06
1.5404724e-07
5.3304633e-07
7.8438287e-06
2.0246043e-07
5.3221459e-07
7.5543827e-06
2.8747792e-07
4.9982973e-07
7.1087255e-06
4.4450673e-07
4.1518713e-07
7.7178306e-07
2.6739691e-07
9.3991573e-06
-8.9387585e-11
8.6178396e-09
9.5460923e-06
-1.9374713e-10
1.6847253e-08
9.6894808e-06
-3.61396e-10
2.3030588e-08
9.8322071e-06
-6.4759669e-10
2.7278558e-08
9.9740634e-06
-1.1393376e-09
3.0233639e-08
1.0113027e-05
-1.9845863e-09
3.2327038e-08
1.0248107e-05
-3.432405e-09
3.3736075e-08
1.0379235e-05
-5.8938678e-09
3.4570771e-08
1.0506599e-05
-1.0027166e-08
3.4927332e-08
1.0629992e-05
-1.6816111e-08
3.4829248e-08
1.0747292e-05
-2.7471128e-08
3.4090634e-08
1.08514e-05
-4.2391828e-08
3.1993849e-08
1.0928386e-05
-6.0220067e-08
2.7130002e-08
1.1016317e-05
-6.7915838e-08
1.5627875e-08
1.1105647e-05
-6.1309711e-08
1.7006288e-09
1.119737e-05
-5.0009184e-08
-1.8481852e-08
1.1291033e-05
-3.6562815e-08
-3.7226827e-08
1.1384271e-05
-2.2434253e-08
-5.3102335e-08
1.1474736e-05
-8.6690747e-09
-6.5730928e-08
1.1560071e-05
4.5212948e-09
-7.5005214e-08
1.1638651e-05
1.6126569e-08
-8.1017557e-08
1.1707764e-05
2.8169923e-08
-8.4340874e-08
1.1764113e-05
4.2448639e-08
-8.5813227e-08
1.1802967e-05
6.2219397e-08
-8.6692523e-08
1.1816721e-05
9.3481514e-08
-8.8962123e-08
1.1793907e-05
1.4537308e-07
-9.5677135e-08
1.1718354e-05
2.3207936e-07
-1.1171223e-07
1.1570887e-05
3.7578726e-07
-1.4536757e-07
1.1340824e-05
6.1100845e-07
-2.1279601e-07
9.7367518e-07
-3.4266032e-07
9.3990893e-06
-1.187053e-07
8.6166309e-09
9.5458887e-06
-1.2573708e-07
1.6844401e-08
9.6890139e-06
-1.1660176e-07
2.3024656e-08
9.8312552e-06
-1.1286004e-07
2.726646e-08
9.9722389e-06
-1.0999315e-07
3.020911e-08
1.0109658e-05
-1.0582633e-07
3.227767e-08
1.0242043e-05
-1.01378e-07
3.3637813e-08
1.0368564e-05
-9.7583207e-08
3.4378664e-08
1.0488293e-05
-9.4887798e-08
3.4562898e-08
1.0599765e-05
-9.3666679e-08
3.4176473e-08
1.0700691e-05
-9.4277655e-08
3.3059818e-08
1.0788363e-05
-9.6681275e-08
3.0821632e-08
1.0860423e-05
-9.9793719e-08
2.6767671e-08
1.092412e-05
-1e-07
1.9445545e-08
1.0987278e-05
-9.4231632e-08
8.7458773e-09
1.1051376e-05
-8.5932621e-08
-5.1190051e-09
1.1118623e-05
-7.6187043e-08
-2.4149071e-08
1.1188938e-05
-6.5832752e-08
-4.5796574e-08
1.1262055e-05
-5.5388712e-08
-7.057742e-08
1.1337725e-05
-4.5446026e-08
-9.7997859e-08
1.1414757e-05
-3.6105743e-08
-1.2802988e-07
1.1492811e-05
-2.6336769e-08
-1.6074702e-07
1.1570956e-05
-1.4183226e-08
-1.9646014e-07
1.1647421e-05
3.6163342e-09
-2.3570397e-07
1.1718999e-05
3.4303211e-08
-2.7990819e-07
1.1786813e-05
8.2066153e-08
-3.3108138e-07
1.1854968e-05
1.583011e-07
-3.9232765e-07
1.1936034e-05
2.7851905e-07
-4.6834217e-07
1.2064699e-05
4.6163607e-07
-5.668062e-07
7.1556894e-07
-6.9611337e-07
9.1614108e-06
8.3423553e-09
9.056221e-06
1.6198088e-08
8.9654435e-06
2.1954574e-08
8.8811714e-06
2.569707e-08
8.8014323e-06
2.8058662e-08
8.7268144e-06
2.9473607e-08
8.6569573e-06
3.0114864e-08
8.5906813e-06
3.0072715e-08
8.5264825e-06
2.9403761e-08
8.4625489e-06
2.8082105e-08
8.3967322e-06
2.5942339e-08
8.326928e-06
2.2631282e-08
8.2521189e-06
1.7584396e-08
8.174823e-06
1.0140253e-08
8.0995703e-06
7.7279322e-10
8.0305346e-06
-1.40354e-08
7.9681675e-06
-3.0726924e-08
7.9123167e-06
-4.9448159e-08
7.8620945e-06
-7.0140855e-08
7.8175352e-06
-9.4063353e-08
7.778963e-06
-1.2238462e-07
7.7479262e-06
-1.5627392e-07
7.7284237e-06
-1.9733e-07
7.7287131e-06
-2.4785844e-07
7.7636335e-06
-3.0999046e-07
7.8511349e-06
-3.8639901e-07
8.0188369e-06
-4.8016941e-07
8.3087845e-06
-5.9348357e-07
8.7835303e-06
-7.2405506e-07
-8.4970362e-07
9.1587067e-06
1.186078e-07
3.2680678e-14
9.0493636e-06
1.2554794e-07
1.4526175e-14
8.9551623e-06
1.1617022e-07
1.0592685e-14
8.8688964e-06
1.1199178e-07
7.9584307e-15
8.7885869e-06
1.0842606e-07
9.9686008e-15
8.7150616e-06
1.0311515e-07
1.0505575e-14
8.6486585e-06
9.6751347e-08
1.0326099e-14
8.589504e-06
8.9696006e-08
1.1843525e-14
8.5385342e-06
8.1318641e-08
1.3904899e-15
8.4986362e-06
6.9897103e-08
-1.9164567e-16
8.4768838e-06
5.1627283e-08
-1.3221442e-14
8.4870022e-06
2.0675726e-08
-2.1745892e-14
8.5550592e-06
-3.4145513e-08
-1.4912331e-14
8.6098119e-06
-6.4734213e-09
-2.0648792e-14
8.652699e-06
3.3325788e-08
-2.3566032e-15
8.6788109e-06
8.9318697e-08
-4.178859e-15
8.6833806e-06
1.5759443e-07
4.2955365e-14
8.6716751e-06
2.236573e-07
5.9911939e-14
8.6453223e-06
2.8827458e-07
1.0967606e-13
8.6049533e-06
3.5146801e-07
1.0145218e-13
8.5504249e-06
4.1348965e-07
1.7462348e-13
8.4802047e-06
4.74965e-07
1.664147e-13
8.3906964e-06
5.3682194e-07
2.2989104e-13
8.2752486e-06
6.0041792e-07
2.3902714e-13
8.1223789e-06
6.6792784e-07
4.0547552e-13
7.9125685e-06
7.4309103e-07
4.5985863e-13
7.6122727e-06
8.3273978e-07
5.1469282e-13
7.1624249e-06
9.4990059e-07
5.5174615e-13
6.4598902e-06
1.1179375e-06
5.2649066e-13
1.3965448e-06
4.4224442e-13
9.3962777e-06
-9.1224796e-11
3.0054082e-14
9.5388709e-06
-1.9805268e-10
1.1903806e-14
9.6784421e-06
-3.7038626e-10
9.4239614e-15
9.8183783e-06
-6.658929e-10
5.6403597e-15
9.9582141e-06
-1.1761052e-09
5.4285592e-15
1.0095714e-05
-2.0578126e-09
2.9580292e-15
1.0229778e-05
-3.5769783e-09
-6.6353533e-16
1.0360221e-05
-6.1758786e-09
-1.465636e-15
1.0487034e-05
-1.0566492e-08
-5.4451822e-15
1.0609568e-05
-1.7807534e-08
-5.8032021e-15
1.0724412e-05
-2.9126923e-08
-8.4037396e-16
1.0821637e-05
-4.4554958e-08
1.1979422e-14
1.087737e-05
-6.274842e-08
2.0614338e-14
1.0947824e-05
-6.1298849e-08
4.0615678e-14
1.1017282e-05
-3.4429259e-08
2.4124681e-14
1.1082858e-05
5.2641065e-09
2.5535718e-14
1.1146669e-05
5.656339e-08
1.6686033e-14
1.1201624e-05
1.1561204e-07
2.5107673e-14
1.1244895e-05
1.7929103e-07
2.9507153e-14
1.1273172e-05
2.4821183e-07
4.9312846e-14
1.1283209e-05
3.2247096e-07
5.1635644e-14
1.1271393e-05
4.0248683e-07
1.4169245e-13
1.1233022e-05
4.894384e-07
1.6943782e-13
1.1161235e-05
5.8558311e-07
1.7486805e-13
1.1045382e-05
6.9490305e-07
2.024867e-13
1.0868578e-05
8.2431374e-07
2.3313135e-13
1.0603665e-05
9.8604958e-07
2.7449867e-13
1.0206446e-05
1.2018734e-06
2.9528753e-13
9.6014749e-06
1.5102473e-06
3.0468376e-13
1.9699965e-06
2.4403587e-13
9.3962079e-06
-1.1873007e-07
2.8581772e-14
9.5386609e-06
-1.2580674e-07
9.7776191e-15
9.6779591e-06
-1.1664394e-07
9.7246983e-15
9.8173902e-06
-1.1283047e-07
5.4243218e-15
9.9563121e-06
-1.0988895e-07
3.5652015e-15
1.0092185e-05
-1.0565289e-07
3.1907623e-15
1.0223395e-05
-1.0114964e-07
-1.6978853e-15
1.0348933e-05
-9.7335213e-08
3.1844902e-15
1.0467605e-05
-9.4675297e-08
-6.3061575e-15
1.0577535e-05
-9.3561185e-08
6.9249741e-16
1.067579e-05
-9.4322095e-08
-1.6373375e-15
1.0758798e-05
-9.6740962e-08
1.379112e-14
1.0822042e-05
-9.9225447e-08
2.7498012e-14
1.0876371e-05
-9.618239e-08
2.9228009e-14
1.0933398e-05
-8.2709919e-08
2.4598877e-14
1.0995913e-05
-6.2369624e-08
1.536812e-14
1.1065192e-05
-3.6864875e-08
1.4114689e-14
1.1139225e-05
-4.2177008e-09
1.4318261e-14
1.1213871e-05
3.4069103e-08
1.2672639e-14
1.1286029e-05
7.8057265e-08
1.523153e-15
1.1353655e-05
1.2681808e-07
4.0558233e-14
1.141393e-05
1.8147027e-07
8.5220988e-14
1.1463115e-05
2.4380187e-07
1.2348323e-13
1.1496445e-05
3.1656174e-07
1.376619e-13
1.1507584e-05
4.0387646e-07
7.9203937e-14
1.1488321e-05
5.1252251e-07
1.0629471e-13
1.1428108e-05
6.5397403e-07
1.075766e-13
1.1313823e-05
8.4786715e-07
1.4527798e-13
1.1129516e-05
1.1278168e-06
1.3970933e-13
1.5428638e-06
1.0742587e-13
9.1585563e-06
2.5195541e-14
9.0489476e-06
1.0926461e-14
8.9542582e-06
9.6099879e-15
8.8671248e-06
1.0150543e-14
8.7852945e-06
1.0467041e-14
8.7091152e-06
6.0479147e-15
8.6380804e-06
1.0277728e-14
8.5708179e-06
4.4443658e-15
8.5055463e-06
4.1668013e-15
8.4400672e-06
-2.4773081e-15
8.3716875e-06
-2.4161425e-15
8.2975778e-06
2.401702e-15
8.2159367e-06
1.0999357e-15
8.1298946e-06
-4.7286383e-15
8.0479575e-06
-9.6140967e-15
7.9715525e-06
-1.6848068e-14
7.9039607e-06
-3.948515e-14
7.8502949e-06
-5.5634696e-14
7.8142232e-06
-1.0145021e-13
7.7982174e-06
-1.4672364e-13
7.8026512e-06
-1.8936819e-13
7.8278483e-06
-2.2756291e-13
7.8743214e-06
-2.7493946e-13
7.943027e-06
-2.8034262e-13
8.0369171e-06
-3.8203848e-13
8.1630476e-06
-3.7810594e-13
8.3368636e-06
-3.8291002e-13
8.5912655e-06
-3.7659271e-13
8.9950556e-06
-3.6261008e-13
-3.3732239e-13
9.1587067e-06
1.1860779e-07
-8.3451431e-09
9.0493636e-06
1.2554794e-07
-1.6204876e-08
8.9551622e-06
1.1617022e-07
-2.1968777e-08
8.8688964e-06
1.1199179e-07
-2.5725839e-08
8.7885869e-06
1.0842606e-07
-2.8116482e-08
8.7150617e-06
1.0311514e-07
-2.9589688e-08
8.6486585e-06
9.6751349e-08
-3.034796e-08
8.5895041e-06
8.9696005e-08
-3.0541313e-08
8.5385342e-06
8.1318648e-08
-3.0348444e-08
8.4986362e-06
6.9897103e-08
-2.9998547e-08
8.4768838e-06
5.1627293e-08
-2.987415e-08
8.4870022e-06
2.0675727e-08
-3.0793205e-08
8.5550592e-06
-3.4145545e-08
-3.3908898e-08
8.6098119e-06
-6.4734127e-09
-4.8235294e-08
8.652699e-06
3.3325791e-08
-7.6132058e-08
8.6788109e-06
8.9318784e-08
-1.1531741e-07
8.6833806e-06
1.5759455e-07
-1.6202244e-07
8.671675e-06
2.2365745e-07
-2.1178452e-07
8.6453223e-06
2.8827472e-07
-2.6173283e-07
8.6049533e-06
3.5146821e-07
-3.1089227e-07
8.5504249e-06
4.1348985e-07
-3.5874093e-07
8.4802047e-06
4.7496513e-07
-4.0451488e-07
8.3906966e-06
5.3682183e-07
-4.4707798e-07
8.2752488e-06
6.0041824e-07
-4.8473202e-07
8.1223792e-06
6.6792817e-07
-5.1482043e-07
7.9125687e-06
7.4309149e-07
-5.3304582e-07
7.6122728e-06
8.3274031e-07
-5.3221398e-07
7.1624247e-06
9.4990118e-07
-4.9982903e-07
6.4598896e-06
1.117938e-06
-4.151863e-07
1.3965455e-06
-2.6739601e-07
9.3962777e-06
-9.1226027e-11
-8.6177849e-09
9.5388709e-06
-1.9805421e-10
-1.684723e-08
9.6784421e-06
-3.7038603e-10
-2.3030572e-08
9.8183783e-06
-6.6589665e-10
-2.7278551e-08
9.9582141e-06
-1.176106e-09
-3.0233635e-08
1.0095714e-05
-2.0578135e-09
-3.2327033e-08
1.0229778e-05
-3.5769751e-09
-3.3736077e-08
1.0360221e-05
-6.175882e-09
-3.4570772e-08
1.0487034e-05
-1.0566482e-08
-3.492734e-08
1.0609568e-05
-1.780754e-08
-3.4829256e-08
1.0724412e-05
-2.9126914e-08
-3.4090633e-08
1.0821637e-05
-4.4554963e-08
-3.1993826e-08
1.087737e-05
-6.2748429e-08
-2.7129947e-08
1.0947824e-05
-6.1298854e-08
-1.5627784e-08
1.1017282e-05
-3.4429258e-08
-1.700535e-09
1.1082858e-05
5.2641239e-09
1.8481958e-08
1.1146669e-05
5.6563444e-08
3.7226931e-08
1.1201624e-05
1.1561211e-07
5.3102441e-08
1.1244895e-05
1.7929114e-07
6.5731032e-08
1.1273172e-05
2.4821199e-07
7.5005328e-08
1.1283209e-05
3.2247115e-07
8.1017666e-08
1.1271393e-05
4.02487e-07
8.4341075e-08
1.1233022e-05
4.8943851e-07
8.5813521e-08
1.1161235e-05
5.8558338e-07
8.6692892e-08
1.1045381e-05
6.9490345e-07
8.8962549e-08
1.0868578e-05
8.2431426e-07
9.5677613e-08
1.0603664e-05
9.8605023e-07
1.1171281e-07
1.0206446e-05
1.2018741e-06
1.4536826e-07
9.6014736e-06
1.5102482e-06
2.1279683e-07
1.9699975e-06
3.4266123e-07
9.3962079e-06
-1.1873007e-07
-8.6165808e-09
9.538661e-06
-1.2580675e-07
-1.6844381e-08
9.6779591e-06
-1.1664394e-07
-2.3024644e-08
9.8173902e-06
-1.1283047e-07
-2.7266451e-08
9.9563121e-06
-1.0988895e-07
-3.0209112e-08
1.0092185e-05
-1.0565289e-07
-3.2277673e-08
1.0223395e-05
-1.0114963e-07
-3.3637817e-08
1.0348933e-05
-9.733522e-08
-3.4378665e-08
1.0467605e-05
-9.4675287e-08
-3.4562906e-08
1.0577535e-05
-9.3561202e-08
-3.4176479e-08
1.067579e-05
-9.4322087e-08
-3.3059816e-08
1.0758798e-05
-9.6740965e-08
-3.0821616e-08
1.0822042e-05
-9.9225432e-08
-2.6767623e-08
1.0876371e-05
-9.6182388e-08
-1.944548e-08
1.0933398e-05
-8.2709913e-08
-8.7458202e-09
1.0995913e-05
-6.2369628e-08
5.1190773e-09
1.1065192e-05
-3.6864874e-08
2.4149134e-08
1.1139225e-05
-4.2176778e-09
4.5796654e-08
1.1213871e-05
3.4069126e-08
7.0577505e-08
1.1286029e-05
7.8057332e-08
9.7997928e-08
1.1353655e-05
1.2681821e-07
1.2803001e-07
1.141393e-05
1.814704e-07
1.6074723e-07
1.1463115e-05
2.4380207e-07
1.9646044e-07
1.1496445e-05
3.1656199e-07
2.3570437e-07
1.1507583e-05
4.0387678e-07
2.7990853e-07
1.1488321e-05
5.1252286e-07
3.3108178e-07
1.1428107e-05
6.5397454e-07
3.9232813e-07
1.1313823e-05
8.4786773e-07
4.6834279e-07
1.1129515e-05
1.1278175e-06
5.6680693e-07
1.5428647e-06
6.961142e-07
9.1585563e-06
-8.3423034e-09
9.0489476e-06
-1.6198066e-08
8.9542582e-06
-2.1954555e-08
8.8671248e-06
-2.5697056e-08
8.7852945e-06
-2.8058648e-08
8.7091152e-06
-2.9473598e-08
8.6380804e-06
-3.011485e-08
8.5708179e-06
-3.0072705e-08
8.5055463e-06
-2.940375e-08
8.4400672e-06
-2.8082105e-08
8.3716875e-06
-2.594234e-08
8.2975778e-06
-2.2631281e-08
8.2159367e-06
-1.7584391e-08
8.1298946e-06
-1.0140252e-08
8.0479575e-06
-7.7280707e-10
7.9715524e-06
1.4035372e-08
7.9039606e-06
3.0726867e-08
7.8502948e-06
4.9448075e-08
7.8142232e-06
7.0140707e-08
7.7982173e-06
9.4063124e-08
7.8026513e-06
1.2238434e-07
7.8278483e-06
1.5627359e-07
7.8743215e-06
1.9732966e-07
7.9430271e-06
2.4785809e-07
8.0369172e-06
3.0999002e-07
8.1630476e-06
3.8639861e-07
8.3368637e-06
4.8016913e-07
8.5912654e-06
5.9348346e-07
8.9950554e-06
7.2405514e-07
8.497039e-07
9.1615572e-06
1.1858556e-07
-1.9518571e-08
9.0566236e-06
1.2548398e-07
-3.6755283e-08
8.9663147e-06
1.1613962e-07
-4.7799439e-08
8.8828708e-06
1.1204457e-07
-5.4326429e-08
8.8045738e-06
1.0857653e-07
-5.8395936e-08
8.7324518e-06
1.0338092e-07
-6.0848485e-08
8.6669072e-06
9.7165119e-08
-6.1968255e-08
8.6080891e-06
9.031998e-08
-6.2043009e-08
8.5568448e-06
8.2309012e-08
-6.1412768e-08
8.5156322e-06
7.1658974e-08
-6.044451e-08
8.4902547e-06
5.5165674e-08
-5.9661717e-08
8.492195e-06
2.734402e-08
-6.007663e-08
8.5388725e-06
-1.7489089e-08
-6.3094883e-08
8.5814781e-06
-1.4918947e-08
-7.587602e-08
8.6133359e-06
-5.3071468e-09
-1.0259855e-07
8.6323856e-06
6.9424743e-09
-1.4119131e-07
8.6351968e-06
2.3357222e-08
-1.8804288e-07
8.6230569e-06
3.9621739e-08
-2.3909322e-07
8.5980196e-06
5.4475462e-08
-2.9097684e-07
8.5615926e-06
6.7292137e-08
-3.4154683e-07
8.5146161e-06
7.7950656e-08
-3.8949231e-07
8.4567687e-06
8.7324366e-08
-4.337611e-07
8.3863062e-06
9.6771737e-08
-4.7315228e-07
8.2994272e-06
1.084249e-07
-5.060422e-07
8.1892017e-06
1.2570002e-07
-5.3006127e-07
8.0438815e-06
1.5404713e-07
-5.4154345e-07
7.843829e-06
2.0246035e-07
-5.3439851e-07
7.554383e-06
2.8747787e-07
-4.9764456e-07
7.1087258e-06
4.4450673e-07
-4.1382706e-07
7.7178335e-07
-2.7341018e-07
9.3991573e-06
-8.9392223e-11