/*--------------------------------*- C++ -*----------------------------------*\
| =========                 |                                                 |
| \\      /  F ield         | OpenFOAM: The Open Source CFD Toolbox           |
|  \\    /   O peration     | Version:  2412                                  |
|   \\  /    A nd           | Website:  www.openfoam.com                      |
|    \\/     M anipulation  |                                                 |
\*---------------------------------------------------------------------------*/
FoamFile
{
    version     2.0;
    format      ascii;
    arch        "LSB;label=32;scalar=64";
    class       volScalarField;
    location    "60/topAir";
    object      rho;
}
// * * * * * * * * * * * * * * * * * * * * * * * * * * * * * * * * * * * * * //

dimensions      [1 -3 0 0 0 0 0];

internalField   nonuniform List<scalar> 
1200
(
1.1586209
1.1586206
1.1586202
1.1586196
1.1586188
1.1586178
1.1586163
1.1586144
1.1586118
1.1586087
1.1586046
1.158594
1.1584256
1.154225
1.1505185
1.1473842
1.1448706
1.1429913
1.1417272
1.1410286
1.1408225
1.1410226
1.141537
1.1422745
1.1431493
1.1440849
1.1450349
1.1459958
1.1469317
1.1477817
1.1586201
1.1586201
1.1586201
1.15862
1.1586199
1.1586198
1.1586197
1.1586195
1.1586193
1.1586189
1.1586185
1.1586177
1.1586105
1.15851
1.1583311
1.1580903
1.1578045
1.1574904
1.1571636
1.156838
1.1565248
1.1562325
1.1559663
1.1557282
1.1555167
1.1553273
1.155148
1.1549368
1.1546568
1.154261
1.1586191
1.158619
1.158619
1.158619
1.158619
1.158619
1.158619
1.158619
1.158619
1.1586189
1.1586189
1.1586188
1.1586185
1.158616
1.1586095
1.1585978
1.1585801
1.1585561
1.1585257
1.1584892
1.1584473
1.1584005
1.1583498
1.1582959
1.1582397
1.1581809
1.1581059
1.1579977
1.1578362
1.1576048
1.158618
1.158618
1.158618
1.158618
1.158618
1.158618
1.158618
1.1586179
1.1586179
1.1586179
1.1586179
1.1586179
1.1586179
1.1586178
1.1586175
1.1586168
1.1586155
1.1586134
1.1586103
1.158606
1.1586003
1.1585932
1.1585846
1.1585744
1.1585628
1.1585497
1.1585333
1.1585085
1.1584695
1.1584117
1.1586209
1.1586205
1.1586201
1.1586195
1.1586187
1.1586176
1.1586161
1.158614
1.1586112
1.1586077
1.1586031
1.1585933
1.1584465
1.1542182
1.1504511
1.1472421
1.1446579
1.1427229
1.1414153
1.1406751
1.14042
1.1405587
1.1409995
1.1416558
1.1424488
1.1433077
1.1441694
1.1449784
1.1457495
1.1464703
1.1586201
1.1586201
1.15862
1.15862
1.1586199
1.1586198
1.1586197
1.1586195
1.1586193
1.1586189
1.1586185
1.1586178
1.1586122
1.1585264
1.1583728
1.1581652
1.1579185
1.1576469
1.157364
1.1570814
1.1568084
1.1565518
1.1563158
1.1561025
1.1559112
1.1557383
1.1555763
1.1554133
1.1551936
1.1548341
1.1586191
1.158619
1.158619
1.158619
1.158619
1.158619
1.158619
1.158619
1.158619
1.1586189
1.1586189
1.1586189
1.1586187
1.1586168
1.158612
1.1586035
1.1585906
1.1585731
1.158551
1.1585245
1.1584939
1.1584597
1.1584223
1.1583822
1.1583394
1.1582937
1.1582442
1.1581875
1.1580934
1.157943
1.158618
1.158618
1.158618
1.158618
1.158618
1.158618
1.158618
1.158618
1.1586179
1.1586179
1.1586179
1.1586179
1.1586179
1.1586178
1.1586176
1.1586172
1.1586164
1.1586152
1.1586133
1.1586107
1.1586073
1.158603
1.1585975
1.1585909
1.1585829
1.1585732
1.158561
1.1585445
1.1585165
1.1584718
1.1586208
1.1586205
1.15862
1.1586193
1.1586184
1.1586171
1.1586152
1.1586125
1.1586089
1.158604
1.1585975
1.1585837
1.1583923
1.1528227
1.1479101
1.1437832
1.1405438
1.1382353
1.1367952
1.1361011
1.1360112
1.1363859
1.1370981
1.1380358
1.1391021
1.1402131
1.141295
1.142286
1.1432373
1.1441066
1.1586201
1.1586201
1.15862
1.15862
1.1586199
1.1586198
1.1586196
1.1586194
1.1586191
1.1586187
1.1586182
1.1586173
1.1586103
1.1584994
1.1583023
1.1580377
1.157725
1.1573825
1.1570269
1.1566719
1.1563282
1.1560035
1.1557023
1.1554257
1.1551709
1.1549303
1.1546902
1.1544336
1.1540614
1.153485
1.1586191
1.158619
1.158619
1.158619
1.158619
1.158619
1.158619
1.158619
1.158619
1.1586189
1.1586189
1.1586188
1.1586186
1.1586162
1.1586103
1.1585997
1.1585838
1.1585622
1.1585347
1.1585015
1.1584626
1.1584179
1.1583671
1.1583094
1.158243
1.1581644
1.1580673
1.1579348
1.1577154
1.1573778
1.158618
1.158618
1.158618
1.158618
1.158618
1.158618
1.158618
1.158618
1.1586179
1.1586179
1.1586179
1.1586179
1.1586179
1.1586178
1.1586176
1.1586171
1.1586162
1.1586147
1.1586124
1.1586093
1.158605
1.1585993
1.1585917
1.1585815
1.1585673
1.1585466
1.1585146
1.1584605
1.1583652
1.1582153
1.1586208
1.1586204
1.1586199
1.1586191
1.158618
1.1586165
1.1586142
1.1586109
1.1586061
1.1585995
1.1585899
1.1585688
1.158294
1.150386
1.1434246
1.1375959
1.1331222
1.1301774
1.1285441
1.1279371
1.1280968
1.1288095
1.1299056
1.131252
1.1327445
1.1343016
1.135858
1.1373597
1.1387662
1.1400096
1.1586201
1.1586201
1.15862
1.15862
1.1586199
1.1586198
1.1586196
1.1586193
1.1586189
1.1586184
1.1586177
1.1586165
1.1586064
1.158448
1.1581646
1.157767
1.1572574
1.1566609
1.1560063
1.1553228
1.1546373
1.1539686
1.1533282
1.1527201
1.1521405
1.1515767
1.1510054
1.1503881
1.1496618
1.1487444
1.1586191
1.158619
1.158619
1.158619
1.158619
1.158619
1.158619
1.158619
1.1586189
1.1586189
1.1586189
1.1586188
1.1586185
1.1586151
1.1586065
1.1585908
1.1585658
1.1585299
1.1584811
1.1584165
1.1583316
1.158223
1.1580859
1.1579132
1.1576947
1.1574135
1.1570435
1.156545
1.1558595
1.154941
1.158618
1.158618
1.158618
1.158618
1.158618
1.158618
1.158618
1.158618
1.1586179
1.1586179
1.1586179
1.1586179
1.1586179
1.1586178
1.1586175
1.1586167
1.1586153
1.1586129
1.158609
1.158603
1.1585938
1.1585798
1.1585587
1.1585263
1.1584744
1.1583913
1.1582583
1.1580465
1.1577145
1.157238
1.1586208
1.1586204
1.1586198
1.158619
1.1586178
1.1586161
1.1586135
1.1586097
1.1586041
1.1585959
1.1585835
1.1585537
1.1581601
1.1468717
1.1369478
1.1286066
1.1222879
1.118977
1.1175959
1.1174926
1.1182462
1.11957
1.1212623
1.1231775
1.1252095
1.1272802
1.1293318
1.1313203
1.1332106
1.1349299
1.1586201
1.1586201
1.15862
1.15862
1.1586199
1.1586197
1.1586195
1.1586192
1.1586188
1.1586182
1.1586174
1.1586158
1.1586014
1.1583729
1.1579007
1.1571218
1.1560124
1.1546572
1.1531411
1.1515436
1.1499338
1.1483682
1.14689
1.1455302
1.1443084
1.1432339
1.1423067
1.141518
1.1408541
1.1403003
1.1586191
1.158619
1.158619
1.158619
1.158619
1.158619
1.158619
1.158619
1.1586189
1.1586189
1.1586189
1.1586188
1.1586183
1.1586134
1.1585998
1.1585712
1.1585111
1.1584029
1.1582302
1.1579776
1.157632
1.1571836
1.156626
1.1559554
1.1551693
1.1542641
1.1532314
1.1520536
1.150701
1.149175
1.158618
1.158618
1.158618
1.158618
1.158618
1.158618
1.158618
1.158618
1.1586179
1.1586179
1.1586179
1.1586179
1.1586179
1.1586177
1.1586172
1.1586159
1.1586131
1.1586074
1.1585956
1.1585731
1.1585337
1.158469
1.1583684
1.1582185
1.1580026
1.1576992
1.157279
1.1567008
1.155907
1.1548662
1.1586208
1.1586204
1.1586198
1.158619
1.1586178
1.1586161
1.1586135
1.1586097
1.1586041
1.1585959
1.1585835
1.1585537
1.1581601
1.1468717
1.1369478
1.1286066
1.1222879
1.118977
1.1175959
1.1174926
1.1182462
1.11957
1.1212623
1.1231775
1.1252094
1.1272802
1.1293318
1.1313203
1.1332106
1.1349299
1.1586201
1.1586201
1.15862
1.15862
1.1586199
1.1586197
1.1586195
1.1586192
1.1586188
1.1586182
1.1586174
1.1586158
1.1586014
1.1583729
1.1579007
1.1571218
1.1560124
1.1546572
1.1531411
1.1515436
1.1499338
1.1483682
1.14689
1.1455302
1.1443084
1.1432339
1.1423066
1.141518
1.1408541
1.1403003
1.1586191
1.158619
1.158619
1.158619
1.158619
1.158619
1.158619
1.158619
1.1586189
1.1586189
1.1586189
1.1586188
1.1586183
1.1586134
1.1585998
1.1585712
1.1585111
1.1584029
1.1582302
1.1579776
1.157632
1.1571836
1.156626
1.1559554
1.1551693
1.1542641
1.1532314
1.1520536
1.150701
1.149175
1.158618
1.158618
1.158618
1.158618
1.158618
1.158618
1.158618
1.158618
1.1586179
1.1586179
1.1586179
1.1586179
1.1586179
1.1586177
1.1586172
1.1586159
1.1586131
1.1586074
1.1585956
1.1585731
1.1585337
1.158469
1.1583684
1.1582185
1.1580026
1.1576992
1.157279
1.1567008
1.155907
1.1548662
1.1586208
1.1586204
1.1586199
1.1586191
1.158618
1.1586165
1.1586142
1.1586109
1.1586061
1.1585995
1.1585899
1.1585688
1.158294
1.150386
1.1434246
1.1375959
1.1331222
1.1301774
1.1285441
1.1279371
1.1280968
1.1288095
1.1299057
1.131252
1.1327445
1.1343016
1.1358579
1.1373597
1.1387661
1.1400096
1.1586201
1.1586201
1.15862
1.15862
1.1586199
1.1586198
1.1586196
1.1586193
1.1586189
1.1586184
1.1586177
1.1586165
1.1586064
1.158448
1.1581646
1.157767
1.1572574
1.1566609
1.1560063
1.1553228
1.1546373
1.1539686
1.1533282
1.1527201
1.1521405
1.1515767
1.1510053
1.1503881
1.1496618
1.1487443
1.1586191
1.158619
1.158619
1.158619
1.158619
1.158619
1.158619
1.158619
1.1586189
1.1586189
1.1586189
1.1586188
1.1586185
1.1586151
1.1586065
1.1585908
1.1585658
1.1585299
1.1584811
1.1584165
1.1583316
1.158223
1.1580859
1.1579132
1.1576947
1.1574135
1.1570435
1.156545
1.1558595
1.154941
1.158618
1.158618
1.158618
1.158618
1.158618
1.158618
1.158618
1.158618
1.1586179
1.1586179
1.1586179
1.1586179
1.1586179
1.1586178
1.1586175
1.1586167
1.1586153
1.1586129
1.158609
1.158603
1.1585938
1.1585798
1.1585587
1.1585263
1.1584744
1.1583913
1.1582583
1.1580465
1.1577145
1.157238
1.1586208
1.1586205
1.15862
1.1586193
1.1586184
1.1586171
1.1586152
1.1586125
1.1586089
1.158604
1.1585975
1.1585837
1.1583923
1.1528227
1.1479101
1.1437832
1.1405438
1.1382353
1.1367951
1.1361011
1.1360112
1.1363859
1.1370981
1.1380358
1.1391021
1.1402131
1.141295
1.142286
1.1432372
1.1441066
1.1586201
1.1586201
1.15862
1.15862
1.1586199
1.1586198
1.1586196
1.1586194
1.1586191
1.1586187
1.1586182
1.1586173
1.1586103
1.1584994
1.1583023
1.1580377
1.157725
1.1573825
1.1570269
1.1566719
1.1563282
1.1560035
1.1557023
1.1554257
1.1551709
1.1549303
1.1546902
1.1544335
1.1540614
1.153485
1.1586191
1.158619
1.158619
1.158619
1.158619
1.158619
1.158619
1.158619
1.158619
1.1586189
1.1586189
1.1586188
1.1586186
1.1586162
1.1586103
1.1585997
1.1585838
1.1585622
1.1585347
1.1585015
1.1584626
1.1584179
1.1583671
1.1583094
1.158243
1.1581644
1.1580673
1.1579348
1.1577154
1.1573778
1.158618
1.158618
1.158618
1.158618
1.158618
1.158618
1.158618
1.158618
1.1586179
1.1586179
1.1586179
1.1586179
1.1586179
1.1586178
1.1586176
1.1586171
1.1586162
1.1586147
1.1586124
1.1586093
1.158605
1.1585993
1.1585917
1.1585815
1.1585673
1.1585466
1.1585146
1.1584605
1.1583652
1.1582153
1.1586209
1.1586205
1.1586201
1.1586195
1.1586187
1.1586176
1.1586161
1.158614
1.1586112
1.1586077
1.1586031
1.1585933
1.1584465
1.1542182
1.1504511
1.1472421
1.1446579
1.1427229
1.1414153
1.1406751
1.14042
1.1405586
1.1409995
1.1416558
1.1424488
1.1433077
1.1441693
1.1449783
1.1457495
1.1464703
1.1586201
1.1586201
1.15862
1.15862
1.1586199
1.1586198
1.1586197
1.1586195
1.1586193
1.1586189
1.1586185
1.1586178
1.1586122
1.1585264
1.1583728
1.1581652
1.1579185
1.1576469
1.157364
1.1570814
1.1568084
1.1565518
1.1563158
1.1561025
1.1559112
1.1557383
1.1555763
1.1554133
1.1551936
1.1548341
1.1586191
1.158619
1.158619
1.158619
1.158619
1.158619
1.158619
1.158619
1.158619
1.1586189
1.1586189
1.1586189
1.1586187
1.1586168
1.158612
1.1586035
1.1585906
1.1585731
1.158551
1.1585245
1.1584939
1.1584597
1.1584223
1.1583822
1.1583394
1.1582937
1.1582442
1.1581875
1.1580934
1.157943
1.158618
1.158618
1.158618
1.158618
1.158618
1.158618
1.158618
1.158618
1.1586179
1.1586179
1.1586179
1.1586179
1.1586179
1.1586178
1.1586176
1.1586172
1.1586164
1.1586152
1.1586133
1.1586107
1.1586073
1.158603
1.1585975
1.1585909
1.1585829
1.1585732
1.158561
1.1585445
1.1585165
1.1584718
1.1586209
1.1586206
1.1586202
1.1586196
1.1586188
1.1586178
1.1586163
1.1586144
1.1586118
1.1586087
1.1586046
1.158594
1.1584256
1.154225
1.1505186
1.1473842
1.1448706
1.1429912
1.1417272
1.1410286
1.1408225
1.1410226
1.141537
1.1422744
1.1431492
1.1440848
1.1450348
1.1459958
1.1469316
1.1477816
1.1586201
1.1586201
1.1586201
1.15862
1.1586199
1.1586198
1.1586197
1.1586195
1.1586193
1.1586189
1.1586185
1.1586177
1.1586105
1.15851
1.1583311
1.1580903
1.1578045
1.1574904
1.1571636
1.156838
1.1565248
1.1562325
1.1559663
1.1557282
1.1555167
1.1553273
1.155148
1.1549368
1.1546568
1.154261
1.1586191
1.158619
1.158619
1.158619
1.158619
1.158619
1.158619
1.158619
1.158619
1.1586189
1.1586189
1.1586188
1.1586185
1.158616
1.1586095
1.1585978
1.1585801
1.1585561
1.1585257
1.1584892
1.1584473
1.1584005
1.1583498
1.1582959
1.1582397
1.1581809
1.1581059
1.1579977
1.1578362
1.1576048
1.158618
1.158618
1.158618
1.158618
1.158618
1.158618
1.158618
1.1586179
1.1586179
1.1586179
1.1586179
1.1586179
1.1586179
1.1586178
1.1586175
1.1586168
1.1586155
1.1586134
1.1586103
1.158606
1.1586003
1.1585932
1.1585846
1.1585744
1.1585628
1.1585497
1.1585333
1.1585085
1.1584695
1.1584117
)
;

boundaryField
{
    maxY
    {
        type            calculated;
        value           nonuniform List<scalar> 
300
(
1.1586175
1.1586175
1.1586175
1.1586175
1.1586175
1.1586175
1.1586175
1.1586175
1.1586175
1.1586175
1.1586175
1.1586175
1.1586175
1.1586175
1.1586175
1.1586175
1.1586175
1.1586175
1.1586175
1.1586175
1.1586175
1.1586175
1.1586175
1.1586175
1.1586175
1.1586175
1.1586175
1.1586175
1.1586175
1.1586175
1.1586175
1.1586175
1.1586175
1.1586175
1.1586175
1.1586175
1.1586175
1.1586175
1.1586175
1.1586175
1.1586174
1.1586174
1.1586174
1.1586174
1.1586174
1.1586174
1.1586174
1.1586174
1.1586174
1.1586174
1.1586174
1.1586174
1.1586174
1.1586174
1.1586174
1.1586174
1.1586174
1.1586174
1.1586174
1.1586174
1.1586174
1.1586174
1.1586174
1.1586174
1.1586174
1.1586174
1.1586174
1.1586174
1.1586174
1.1586174
1.1586174
1.1586174
1.1586174
1.1586174
1.1586174
1.1586174
1.1586174
1.1586174
1.1586174
1.1586174
1.1586174
1.1586174
1.1586174
1.1586174
1.1586174
1.1586174
1.1586174
1.1586174
1.1586174
1.1586174
1.1586174
1.1586174
1.1586174
1.1586174
1.1586174
1.1586174
1.1586174
1.1586174
1.1586174
1.1586174
1.1586174
1.1586174
1.1586174
1.1586174
1.1586174
1.1586174
1.1586174
1.1586174
1.1586174
1.1586174
1.1586174
1.1586174
1.1586174
1.1586174
1.1586174
1.1586174
1.1586174
1.1586174
1.1586174
1.1586174
1.1586174
1.1586174
1.1586174
1.1586174
1.1586174
1.1586174
1.1586174
1.1586174
1.1586174
1.1586174
1.1586173
1.1586173
1.1586173
1.1586173
1.1586172
1.1586172
1.1586173
1.1586173
1.1586173
1.1586173
1.1586169
1.1586171
1.1586171
1.1586169
1.1586167
1.1586167
1.1586169
1.1586171
1.1586171
1.1586169
1.1586162
1.1586167
1.1586166
1.1586162
1.1586154
1.1586154
1.1586162
1.1586166
1.1586167
1.1586162
1.1586149
1.1586159
1.1586156
1.1586148
1.1586126
1.1586126
1.1586148
1.1586156
1.1586159
1.1586149
1.1586129
1.1586147
1.1586141
1.1586123
1.1586069
1.1586069
1.1586123
1.1586141
1.1586147
1.1586129
1.1586098
1.1586128
1.1586119
1.1586085
1.1585951
1.1585951
1.1586085
1.1586119
1.1586128
1.1586098
1.1586055
1.1586102
1.1586088
1.1586025
1.1585726
1.1585726
1.1586025
1.1586088
1.1586102
1.1586055
1.1585998
1.1586068
1.1586045
1.1585933
1.1585332
1.1585332
1.1585933
1.1586045
1.1586068
1.1585998
1.1585927
1.1586024
1.1585988
1.1585793
1.1584685
1.1584685
1.1585793
1.1585988
1.1586024
1.1585927
1.158584
1.158597
1.1585912
1.1585582
1.1583678
1.1583678
1.1585582
1.1585912
1.158597
1.158584
1.1585739
1.1585904
1.158581
1.1585258
1.158218
1.158218
1.1585258
1.158581
1.1585904
1.1585739
1.1585622
1.1585824
1.1585668
1.1584739
1.1580021
1.1580021
1.1584739
1.1585668
1.1585824
1.1585622
1.1585491
1.1585726
1.1585461
1.1583908
1.1576987
1.1576987
1.1583908
1.1585461
1.1585726
1.1585491
1.1585328
1.1585604
1.1585141
1.1582578
1.1572785
1.1572785
1.1582578
1.1585141
1.1585604
1.1585328
1.158508
1.1585439
1.15846
1.1580459
1.1567003
1.1567003
1.1580459
1.15846
1.1585439
1.158508
1.158469
1.158516
1.1583647
1.1577139
1.1559065
1.1559065
1.1577139
1.1583647
1.158516
1.158469
1.1584112
1.1584713
1.1582148
1.1572375
1.1548657
1.1548656
1.1572375
1.1582148
1.1584713
1.1584112
)
;
    }
    minX
    {
        type            calculated;
        value           nonuniform List<scalar> 
40
(
1.1586212
1.1586201
1.1586191
1.158618
1.1586212
1.1586201
1.1586191
1.158618
1.1586212
1.1586201
1.1586191
1.158618
1.1586212
1.1586201
1.1586191
1.158618
1.1586212
1.1586201
1.1586191
1.158618
1.1586212
1.1586201
1.1586191
1.158618
1.1586212
1.1586201
1.1586191
1.158618
1.1586212
1.1586201
1.1586191
1.158618
1.1586212
1.1586201
1.1586191
1.158618
1.1586212
1.1586201
1.1586191
1.158618
)
;
    }
    maxX
    {
        type            calculated;
        value           nonuniform List<scalar> 
40
(
1.1477919
1.1542656
1.1576062
1.158412
1.1464802
1.1548371
1.1579436
1.1584719
1.1441164
1.1534881
1.1573786
1.1582156
1.1400199
1.1487492
1.1549431
1.1572389
1.1349405
1.1403078
1.1491795
1.1548683
1.1349405
1.1403078
1.1491795
1.1548683
1.1400199
1.1487492
1.1549431
1.1572389
1.1441164
1.1534881
1.1573786
1.1582156
1.1464801
1.1548371
1.1579436
1.1584719
1.1477919
1.1542656
1.1576062
1.158412
)
;
    }
    minZ
    {
        type            calculated;
        value           nonuniform List<scalar> 
120
(
1.1586209
1.1586201
1.1586191
1.158618
1.1586206
1.1586201
1.158619
1.158618
1.1586202
1.1586201
1.158619
1.158618
1.1586196
1.15862
1.158619
1.158618
1.1586188
1.1586199
1.158619
1.158618
1.1586178
1.1586198
1.158619
1.158618
1.1586163
1.1586197
1.158619
1.158618
1.1586144
1.1586195
1.158619
1.1586179
1.1586118
1.1586193
1.158619
1.1586179
1.1586087
1.1586189
1.1586189
1.1586179
1.1586046
1.1586185
1.1586189
1.1586179
1.158594
1.1586177
1.1586188
1.1586179
1.1584256
1.1586105
1.1586185
1.1586179
1.154225
1.15851
1.158616
1.1586178
1.1505185
1.1583311
1.1586095
1.1586175
1.1473842
1.1580903
1.1585978
1.1586168
1.1448706
1.1578045
1.1585801
1.1586155
1.1429913
1.1574904
1.1585561
1.1586134
1.1417272
1.1571636
1.1585257
1.1586103
1.1410286
1.156838
1.1584892
1.158606
1.1408225
1.1565248
1.1584473
1.1586003
1.1410226
1.1562325
1.1584005
1.1585932
1.141537
1.1559663
1.1583498
1.1585846
1.1422745
1.1557282
1.1582959
1.1585744
1.1431493
1.1555167
1.1582397
1.1585628
1.1440849
1.1553273
1.1581809
1.1585497
1.1450349
1.155148
1.1581059
1.1585333
1.1459958
1.1549368
1.1579977
1.1585085
1.1469317
1.1546568
1.1578362
1.1584695
1.1477817
1.154261
1.1576048
1.1584117
)
;
    }
    maxZ
    {
        type            calculated;
        value           nonuniform List<scalar> 
120
(
1.1586209
1.1586201
1.1586191
1.158618
1.1586206
1.1586201
1.158619
1.158618
1.1586202
1.1586201
1.158619
1.158618
1.1586196
1.15862
1.158619
1.158618
1.1586188
1.1586199
1.158619
1.158618
1.1586178
1.1586198
1.158619
1.158618
1.1586163
1.1586197
1.158619
1.158618
1.1586144
1.1586195
1.158619
1.1586179
1.1586118
1.1586193
1.158619
1.1586179
1.1586087
1.1586189
1.1586189
1.1586179
1.1586046
1.1586185
1.1586189
1.1586179
1.158594
1.1586177
1.1586188
1.1586179
1.1584256
1.1586105
1.1586185
1.1586179
1.154225
1.15851
1.158616
1.1586178
1.1505186
1.1583311
1.1586095
1.1586175
1.1473842
1.1580903
1.1585978
1.1586168
1.1448706
1.1578045
1.1585801
1.1586155
1.1429912
1.1574904
1.1585561
1.1586134
1.1417272
1.1571636
1.1585257
1.1586103
1.1410286
1.156838
1.1584892
1.158606
1.1408225
1.1565248
1.1584473
1.1586003
1.1410226
1.1562325
1.1584005
1.1585932
1.141537
1.1559663
1.1583498
1.1585846
1.1422744
1.1557282
1.1582959
1.1585744
1.1431492
1.1555167
1.1582397
1.1585628
1.1440848
1.1553273
1.1581809
1.1585497
1.1450348
1.155148
1.1581059
1.1585333
1.1459958
1.1549368
1.1579977
1.1585085
1.1469316
1.1546568
1.1578362
1.1584695
1.1477816
1.154261
1.1576048
1.1584117
)
;
    }
    topAir_to_rightSolid
    {
        type            calculated;
        value           nonuniform List<scalar> 
130
(
1.1064819
1.1136717
1.1209208
1.1277899
1.1339807
1.1393312
1.1437896
1.1473811
1.1501766
1.1522664
1.153741
1.1546778
1.155132
1.0982694
1.1072935
1.1161833
1.1243923
1.1316098
1.137712
1.1427022
1.1466598
1.1497014
1.1519524
1.1535287
1.1545246
1.1550059
1.0819284
1.0950609
1.1074109
1.1182883
1.1274547
1.1349296
1.1408618
1.1454531
1.1489132
1.1514348
1.1531802
1.154274
1.1548002
1.0581629
1.0787327
1.0965117
1.1111193
1.1227789
1.1318966
1.138902
1.1441893
1.1480973
1.1509032
1.152824
1.1540187
1.1545909
1.0313951
1.0636902
1.0877283
1.1058348
1.1195301
1.1298699
1.1376253
1.1433793
1.1475794
1.1505675
1.1525996
1.1538578
1.1544588
1.0313951
1.0636902
1.0877283
1.1058348
1.1195301
1.1298699
1.1376253
1.1433793
1.1475794
1.1505675
1.1525996
1.1538577
1.1544588
1.0581629
1.0787327
1.0965116
1.1111192
1.1227789
1.1318966
1.1389019
1.1441893
1.1480972
1.1509032
1.152824
1.1540187
1.1545909
1.0819284
1.0950608
1.1074109
1.1182882
1.1274547
1.1349295
1.1408617
1.145453
1.1489131
1.1514348
1.1531801
1.154274
1.1548002
1.0982693
1.1072934
1.1161832
1.1243922
1.1316098
1.137712
1.1427021
1.1466598
1.1497014
1.1519524
1.1535286
1.1545245
1.1550059
1.1064817
1.1136715
1.1209206
1.1277898
1.1339806
1.1393311
1.1437895
1.147381
1.1501765
1.1522663
1.153741
1.1546778
1.155132
)
;
    }
    topAir_to_heater
    {
        type            calculated;
        value           nonuniform List<scalar> 
40
(
1.0885657
1.0905586
1.0944277
1.0998943
1.0756872
1.0781476
1.0829771
1.0898891
1.0493182
1.0526324
1.0593504
1.0693781
1.0087071
1.012853
1.021889
1.0369102
0.95426878
0.95799545
0.96744277
0.98717594
0.95426873
0.95799539
0.9674427
0.98717588
1.0087071
1.012853
1.021889
1.0369102
1.0493182
1.0526323
1.0593503
1.069378
1.0756873
1.0781475
1.082977
1.0898889
1.0885658
1.0905586
1.0944275
1.0998941
)
;
    }
    topAir_to_leftSolid
    {
        type            calculated;
        value           nonuniform List<scalar> 
130
(
1.1586151
1.158614
1.1586119
1.1586084
1.1586034
1.1585965
1.1585876
1.1585765
1.1585633
1.1585485
1.1585333
1.1585194
1.1585094
1.1586147
1.1586135
1.1586111
1.1586072
1.1586014
1.1585934
1.1585828
1.158569
1.1585518
1.1585316
1.1585093
1.1584875
1.1584706
1.158614
1.1586127
1.1586098
1.1586051
1.1585982
1.1585881
1.1585742
1.1585553
1.1585304
1.1584987
1.1584602
1.1584173
1.1583777
1.1586133
1.1586118
1.1586085
1.158603
1.1585947
1.1585824
1.1585647
1.1585396
1.1585046
1.1584562
1.1583908
1.1583056
1.1582062
1.1586129
1.1586112
1.1586077
1.1586017
1.1585924
1.1585786
1.1585582
1.1585285
1.1584852
1.1584218
1.1583279
1.1581864
1.1579768
1.1586129
1.1586112
1.1586077
1.1586017
1.1585924
1.1585786
1.1585582
1.1585285
1.1584852
1.1584218
1.1583279
1.1581864
1.1579768
1.1586133
1.1586118
1.1586085
1.158603
1.1585947
1.1585824
1.1585647
1.1585396
1.1585046
1.1584562
1.1583908
1.1583056
1.1582062
1.158614
1.1586127
1.1586098
1.1586051
1.1585982
1.1585881
1.1585742
1.1585553
1.1585304
1.1584987
1.1584602
1.1584173
1.1583776
1.1586147
1.1586135
1.1586111
1.1586072
1.1586014
1.1585934
1.1585828
1.158569
1.1585518
1.1585316
1.1585093
1.1584875
1.1584706
1.1586151
1.158614
1.1586119
1.1586084
1.1586034
1.1585965
1.1585876
1.1585765
1.1585633
1.1585485
1.1585333
1.1585194
1.1585094
)
;
    }
}


// ************************************************************************* //
