/*--------------------------------*- C++ -*----------------------------------*\
| =========                 |                                                 |
| \\      /  F ield         | OpenFOAM: The Open Source CFD Toolbox           |
|  \\    /   O peration     | Version:  2412                                  |
|   \\  /    A nd           | Website:  www.openfoam.com                      |
|    \\/     M anipulation  |                                                 |
\*---------------------------------------------------------------------------*/
FoamFile
{
    version     2.0;
    format      ascii;
    arch        "LSB;label=32;scalar=64";
    class       volScalarField;
    location    "60/topAir";
    object      T;
}
// * * * * * * * * * * * * * * * * * * * * * * * * * * * * * * * * * * * * * //

dimensions      [0 0 0 1 0 0 0];

internalField   nonuniform List<scalar> 
1200
(
300.00007
300.00015
300.00026
300.0004
300.0006
300.00087
300.00125
300.00175
300.00241
300.00323
300.00428
300.00703
300.05064
301.14262
302.11276
302.93804
303.60316
304.10235
304.43903
304.62543
304.68046
304.62702
304.48976
304.29318
304.06032
303.81166
303.5596
303.30506
303.05757
302.83314
300
300.00001
300.00001
300.00003
300.00004
300.00007
300.0001
300.00015
300.00022
300.0003
300.0004
300.00061
300.00248
300.02851
300.07483
300.13723
300.21133
300.2928
300.37759
300.46214
300.5435
300.61949
300.68871
300.75066
300.8057
300.85502
300.90171
300.95674
301.02971
301.13294
300
300
300
300
300.00001
300.00001
300.00001
300.00001
300.00002
300.00003
300.00004
300.00005
300.00012
300.00079
300.00248
300.0055
300.01008
300.0163
300.02417
300.03361
300.04447
300.05658
300.06972
300.08367
300.09824
300.11347
300.13291
300.16094
300.20283
300.26282
300
300
300
300
300.00001
300.00001
300.00001
300.00001
300.00001
300.00001
300.00001
300.00001
300.00002
300.00005
300.00013
300.00031
300.00064
300.00118
300.00198
300.00309
300.00456
300.0064
300.00864
300.01128
300.01429
300.01768
300.02191
300.02832
300.03844
300.0534
300.00008
300.00016
300.00027
300.00042
300.00063
300.00092
300.00131
300.00186
300.00257
300.00349
300.00467
300.00722
300.04524
301.1444
302.13048
302.97557
303.65958
304.17376
304.52222
304.71983
304.788
304.75094
304.63321
304.45806
304.24674
304.01817
303.78923
303.57458
303.37026
303.17951
300
300.00001
300.00001
300.00003
300.00004
300.00007
300.0001
300.00015
300.00021
300.0003
300.0004
300.00058
300.00204
300.02426
300.06405
300.11782
300.18178
300.25219
300.32557
300.39893
300.46982
300.53649
300.59782
300.65329
300.70304
300.74802
300.79018
300.83261
300.88983
300.9835
300
300
300
300
300.00001
300.00001
300.00001
300.00001
300.00002
300.00002
300.00003
300.00004
300.00009
300.00058
300.00181
300.00402
300.00735
300.01188
300.01761
300.02448
300.0324
300.04126
300.05093
300.06133
300.07241
300.08424
300.09709
300.11176
300.13614
300.17514
300
300
300
300
300
300.00001
300.00001
300.00001
300.00001
300.00001
300.00001
300.00001
300.00002
300.00003
300.00008
300.00019
300.00039
300.00072
300.0012
300.00187
300.00275
300.00388
300.00528
300.007
300.00907
300.01159
300.01475
300.01902
300.02626
300.03784
300.00008
300.00018
300.0003
300.00047
300.00071
300.00106
300.00155
300.00223
300.00317
300.00443
300.00612
300.0097
300.05926
301.50893
302.79927
303.8918
304.75492
305.37301
305.75986
305.94666
305.97087
305.86998
305.67841
305.42653
305.14062
304.84331
304.55432
304.29011
304.03691
303.80589
300
300.00001
300.00002
300.00003
300.00005
300.00008
300.00012
300.00017
300.00025
300.00035
300.00049
300.00072
300.00254
300.03124
300.0823
300.15086
300.23194
300.32078
300.41308
300.50527
300.5946
300.67904
300.75739
300.82939
300.89574
300.95843
301.02101
301.08793
301.18501
301.33552
300
300
300
300
300.00001
300.00001
300.00001
300.00001
300.00002
300.00003
300.00004
300.00005
300.00011
300.00072
300.00226
300.005
300.00912
300.01472
300.02182
300.03042
300.0405
300.05208
300.06523
300.08019
300.0974
300.11776
300.14292
300.17727
300.23414
300.32172
300
300
300
300
300
300.00001
300.00001
300.00001
300.00001
300.00001
300.00001
300.00001
300.00002
300.00004
300.0001
300.00023
300.00047
300.00085
300.00143
300.00224
300.00335
300.00483
300.00679
300.00943
300.01311
300.01847
300.02675
300.04076
300.06544
300.10428
300.00009
300.0002
300.00033
300.00053
300.00081
300.00121
300.00181
300.00266
300.00388
300.00561
300.00809
300.01355
300.08473
302.14757
303.9871
305.54464
306.75098
307.55025
307.99534
308.1611
308.11748
307.92292
307.62421
307.25809
306.85323
306.43201
306.01214
305.60808
305.23064
304.89771
300
300.00001
300.00002
300.00003
300.00006
300.00009
300.00014
300.0002
300.0003
300.00043
300.00061
300.00093
300.00354
300.04455
300.11799
300.22105
300.35325
300.50814
300.6783
300.8562
301.0348
301.20925
301.37651
301.53549
301.68717
301.83487
301.98471
302.14673
302.33761
302.57908
300
300
300
300
300.00001
300.00001
300.00001
300.00002
300.00002
300.00003
300.00004
300.00006
300.00015
300.00102
300.00324
300.00731
300.01377
300.02309
300.03572
300.05245
300.07443
300.10256
300.1381
300.18286
300.23951
300.31246
300.40849
300.53797
300.71622
300.95536
300
300
300
300
300
300.00001
300.00001
300.00001
300.00001
300.00001
300.00001
300.00001
300.00002
300.00005
300.00013
300.00033
300.00069
300.00132
300.00232
300.00387
300.00625
300.00987
300.01534
300.02373
300.03717
300.05869
300.09314
300.14804
300.23412
300.35773
300.0001
300.00021
300.00035
300.00056
300.00086
300.00131
300.00198
300.00296
300.0044
300.00652
300.00974
300.01747
300.11942
303.07342
305.71882
307.97829
309.71227
310.62866
311.01252
311.04127
310.83167
310.46412
309.99554
309.46695
308.90811
308.34067
307.78052
307.23952
306.72704
306.26237
300
300.00001
300.00002
300.00003
300.00006
300.0001
300.00015
300.00022
300.00033
300.00048
300.0007
300.00112
300.00483
300.06402
300.18637
300.38846
300.67673
301.02962
301.42539
301.84356
302.26611
302.67821
303.06831
303.42806
303.75203
304.03752
304.28433
304.49454
304.67174
304.81971
300
300
300
300
300.00001
300.00001
300.00001
300.00002
300.00002
300.00003
300.00005
300.00007
300.00019
300.00145
300.00498
300.01239
300.02794
300.05596
300.1007
300.16616
300.25577
300.37212
300.51694
300.69128
300.8959
301.13187
301.40152
301.70965
302.06432
302.46541
300
300
300
300
300
300.00001
300.00001
300.00001
300.00001
300.00001
300.00001
300.00001
300.00002
300.00006
300.00019
300.00052
300.00126
300.00274
300.00579
300.0116
300.02181
300.03858
300.06464
300.10347
300.15941
300.23808
300.34709
300.49722
300.70358
300.9746
300.0001
300.00021
300.00035
300.00056
300.00086
300.00131
300.00198
300.00296
300.0044
300.00652
300.00974
300.01747
300.11942
303.07342
305.71882
307.97829
309.71227
310.62866
311.01253
311.04127
310.83167
310.46412
309.99554
309.46696
308.90811
308.34068
307.78052
307.23953
306.72704
306.26237
300
300.00001
300.00002
300.00003
300.00006
300.0001
300.00015
300.00022
300.00033
300.00048
300.0007
300.00112
300.00483
300.06402
300.18637
300.38846
300.67673
301.02962
301.42539
301.84356
302.26611
302.67821
303.06831
303.42806
303.75203
304.03752
304.28433
304.49455
304.67175
304.81972
300
300
300
300
300.00001
300.00001
300.00001
300.00002
300.00002
300.00003
300.00005
300.00007
300.00019
300.00145
300.00498
300.01239
300.02794
300.05596
300.1007
300.16616
300.25577
300.37212
300.51694
300.69128
300.8959
301.13187
301.40152
301.70965
302.06432
302.46541
300
300
300
300
300
300.00001
300.00001
300.00001
300.00001
300.00001
300.00001
300.00001
300.00002
300.00006
300.00019
300.00052
300.00126
300.00274
300.00579
300.0116
300.02181
300.03858
300.06464
300.10347
300.15941
300.23808
300.34709
300.49722
300.70358
300.9746
300.00009
300.0002
300.00033
300.00053
300.00081
300.00121
300.00181
300.00266
300.00388
300.00561
300.00809
300.01355
300.08473
302.14757
303.9871
305.54464
306.75098
307.55025
307.99534
308.1611
308.11748
307.92292
307.6242
307.25809
306.85323
306.43201
306.01214
305.60808
305.23064
304.89771
300
300.00001
300.00002
300.00003
300.00006
300.00009
300.00014
300.0002
300.0003
300.00043
300.00061
300.00093
300.00354
300.04455
300.11799
300.22105
300.35325
300.50814
300.6783
300.8562
301.0348
301.20925
301.37651
301.53549
301.68717
301.83487
301.98471
302.14674
302.33761
302.57908
300
300
300
300
300.00001
300.00001
300.00001
300.00002
300.00002
300.00003
300.00004
300.00006
300.00015
300.00102
300.00324
300.00731
300.01377
300.02309
300.03572
300.05245
300.07443
300.10256
300.1381
300.18286
300.23951
300.31246
300.40849
300.53797
300.71622
300.95536
300
300
300
300
300
300.00001
300.00001
300.00001
300.00001
300.00001
300.00001
300.00001
300.00002
300.00005
300.00013
300.00033
300.00069
300.00132
300.00232
300.00387
300.00625
300.00987
300.01534
300.02373
300.03717
300.05869
300.09314
300.14804
300.23412
300.35773
300.00008
300.00018
300.0003
300.00047
300.00071
300.00106
300.00155
300.00223
300.00317
300.00443
300.00612
300.0097
300.05926
301.50893
302.79927
303.89181
304.75492
305.37301
305.75987
305.94666
305.97087
305.86998
305.67841
305.42654
305.14062
304.84331
304.55433
304.29011
304.03692
303.8059
300
300.00001
300.00002
300.00003
300.00005
300.00008
300.00012
300.00017
300.00025
300.00035
300.00049
300.00072
300.00254
300.03124
300.0823
300.15086
300.23194
300.32078
300.41308
300.50527
300.5946
300.67904
300.75739
300.82939
300.89574
300.95843
301.02101
301.08793
301.18502
301.33552
300
300
300
300
300.00001
300.00001
300.00001
300.00001
300.00002
300.00003
300.00004
300.00005
300.00011
300.00072
300.00226
300.005
300.00912
300.01472
300.02182
300.03042
300.0405
300.05208
300.06523
300.08019
300.0974
300.11776
300.14292
300.17727
300.23414
300.32172
300
300
300
300
300
300.00001
300.00001
300.00001
300.00001
300.00001
300.00001
300.00001
300.00002
300.00004
300.0001
300.00023
300.00047
300.00085
300.00143
300.00224
300.00335
300.00483
300.00679
300.00943
300.01311
300.01847
300.02675
300.04076
300.06544
300.10428
300.00008
300.00016
300.00027
300.00042
300.00063
300.00092
300.00131
300.00186
300.00257
300.00349
300.00467
300.00722
300.04524
301.1444
302.13048
302.97557
303.65958
304.17376
304.52223
304.71984
304.788
304.75095
304.63321
304.45807
304.24675
304.01818
303.78924
303.57459
303.37027
303.17952
300
300.00001
300.00001
300.00003
300.00004
300.00007
300.0001
300.00015
300.00021
300.0003
300.0004
300.00058
300.00204
300.02426
300.06405
300.11782
300.18178
300.25219
300.32558
300.39893
300.46982
300.53649
300.59782
300.65329
300.70304
300.74802
300.79019
300.83261
300.88983
300.9835
300
300
300
300
300.00001
300.00001
300.00001
300.00001
300.00002
300.00002
300.00003
300.00004
300.00009
300.00058
300.00181
300.00402
300.00735
300.01188
300.01761
300.02448
300.0324
300.04126
300.05093
300.06133
300.07241
300.08424
300.09709
300.11176
300.13614
300.17514
300
300
300
300
300
300.00001
300.00001
300.00001
300.00001
300.00001
300.00001
300.00001
300.00002
300.00003
300.00008
300.00019
300.00039
300.00072
300.0012
300.00187
300.00275
300.00388
300.00528
300.007
300.00907
300.01159
300.01475
300.01902
300.02626
300.03784
300.00007
300.00015
300.00026
300.0004
300.0006
300.00087
300.00125
300.00175
300.00241
300.00323
300.00428
300.00703
300.05064
301.14261
302.11276
302.93804
303.60316
304.10236
304.43904
304.62544
304.68047
304.62703
304.48977
304.29319
304.06033
303.81167
303.55961
303.30507
303.05759
302.83315
300
300.00001
300.00001
300.00003
300.00004
300.00007
300.0001
300.00015
300.00022
300.0003
300.0004
300.00061
300.00248
300.02851
300.07483
300.13723
300.21133
300.2928
300.37759
300.46214
300.5435
300.61949
300.68871
300.75066
300.8057
300.85503
300.90171
300.95674
301.02971
301.13295
300
300
300
300
300.00001
300.00001
300.00001
300.00001
300.00002
300.00003
300.00004
300.00005
300.00012
300.00079
300.00248
300.0055
300.01008
300.0163
300.02417
300.03361
300.04447
300.05658
300.06972
300.08367
300.09825
300.11347
300.13291
300.16094
300.20283
300.26282
300
300
300
300
300.00001
300.00001
300.00001
300.00001
300.00001
300.00001
300.00001
300.00001
300.00002
300.00005
300.00013
300.00031
300.00064
300.00118
300.00198
300.00309
300.00456
300.0064
300.00864
300.01128
300.01429
300.01768
300.02191
300.02832
300.03844
300.0534
)
;

boundaryField
{
    maxY
    {
        type            zeroGradient;
    }
    minX
    {
        type            fixedValue;
        value           uniform 300;
    }
    maxX
    {
        type            inletOutlet;
        inletValue      uniform 300;
        value           nonuniform List<scalar> 
40
(
302.83044
301.13174
300.26246
300.05332
303.17692
300.98272
300.17498
300.0378
303.80329
301.33471
300.3215
300.1042
304.89497
302.57781
300.95482
300.35749
306.25951
304.81771
302.46423
300.97404
306.25952
304.81771
302.46423
300.97404
304.89497
302.57781
300.95482
300.3575
303.8033
301.33471
300.3215
300.1042
303.17693
300.98272
300.17498
300.0378
302.83045
301.13174
300.26246
300.05332
)
;
    }
    minZ
    {
        type            zeroGradient;
    }
    maxZ
    {
        type            zeroGradient;
    }
    topAir_to_rightSolid
    {
        type            compressible::turbulentTemperatureRadCoupledMixed;
        refValue        nonuniform List<scalar> 
130
(
314.13986
312.11105
310.0919
308.20257
306.51947
305.07959
303.89011
302.93865
302.2022
301.65401
301.26841
301.024
300.90566
316.48959
313.90939
311.40842
309.13416
307.16184
305.51387
304.17932
303.1292
302.32707
301.73619
301.32381
301.06386
300.93841
321.27081
317.41668
313.87563
310.82166
308.29386
306.26279
304.66986
303.44836
302.53429
301.87163
301.41467
301.12902
300.99184
328.48782
322.22201
316.99581
312.82705
309.57749
307.08307
305.1937
303.78307
302.74885
302.01064
301.50739
301.19528
301.04608
337.01463
326.77925
319.5554
314.32157
310.47532
307.63332
305.53561
303.99769
302.8849
302.0982
301.56559
301.23682
301.08008
337.01461
326.77923
319.5554
314.32156
310.47532
307.63332
305.53562
303.99769
302.8849
302.0982
301.56559
301.23683
301.08009
328.4878
322.22199
316.99581
312.82706
309.5775
307.08307
305.19372
303.78307
302.74885
302.01064
301.50739
301.19528
301.04608
321.27082
317.41669
313.87565
310.82168
308.29387
306.26281
304.66988
303.44837
302.5343
301.87163
301.41468
301.12903
300.99185
316.48963
313.90942
311.40845
309.13419
307.16187
305.51389
304.17935
303.12921
302.32708
301.7362
301.32382
301.06387
300.93842
314.13992
312.1111
310.09194
308.20261
306.5195
305.07962
303.89014
302.93866
302.20221
301.65402
301.26842
301.02401
300.90567
)
;
        refGradient     uniform 0;
        valueFraction   uniform 0.99967867;
        source          uniform 0;
        logInterval     -1;
        writePrecision  8;
        updateHeader    1;
        writeToFile     0;
        useUserTime     1;
        kappaMethod     fluidThermo;
        value           nonuniform List<scalar> 
130
(
314.13663
312.10859
310.09015
308.20144
306.51886
305.0794
303.89024
302.93901
302.20271
301.65462
301.26906
301.02465
300.90628
316.48563
313.90637
311.40627
309.13276
307.16107
305.51358
304.17941
303.12956
302.32762
301.73685
301.32453
301.0646
300.93913
321.2657
317.41293
313.87308
310.8201
308.29308
306.26261
304.6701
303.44891
302.53504
301.87249
301.41559
301.12996
300.99275
328.48109
322.21744
316.99297
312.82554
309.57696
307.08324
305.19437
303.78406
302.75003
302.01192
301.5087
301.19657
301.04731
337.00615
326.77418
319.55266
314.32044
310.47532
307.63408
305.53687
303.99927
302.88665
302.10003
301.56742
301.23859
301.08175
337.00613
326.77416
319.55266
314.32044
310.47532
307.63408
305.53689
303.99927
302.88665
302.10003
301.56742
301.23859
301.08175
328.48107
322.21742
316.99297
312.82554
309.57696
307.08325
305.19439
303.78406
302.75004
302.01193
301.50871
301.19658
301.04732
321.26572
317.41294
313.8731
310.82012
308.29309
306.26262
304.67012
303.44891
302.53504
301.87249
301.4156
301.12996
300.99275
316.48567
313.90641
311.4063
309.13279
307.16109
305.51361
304.17944
303.12957
302.32763
301.73685
301.32454
301.06461
300.93914
314.13669
312.10864
310.09018
308.20147
306.51889
305.07943
303.89027
302.93902
302.20273
301.65463
301.26907
301.02466
300.90629
)
;
    }
    topAir_to_heater
    {
        type            compressible::turbulentTemperatureRadCoupledMixed;
        refValue        nonuniform List<scalar> 
40
(
319.31271
318.72868
317.6013
316.02206
323.13677
322.39883
320.96038
318.92405
331.25941
330.21573
328.12066
325.04263
344.59978
343.18825
340.15226
335.22283
364.26347
362.84523
359.30026
352.11549
364.26349
362.84525
359.30029
352.11551
344.5998
343.18826
340.15228
335.22283
331.25942
330.21574
328.12068
325.04265
323.13676
322.39884
320.9604
318.92409
319.31265
318.72868
317.60134
316.02214
)
;
        refGradient     uniform 0;
        valueFraction   uniform 0.99967867;
        source          uniform 0;
        logInterval     -1;
        writePrecision  8;
        updateHeader    1;
        writeToFile     0;
        useUserTime     1;
        kappaMethod     fluidThermo;
        value           nonuniform List<scalar> 
40
(
319.30687
318.72334
317.59659
316.01807
323.1297
322.39232
320.9546
318.91915
331.24985
330.20692
328.11288
325.03611
344.58614
343.17565
340.14114
335.21368
364.24381
362.82687
359.28377
352.10186
364.24383
362.82689
359.2838
352.10188
344.58615
343.17567
340.14116
335.21368
331.24986
330.20693
328.11289
325.03613
323.12969
322.39232
320.95462
318.91919
319.30682
318.72334
317.59663
316.01815
)
;
    }
    topAir_to_leftSolid
    {
        type            compressible::turbulentTemperatureRadCoupledMixed;
        refValue        nonuniform List<scalar> 
130
(
300.00171
300.00198
300.00255
300.00345
300.00475
300.00651
300.00882
300.01169
300.01511
300.01894
300.02289
300.02648
300.02907
300.00182
300.00212
300.00275
300.00376
300.00525
300.00731
300.01008
300.01365
300.01809
300.02333
300.0291
300.03475
300.03911
300.00199
300.00234
300.00307
300.00428
300.00609
300.00869
300.01229
300.01718
300.02363
300.03185
300.04182
300.05294
300.06319
300.00217
300.00256
300.00341
300.00483
300.00699
300.01018
300.01476
300.02125
300.03033
300.04286
300.0598
300.08188
300.10762
300.00228
300.00271
300.00363
300.00518
300.00758
300.01116
300.01643
300.02413
300.03535
300.05177
300.0761
300.11278
300.16707
300.00228
300.00271
300.00363
300.00518
300.00758
300.01116
300.01643
300.02413
300.03535
300.05177
300.0761
300.11278
300.16707
300.00217
300.00256
300.00341
300.00483
300.00699
300.01018
300.01476
300.02125
300.03033
300.04286
300.0598
300.08188
300.10762
300.00199
300.00234
300.00307
300.00428
300.00609
300.00869
300.01229
300.01718
300.02363
300.03185
300.04182
300.05294
300.06319
300.00182
300.00212
300.00275
300.00376
300.00525
300.00731
300.01008
300.01365
300.01809
300.02333
300.0291
300.03475
300.03911
300.00171
300.00198
300.00255
300.00345
300.00475
300.00651
300.00882
300.01169
300.01511
300.01894
300.02289
300.02648
300.02907
)
;
        refGradient     uniform 0;
        valueFraction   uniform 0.99967867;
        source          uniform 0;
        logInterval     -1;
        writePrecision  8;
        updateHeader    1;
        writeToFile     0;
        useUserTime     1;
        kappaMethod     fluidThermo;
        value           nonuniform List<scalar> 
130
(
300.00171
300.00198
300.00255
300.00345
300.00474
300.00651
300.00881
300.01169
300.0151
300.01893
300.02288
300.02647
300.02907
300.00182
300.00212
300.00274
300.00376
300.00525
300.00731
300.01008
300.01365
300.01809
300.02333
300.02909
300.03474
300.03912
300.00199
300.00234
300.00307
300.00428
300.00609
300.00869
300.01229
300.01718
300.02362
300.03184
300.0418
300.05292
300.06319
300.00217
300.00256
300.00341
300.00483
300.00699
300.01017
300.01475
300.02124
300.03032
300.04285
300.05978
300.08186
300.10761
300.00228
300.00271
300.00363
300.00518
300.00757
300.01116
300.01643
300.02412
300.03534
300.05176
300.07608
300.11275
300.16705
300.00228
300.00271
300.00363
300.00518
300.00757
300.01116
300.01643
300.02412
300.03534
300.05176
300.07608
300.11275
300.16705
300.00217
300.00256
300.00341
300.00483
300.00699
300.01017
300.01475
300.02124
300.03032
300.04285
300.05978
300.08186
300.10761
300.00199
300.00234
300.00307
300.00428
300.00609
300.00869
300.01229
300.01718
300.02362
300.03184
300.0418
300.05292
300.06319
300.00182
300.00212
300.00274
300.00376
300.00525
300.00731
300.01008
300.01365
300.01809
300.02333
300.02909
300.03474
300.03912
300.00171
300.00198
300.00255
300.00345
300.00474
300.00651
300.00881
300.01169
300.0151
300.01893
300.02288
300.02647
300.02907
)
;
    }
}


// ************************************************************************* //
