/*--------------------------------*- C++ -*----------------------------------*\
| =========                 |                                                 |
| \\      /  F ield         | OpenFOAM: The Open Source CFD Toolbox           |
|  \\    /   O peration     | Version:  2412                                  |
|   \\  /    A nd           | Website:  www.openfoam.com                      |
|    \\/     M anipulation  |                                                 |
\*---------------------------------------------------------------------------*/
FoamFile
{
    version     2.0;
    format      ascii;
    arch        "LSB;label=32;scalar=64";
    class       volVectorField;
    location    "60/topAir";
    object      U;
}
// * * * * * * * * * * * * * * * * * * * * * * * * * * * * * * * * * * * * * //

dimensions      [0 1 -1 0 0 0 0];

internalField   nonuniform List<vector> 
1200
(
(0.097234173 0.00096771582 0.0008036917)
(0.096233625 0.0013021403 0.0012051568)
(0.094383501 0.0013371448 0.0013604077)
(0.091905497 0.0013064508 0.0014238909)
(0.089370187 0.0012564612 0.0014455671)
(0.086971889 0.0011885754 0.0014351287)
(0.084703638 0.0011077245 0.0013997113)
(0.082544718 0.0010191828 0.0013478428)
(0.080502402 0.00092327842 0.0012863975)
(0.07860012 0.00081341365 0.0012200926)
(0.07687541 0.00067031619 0.0011527019)
(0.075401283 0.00044405088 0.0010880151)
(0.074329281 4.7167736e-05 0.0010287643)
(0.073693632 -8.38253e-05 0.00099399992)
(0.073228554 -0.00014501715 0.00099161521)
(0.072718457 -0.00018591316 0.0010163475)
(0.072092581 -0.00021867033 0.0010582161)
(0.071344807 -0.00025320135 0.0011081817)
(0.070484384 -0.00029698166 0.0011587929)
(0.06952678 -0.00035211417 0.0012039685)
(0.068492958 -0.00041533786 0.0012387692)
(0.067404974 -0.0004783865 0.0012586253)
(0.066278946 -0.00052732032 0.0012583803)
(0.065117701 -0.00054170705 0.0012310018)
(0.06390448 -0.00049540211 0.0011656836)
(0.062585665 -0.0003575117 0.0010444719)
(0.061077637 -7.5898531e-05 0.00084447872)
(0.059304129 0.00046801448 0.00056092165)
(0.056801942 0.0015660999 0.00016639256)
(0.050340144 0.0041154078 -0.00030855961)
(0.099370731 0.0009790638 0.00082957166)
(0.10013438 0.0013331624 0.0012588416)
(0.10060734 0.001403699 0.0014422105)
(0.1006135 0.00141332 0.0015347271)
(0.1004414 0.0013994419 0.0015843662)
(0.10024433 0.001361687 0.0016009115)
(0.10003217 0.0013037847 0.0015918699)
(0.099789925 0.0012281063 0.0015655307)
(0.099520352 0.0011305136 0.0015281583)
(0.099234857 0.00099877134 0.001483542)
(0.098936859 0.00080889725 0.0014337418)
(0.098605586 0.00051677729 0.0013803096)
(0.098200475 7.0178925e-05 0.0013251456)
(0.097712254 -0.00012830635 0.0012636917)
(0.097272312 -0.00023888129 0.0012025378)
(0.096900988 -0.00031714164 0.0011419134)
(0.096582782 -0.0003797647 0.0010810963)
(0.096307555 -0.00043796679 0.0010198957)
(0.0960687 -0.00050008057 0.00095792755)
(0.095858834 -0.00056805664 0.00089407239)
(0.095670773 -0.0006368703 0.00082623743)
(0.095499641 -0.00069408514 0.00075098359)
(0.095343481 -0.00071748015 0.00066444159)
(0.095202179 -0.0006699008 0.00056245153)
(0.095076503 -0.00049866938 0.00044131947)
(0.094973251 -0.00013521111 0.0002976498)
(0.09489994 0.00051074652 0.00012391013)
(0.094748752 0.0016256172 -8.4196553e-05)
(0.094591692 0.0035626297 -0.00029663813)
(0.094341813 0.0068544035 -0.00044163132)
(0.099370501 -0.00098090269 0.00082957443)
(0.10013329 -0.0013373713 0.0012588465)
(0.10060439 -0.0014116188 0.0014422156)
(0.10060704 -0.0014274657 0.0015347235)
(0.10042858 -0.0014241947 0.0015843319)
(0.10022022 -0.0014045457 0.0016007956)
(0.099988346 -0.0013774381 0.0015915658)
(0.099712222 -0.0013538008 0.0015648317)
(0.099385753 -0.0013434362 0.0015266979)
(0.099008219 -0.0013563728 0.001480753)
(0.098571582 -0.0014027792 0.0014288829)
(0.098057478 -0.0014856211 0.0013721394)
(0.097447551 -0.0015800589 0.0013114867)
(0.096752601 -0.0016168196 0.0012455779)
(0.09602703 -0.0016087343 0.0011757856)
(0.095319016 -0.0015817786 0.0011035066)
(0.094647635 -0.0015478682 0.0010295759)
(0.094021399 -0.0015119162 0.00095415171)
(0.093447903 -0.0014768615 0.0008760691)
(0.092934816 -0.0014413956 0.00079356628)
(0.092491467 -0.0013986638 0.00070208507)
(0.092132469 -0.0013378492 0.00059832685)
(0.091881271 -0.0012453735 0.00047781864)
(0.091790996 -0.0010953262 0.00033202643)
(0.09194371 -0.0008423526 0.00015478702)
(0.092406801 -0.00040963445 -4.808808e-05)
(0.093263955 0.00032009416 -0.00025494433)
(0.094596411 0.0015068223 -0.00044987337)
(0.096696942 0.0033225625 -0.000614528)
(0.10128568 0.0057701027 -0.00073314504)
(0.097233679 -0.00096838751 0.00080369049)
(0.096231417 -0.0013036656 0.0012051473)
(0.094377837 -0.0013399931 0.0013603812)
(0.091893685 -0.001311486 0.0014238244)
(0.08934774 -0.0012651924 0.0014454082)
(0.086931228 -0.0012036091 0.0014347636)
(0.084631964 -0.0011335334 0.0013989013)
(0.082420428 -0.0010634661 0.0013461052)
(0.080288996 -0.00099949701 0.0012827754)
(0.07823546 -0.00094589555 0.0012126991)
(0.076251073 -0.00090574185 0.0011378265)
(0.074321178 -0.00087928908 0.0010589494)
(0.072433136 -0.00086016124 0.00097603663)
(0.070589832 -0.00083503212 0.00088856708)
(0.06882009 -0.00079804884 0.00079694801)
(0.067161511 -0.00075615027 0.00070269363)
(0.065636329 -0.00071473589 0.00060766829)
(0.06425318 -0.0006757601 0.00051316051)
(0.063019276 -0.00064021347 0.00041409404)
(0.061944524 -0.0006065636 0.00030776516)
(0.061048976 -0.00057012453 0.00018513924)
(0.060370903 -0.00052630342 3.6981914e-05)
(0.059931992 -0.00047441964 -0.00013537062)
(0.05977891 -0.00041029008 -0.00033359842)
(0.059982658 -0.00031665707 -0.00056102171)
(0.0606429 -0.0001510395 -0.00081838305)
(0.061952982 0.00016371927 -0.0010919131)
(0.064225374 0.00069350547 -0.0013296962)
(0.067730187 0.0014473751 -0.0014622432)
(0.074975361 0.0024418154 -0.0015568876)
(0.098509776 0.00099155194 0.001063416)
(0.09843634 0.0013461986 0.0016305337)
(0.097923771 0.0013981014 0.0018720353)
(0.096983605 0.0013834053 0.00198762)
(0.095963797 0.0013473157 0.0020452069)
(0.095000454 0.0012912659 0.002058161)
(0.094091136 0.00122072 0.0020358805)
(0.093218791 0.0011413481 0.0019898463)
(0.092387079 0.0010538687 0.0019293502)
(0.091615066 0.0009523444 0.0018608692)
(0.090935812 0.00081909283 0.0017901733)
(0.090413284 0.00060980499 0.0017248391)
(0.090204476 0.00024380599 0.0016780212)
(0.090334545 7.6014623e-05 0.0017019615)
(0.090602397 -5.641086e-05 0.0018326007)
(0.09079673 -0.00018996267 0.0020570837)
(0.090847432 -0.00032714078 0.0023450317)
(0.09074936 -0.0004699691 0.0026659552)
(0.090513296 -0.00061984209 0.0029933731)
(0.090156402 -0.00077459399 0.0033058823)
(0.08970055 -0.00092868861 0.0035866435)
(0.089168151 -0.0010739258 0.0038214034)
(0.088575437 -0.001197522 0.003995618)
(0.087925839 -0.0012806404 0.0040916823)
(0.087202778 -0.0012964674 0.004086158)
(0.086360087 -0.0012078246 0.0039462853)
(0.085304308 -0.00095929782 0.0036332444)
(0.083810756 -0.00046666828 0.0031274108)
(0.08161329 0.00052885338 0.0023748782)
(0.076068613 0.0028804063 0.0012945796)
(0.10070475 0.00099883464 0.0010954399)
(0.10245392 0.0013592673 0.0016845616)
(0.10433315 0.001429567 0.0019454867)
(0.1059599 0.0014384745 0.0020836296)
(0.10740894 0.0014246567 0.002166662)
(0.10877986 0.0013879583 0.0022074174)
(0.11008774 0.0013322927 0.0022148592)
(0.11132205 0.001260345 0.0021995869)
(0.11248349 0.0011685514 0.0021695901)
(0.11358102 0.0010456983 0.0021292595)
(0.1146184 0.00086971817 0.0020800834)
(0.11557982 0.00060054132 0.0020205355)
(0.1164332 0.00018797675 0.0019437985)
(0.1171995 -3.3214513e-05 0.0018359633)
(0.11797448 -0.00020628141 0.001703799)
(0.11877188 -0.00037497065 0.001556591)
(0.11958193 -0.00054672717 0.0014019825)
(0.12039915 -0.00072607007 0.0012469974)
(0.12121897 -0.00091678654 0.0010957191)
(0.12203511 -0.0011175309 0.00094864446)
(0.12284093 -0.0013234965 0.00080268922)
(0.1236349 -0.0015220858 0.0006512763)
(0.12441946 -0.0016938919 0.00048430678)
(0.12519871 -0.0018106879 0.00028844324)
(0.12597917 -0.0018271251 4.7832848e-05)
(0.12677328 -0.0016710079 -0.00025578528)
(0.12756375 -0.0012314889 -0.00064590989)
(0.12844343 -0.00034368629 -0.0011493255)
(0.12945211 0.001281559 -0.0017488722)
(0.13114404 0.0041849751 -0.0023087104)
(0.10070452 -0.0010006989 0.0010954299)
(0.10245284 -0.0013635295 0.001684542)
(0.10433024 -0.0014375472 0.0019454484)
(0.10595356 -0.0014526305 0.0020835445)
(0.10739645 -0.0014492324 0.0021664656)
(0.10875658 -0.0014301531 0.0022069711)
(0.11004577 -0.001404192 0.0022138792)
(0.11124827 -0.0013820387 0.0021975223)
(0.11235682 -0.0013730824 0.0021654325)
(0.11336959 -0.0013866444 0.002121327)
(0.11428014 -0.0014319477 0.0020660035)
(0.11507431 -0.0015121217 0.001997939)
(0.11573865 -0.0016066192 0.0019135408)
(0.11628732 -0.0016542039 0.001806704)
(0.1167706 -0.0016723995 0.0016741424)
(0.11723083 -0.0016830625 0.0015173078)
(0.11768536 -0.0016948378 0.0013390285)
(0.11814175 -0.0017111019 0.0011420095)
(0.11860561 -0.0017378751 0.00092704568)
(0.11908242 -0.0017750627 0.0006913368)
(0.11958515 -0.0018211336 0.00042936469)
(0.12012611 -0.0018696215 0.00013412543)
(0.12072406 -0.0019043889 -0.00020366827)
(0.12139791 -0.0019003872 -0.00059656974)
(0.12217582 -0.0018169613 -0.0010563314)
(0.12314028 -0.0015880181 -0.0015907268)
(0.12441727 -0.0011090699 -0.0021987249)
(0.1262076 -0.0002177472 -0.0028765815)
(0.12870512 0.0012424428 -0.0035921322)
(0.13393555 0.0032413696 -0.0042271145)
(0.098509284 -0.00099223224 0.0010633903)
(0.098434148 -0.0013477429 0.0016304796)
(0.097918183 -0.0014009734 0.0018719279)
(0.096972028 -0.0013884528 0.0019873919)
(0.095941951 -0.0013560086 0.0020447072)
(0.094961166 -0.0013061208 0.0020570671)
(0.094022399 -0.0012460239 0.0020335232)
(0.093100516 -0.0011844317 0.0019848709)
(0.092185631 -0.0011274692 0.0019190655)
(0.091273779 -0.001079352 0.0018399931)
(0.090357702 -0.0010430562 0.0017484368)
(0.089426697 -0.0010190449 0.0016428264)
(0.088473165 -0.0010022479 0.0015195535)
(0.087504526 -0.00098160407 0.0013736408)
(0.086551579 -0.00095351101 0.0012011975)
(0.085652256 -0.00092398495 0.0010016904)
(0.084830128 -0.00089680753 0.00077742441)
(0.084089751 -0.00087260213 0.00053020367)
(0.083444543 -0.00085579809 0.00026105019)
(0.082904963 -0.00084557801 -3.646932e-05)
(0.082467349 -0.00084033306 -0.00037210093)
(0.082121829 -0.00083907473 -0.00075507678)
(0.081895096 -0.00083262894 -0.0011925229)
(0.081821757 -0.00080646783 -0.0016948287)
(0.081962825 -0.00074186769 -0.002275346)
(0.082419486 -0.00061179396 -0.0029460633)
(0.083351452 -0.00036833262 -0.0037037197)
(0.084968025 6.3120763e-05 -0.0045189953)
(0.08785556 0.00072771172 -0.0053308904)
(0.094493891 0.001588717 -0.006055161)
(0.098381612 0.00098660245 0.00041157975)
(0.09808442 0.0013353423 0.0007085344)
(0.097482119 0.0013809785 0.00088382341)
(0.096596871 0.0013615793 0.00099131756)
(0.095703982 0.0013222786 0.0010626888)
(0.094901259 0.0012638793 0.0011065605)
(0.094178954 0.0011915691 0.0011267735)
(0.093517262 0.0011107668 0.00112868)
(0.092914794 0.0010215425 0.0011180432)
(0.092386761 0.00091630447 0.0011006031)
(0.091967266 0.00077318758 0.0010842147)
(0.091729575 0.00053774846 0.0010836804)
(0.091868622 0.00011426492 0.0011237624)
(0.092448801 -2.4039786e-05 0.0013003916)
(0.093166029 -0.00010632146 0.0016723425)
(0.093752041 -0.00018460968 0.0022129585)
(0.094125739 -0.00026703066 0.0028686683)
(0.094290171 -0.00036216862 0.0035814935)
(0.094269456 -0.00047686788 0.0043029316)
(0.094094137 -0.00061227234 0.0049985129)
(0.09379555 -0.00076410324 0.0056438396)
(0.093397739 -0.00092219084 0.0062194974)
(0.092910503 -0.0010708081 0.0067061897)
(0.092322806 -0.0011865243 0.0070809762)
(0.091594059 -0.0012341274 0.0073135465)
(0.090643939 -0.0011628637 0.0073610329)
(0.089342869 -0.0009032743 0.0071595341)
(0.087427987 -0.00036190265 0.0066056654)
(0.084739829 0.00073948439 0.0054605954)
(0.078074798 0.0033765028 0.0036126634)
(0.10057375 0.00099829282 0.00042386972)
(0.10209973 0.0013588784 0.00073525471)
(0.10389238 0.0014263759 0.00092620334)
(0.10557686 0.0014318409 0.0010517513)
(0.10715428 0.0014148716 0.0011432867)
(0.1086872 0.0013751091 0.0012089834)
(0.11018432 0.0013162105 0.0012522496)
(0.11163273 0.0012405258 0.0012775578)
(0.11302797 0.0011437062 0.0012889698)
(0.11437295 0.0010127634 0.0012886043)
(0.11566469 0.00082191207 0.0012754546)
(0.11687725 0.00052375418 0.0012419623)
(0.11796686 6.0480252e-05 0.0011706316)
(0.11893918 -0.00012718999 0.0010252093)
(0.11993884 -0.00023738694 0.00081759419)
(0.12098565 -0.00033304205 0.0005703775)
(0.12206493 -0.00043108035 0.00030622281)
(0.12316345 -0.00054450712 4.5239503e-05)
(0.12426716 -0.00068391364 -0.00019871398)
(0.12536019 -0.00085358432 -0.00041998485)
(0.12642756 -0.0010479443 -0.00062041065)
(0.12745364 -0.0012548548 -0.00080605664)
(0.12842368 -0.0014511335 -0.00099074224)
(0.12932672 -0.0015988762 -0.0011975832)
(0.13015328 -0.0016383556 -0.001459222)
(0.13089296 -0.0014778662 -0.0018197409)
(0.13153556 -0.00098183048 -0.00233815)
(0.13214037 5.4256998e-05 -0.0030914921)
(0.13265325 0.0020032959 -0.0041355287)
(0.13341751 0.00551902 -0.0054509073)
(0.10057351 -0.0010002072 0.00042384307)
(0.10209861 -0.0013632654 0.00073519082)
(0.10388934 -0.0014346123 0.0009260711)
(0.10557022 -0.0014465001 0.0010514815)
(0.10714117 -0.0014404235 0.0011427377)
(0.10866267 -0.0014191861 0.0012078741)
(0.11013989 -0.0013917217 0.0012500351)
(0.11155427 -0.0013691147 0.0012732169)
(0.11289268 -0.0013613049 0.0012806864)
(0.11414652 -0.0013782018 0.001273461)
(0.11530285 -0.0014292487 0.0012498182)
(0.11634121 -0.0015159674 0.0012046749)
(0.1172415 -0.0016113366 0.0011293388)
(0.11801674 -0.0016416211 0.0010079688)
(0.11872692 -0.0016269714 0.00083171446)
(0.11942222 -0.0015988355 0.00060235456)
(0.12012059 -0.0015731421 0.00032448144)
(0.12082489 -0.0015597236 3.6590313e-06)
(0.12153477 -0.0015618791 -0.00035635475)
(0.1222489 -0.0015840073 -0.00075503562)
(0.12296078 -0.0016246241 -0.0011907554)
(0.12367043 -0.00167532 -0.0016699244)
(0.1243874 -0.0017174614 -0.002204018)
(0.12513456 -0.0017186887 -0.0028117946)
(0.12595476 -0.001627171 -0.0035193945)
(0.1269213 -0.0013575358 -0.0043658129)
(0.12816717 -0.0007669459 -0.0053978142)
(0.12981471 0.00036190716 -0.0066562221)
(0.13216717 0.0022607613 -0.0081224029)
(0.13732006 0.004942434 -0.0096746923)
(0.0983811 -0.00098730197 0.00041151573)
(0.098082126 -0.0013369333 0.00070837819)
(0.097476249 -0.0013839457 0.00088349881)
(0.096584665 -0.0013668133 0.00099066217)
(0.095680842 -0.0013313343 0.0010613739)
(0.0948594 -0.0012794406 0.0011039284)
(0.094105182 -0.0012182558 0.0011215181)
(0.093389203 -0.0011565845 0.0011182209)
(0.092694376 -0.0011006396 0.0010973004)
(0.09200864 -0.001054655 0.001059554)
(0.091317383 -0.001021463 0.0010029391)
(0.090603183 -0.0010009377 0.00092243282)
(0.089852432 -0.00098673211 0.00081000163)
(0.089069382 -0.00096450152 0.00065527478)
(0.088286355 -0.00092902557 0.00045021795)
(0.08754491 -0.00088902637 0.00019119109)
(0.08686763 -0.0008506024 -0.00011819532)
(0.086265518 -0.0008173142 -0.00047299544)
(0.085731195 -0.00078620977 -0.00086548116)
(0.085255563 -0.00075889807 -0.0013001292)
(0.08484099 -0.00073723896 -0.0017829356)
(0.084494825 -0.00071719486 -0.002323545)
(0.08423303 -0.00069016945 -0.002938628)
(0.084086714 -0.00064090182 -0.003646671)
(0.084122011 -0.00054539803 -0.0044799162)
(0.084465162 -0.00036116862 -0.0054852388)
(0.085313576 -7.3542463e-06 -0.0067192288)
(0.087098118 0.00062314081 -0.008228951)
(0.090412396 0.0015972326 -0.009982112)
(0.098300774 0.002898435 -0.011741262)
(0.09835759 0.00098897028 0.0002231831)
(0.097985696 0.0013409235 0.00042070562)
(0.097296289 0.0013889049 0.00056765333)
(0.096344473 0.0013709024 0.00066840354)
(0.095407722 0.0013322979 0.00073585355)
(0.094576014 0.0012738333 0.00077873237)
(0.09383668 0.0012005629 0.00080203171)
(0.093170427 0.0011176665 0.00081006838)
(0.0925768 0.0010244601 0.00080742262)
(0.092073614 0.00091102531 0.00079938825)
(0.091703395 0.0007486939 0.00079407332)
(0.091552338 0.00046627583 0.00080766336)
(0.091940474 -4.3848387e-05 0.00086367646)
(0.092879343 -0.00010514977 0.0011054765)
(0.093939447 -3.6960398e-05 0.0016112718)
(0.094773236 8.5372251e-05 0.002352897)
(0.095287299 0.00024143293 0.003260994)
(0.095486179 0.00040002885 0.0042496604)
(0.095413782 0.00054200222 0.0052514233)
(0.095118728 0.00065735633 0.0062295479)
(0.094639127 0.00074257644 0.0071636177)
(0.093997844 0.00080316257 0.008036115)
(0.093199678 0.00085138779 0.0088257142)
(0.092227552 0.00090698758 0.0095023893)
(0.091034524 0.001000989 0.010020617)
(0.08952998 0.0011810231 0.010307948)
(0.087558513 0.0015245231 0.01024334)
(0.084851793 0.0021742585 0.0096144723)
(0.08089258 0.0034351522 0.0080964428)
(0.070958741 0.006333521 0.0054548295)
(0.10055007 0.0009985144 0.00023016392)
(0.10200175 0.0013604062 0.00043670037)
(0.10370798 0.0014287445 0.00059382283)
(0.10532665 0.0014342958 0.00070640818)
(0.10686009 0.0014168568 0.00078741701)
(0.1083627 0.0013759818 0.00084527313)
(0.10983999 0.0013150096 0.00088449046)
(0.11127885 0.0012357036 0.00090854861)
(0.11267382 0.0011324947 0.00092033894)
(0.11402488 0.00098971807 0.00092119134)
(0.11532254 0.00077576591 0.00090874548)
(0.11653083 0.00043146896 0.00087152984)
(0.11754941 -0.0001048431 0.00078539527)
(0.11842973 -0.00019830411 0.00058225145)
(0.11937339 -0.00012393629 0.00028115846)
(0.12039082 3.4061139e-05 -7.4230504e-05)
(0.12144766 0.00024658368 -0.00044366051)
(0.12252403 0.00047752962 -0.00078775449)
(0.12359231 0.00070311533 -0.0010870037)
(0.12462282 0.00091092603 -0.0013349031)
(0.12558971 0.0011000246 -0.0015338876)
(0.12646878 0.0012797775 -0.001693884)
(0.12722822 0.001470885 -0.0018316935)
(0.12782548 0.001707303 -0.0019724736)
(0.12819704 0.0020488163 -0.0021534872)
(0.12824587 0.0025914931 -0.0024294295)
(0.1278322 0.0034944195 -0.0028807322)
(0.12678609 0.0050291615 -0.0036268972)
(0.12504788 0.0076803184 -0.0048906288)
(0.12098179 0.012252599 -0.0069658035)
(0.10054983 -0.0010004854 0.00023013937)
(0.10200057 -0.0013649341 0.00043664022)
(0.10370478 -0.0014372796 0.00059369664)
(0.10531964 -0.0014495642 0.00070614983)
(0.10684617 -0.0014436316 0.0007868921)
(0.10833647 -0.0014224899 0.00084421584)
(0.10979217 -0.0013953124 0.00088238604)
(0.11119378 -0.0013736531 0.00090443369)
(0.11252617 -0.0013681915 0.00091251403)
(0.11377689 -0.0013896792 0.00090703037)
(0.1149275 -0.0014476389 0.00088557068)
(0.11595123 -0.0015401226 0.00084144652)
(0.1168173 -0.0016316554 0.00076254446)
(0.11754259 -0.0016128559 0.00062309743)
(0.1182101 -0.0015120842 0.00040861995)
(0.1188839 -0.001371584 0.00012200982)
(0.11958932 -0.0012120618 -0.0002294201)
(0.12033422 -0.0010491102 -0.00064285804)
(0.12111461 -0.00089279611 -0.001116603)
(0.12192561 -0.00074663563 -0.0016452764)
(0.12276011 -0.00060453785 -0.0022284086)
(0.12360942 -0.00045256858 -0.0028692068)
(0.12446915 -0.0002615312 -0.0035769728)
(0.12533705 2.0403719e-05 -0.0043686984)
(0.12616212 0.00046765 -0.0052722152)
(0.1269486 0.0011935058 -0.0063282884)
(0.1277258 0.0023752042 -0.0075890638)
(0.12858437 0.0042820495 -0.0091194345)
(0.12983914 0.0072953296 -0.01100272)
(0.13259866 0.011696854 -0.013253346)
(0.098357051 -0.00098969127 0.00022312523)
(0.097983277 -0.001342567 0.00042056185)
(0.097290078 -0.0013919825 0.00056735079)
(0.096331489 -0.0013763599 0.00066778904)
(0.095382938 -0.0013418017 0.00073461712)
(0.094530805 -0.0012902921 0.00077625259)
(0.093756201 -0.0012290526 0.00079706673)
(0.093029046 -0.0011671412 0.00080013595)
(0.092329952 -0.00111111 0.00078754209)
(0.091642809 -0.0010654875 0.00075946171)
(0.090947813 -0.0010330888 0.00071327651)
(0.090221787 -0.0010128543 0.00064273823)
(0.089445747 -0.00099638346 0.00053726521)
(0.088623463 -0.00096050906 0.00038193213)
(0.087791604 -0.00089746411 0.00016468687)
(0.087000935 -0.00082048305 -0.00011262926)
(0.086284731 -0.00073505616 -0.00044531311)
(0.085646134 -0.00064491537 -0.00082388762)
(0.085076107 -0.00055204686 -0.0012474401)
(0.084566665 -0.00045913292 -0.0017266756)
(0.084118115 -0.00036757707 -0.0022788003)
(0.08374029 -0.00027102884 -0.0029242293)
(0.0834575 -0.00015178237 -0.0036889221)
(0.083316363 2.7053513e-05 -0.0046069523)
(0.083483133 0.00030866265 -0.005722604)
(0.084105115 0.0007588546 -0.007093078)
(0.085426732 0.0014792585 -0.0087875325)
(0.087818909 0.0026175227 -0.010855891)
(0.091886982 0.0043445258 -0.013249952)
(0.10135729 0.0068169007 -0.015600919)
(0.098345017 0.00098900574 6.6351911e-05)
(0.097936154 0.0013409492 0.00012469963)
(0.097199257 0.0013883417 0.00016643468)
(0.09620721 0.0013692741 0.00019194429)
(0.095243062 0.0013294062 0.00020576828)
(0.09439364 0.0012695389 0.00021181021)
(0.093642903 0.0011946346 0.00021237599)
(0.092970493 0.0011096157 0.00020908232)
(0.092376452 0.0010130696 0.00020349709)
(0.091881226 0.00089286599 0.00019754075)
(0.091535364 0.00071362015 0.00019450075)
(0.091437975 0.00038729375 0.000201579)
(0.092063446 -0.00020287264 0.00022964746)
(0.093356722 -8.9552196e-05 0.00036171522)
(0.094827061 0.00028401723 0.00064345118)
(0.096008278 0.00083204669 0.0010658445)
(0.096733146 0.0015183928 0.0015969681)
(0.097001099 0.0022074386 0.0021912065)
(0.096901415 0.0028672538 0.0028127188)
(0.096525728 0.0034879732 0.0034446854)
(0.095925395 0.0040668189 0.0040789905)
(0.095117059 0.0046069469 0.0047069192)
(0.094090246 0.0051166018 0.0053152444)
(0.092803758 0.0056094867 0.0058833377)
(0.091172087 0.0061078153 0.0063785226)
(0.089040351 0.0066490482 0.0067479502)
(0.086141423 0.0073006731 0.0069039596)
(0.082022746 0.008191966 0.0066974084)
(0.075914336 0.009532964 0.0058855154)
(0.06068998 0.012074578 0.0042582254)
(0.10053754 0.00099852246 6.8396737e-05)
(0.10195231 0.0013608575 0.00012940085)
(0.10361144 0.0014293428 0.00017415011)
(0.10519063 0.0014345598 0.0002032195)
(0.10669706 0.001416405 0.00022117637)
(0.10818166 0.0013744254 0.00023177988)
(0.10964637 0.0013117707 0.00023711308)
(0.11107642 0.0012297523 0.00023843437)
(0.11246495 0.0011218059 0.00023657569)
(0.11380885 0.00096999589 0.00023160882)
(0.11509056 0.00073751174 0.00022166979)
(0.11625788 0.00035429524 0.00019984761)
(0.11713504 -0.0002400868 0.00015145651)
(0.11782365 -0.00012490415 3.3428309e-05)
(0.11856698 0.00032971938 -0.00014265292)
(0.11937272 0.0010262804 -0.00034091881)
(0.12019086 0.0019259186 -0.00053157787)
(0.1209831 0.0028953846 -0.00068679157)
(0.12168715 0.0038960701 -0.00079341513)
(0.12225395 0.0049204737 -0.00084606531)
(0.12264189 0.0059690734 -0.00084312301)
(0.1228089 0.0070481881 -0.00078813125)
(0.12270599 0.0081708498 -0.00068877678)
(0.12226857 0.0093592216 -0.00055795682)
(0.12140254 0.010651591 -0.00041718831)
(0.11996316 0.012115819 -0.00030147208)
(0.11772345 0.013875456 -0.00026927428)
(0.11432667 0.016158909 -0.00042566651)
(0.10928647 0.019386376 -0.00098406084)
(0.096877672 0.024261492 -0.0023201774)
(0.10053728 -0.0010005342 6.8386422e-05)
(0.10195109 -0.0013654854 0.0001293756)
(0.10360814 -0.0014380882 0.00017409718)
(0.10518336 -0.001450255 0.00020311113)
(0.10668258 -0.0014440353 0.0002209562)
(0.10815425 -0.0014226373 0.00023133658)
(0.10959616 -0.0013954503 0.00023623055)
(0.11098667 -0.0013743597 0.00023670784)
(0.11230859 -0.0013705413 0.00023329444)
(0.11354614 -0.0013952099 0.00022571158)
(0.11467535 -0.0014572998 0.00021229807)
(0.11566141 -0.0015499137 0.00018908914)
(0.11645702 -0.0016247416 0.00014874202)
(0.11708197 -0.0015142544 7.5284133e-05)
(0.11765711 -0.001247151 -4.1132999e-05)
(0.1182816 -0.00087059357 -0.00019836322)
(0.11899066 -0.00039216038 -0.00039147556)
(0.11979883 0.00017882667 -0.00062248225)
(0.12062312 0.00084453518 -0.00089134921)
(0.12144463 0.0016037464 -0.0011919865)
(0.12224211 0.0024592705 -0.0015204674)
(0.12298842 0.0034217407 -0.0018738773)
(0.12364946 0.0045114187 -0.002251228)
(0.12418107 0.0057619639 -0.0026534077)
(0.12452517 0.0072283506 -0.0030891446)
(0.12460624 0.009003896 -0.0035751834)
(0.12432875 0.011250869 -0.0041418424)
(0.12357854 0.01425346 -0.004843506)
(0.12234253 0.018510428 -0.0057853329)
(0.11847573 0.024700885 -0.0071107855)
(0.09834446 -0.00098974205 6.6327782e-05)
(0.097933651 -0.0013426297 0.00012463984)
(0.097192811 -0.0013914964 0.00016630858)
(0.096193688 -0.0013748873 0.00019168766)
(0.095217134 -0.0013392223 0.0002052507)
(0.094346076 -0.001286626 0.0002107692)
(0.093557638 -0.0012243998 0.00021028326)
(0.092819399 -0.0011617243 0.00020486879)
(0.092109771 -0.0011053179 0.0001949835)
(0.091409349 -0.0010597993 0.0001802111)
(0.090693427 -0.0010276894 0.00015878686)
(0.089932024 -0.001006534 0.00012700146)
(0.089097744 -0.00098453405 7.85338e-05)
(0.088191766 -0.00092499473 4.0693972e-06)
(0.08727126 -0.00081419645 -0.00010432378)
(0.086401808 -0.00066206643 -0.0002419973)
(0.085616783 -0.0004781993 -0.00040881515)
(0.084926424 -0.00025117036 -0.00060066649)
(0.084440543 3.3215148e-05 -0.0008158938)
(0.084165579 0.00036786884 -0.0010657102)
(0.084105278 0.00074901287 -0.0013647766)
(0.084267871 0.0011838253 -0.0017282953)
(0.084659941 0.0016903972 -0.0021749163)
(0.085289549 0.002299431 -0.002730466)
(0.086176952 0.0030580393 -0.0034209147)
(0.087373931 0.0040413604 -0.0042743151)
(0.088998163 0.0053736968 -0.0053211994)
(0.091304584 0.0072641732 -0.0065852212)
(0.094982884 0.010059844 -0.0080559718)
(0.10336295 0.014308282 -0.0095358039)
(0.098345017 0.00098900572 -6.635095e-05)
(0.097936154 0.0013409491 -0.00012469921)
(0.097199257 0.0013883417 -0.00016643434)
(0.09620721 0.0013692741 -0.00019194404)
(0.095243062 0.0013294062 -0.00020576802)
(0.09439364 0.0012695389 -0.00021180989)
(0.093642904 0.0011946346 -0.00021237569)
(0.092970493 0.0011096156 -0.00020908183)
(0.092376452 0.0010130698 -0.000203497)
(0.091881226 0.000892866 -0.00019754067)
(0.091535364 0.00071362033 -0.00019450115)
(0.091437976 0.00038729373 -0.00020157936)
(0.092063447 -0.00020287305 -0.0002296475)
(0.093356722 -8.9552043e-05 -0.00036171544)
(0.094827061 0.00028401689 -0.000643451)
(0.096008279 0.00083204747 -0.0010658445)
(0.096733147 0.0015183936 -0.0015969669)
(0.0970011 0.00220744 -0.002191205)
(0.096901414 0.0028672558 -0.0028127163)
(0.096525729 0.0034879765 -0.0034446835)
(0.095925395 0.0040668218 -0.0040789864)
(0.095117058 0.0046069508 -0.0047069154)
(0.094090247 0.0051166026 -0.0053152383)
(0.09280376 0.0056094916 -0.0058833323)
(0.091172093 0.0061078188 -0.0063785115)
(0.089040355 0.0066490524 -0.0067479366)
(0.086141425 0.0073006782 -0.0069039436)
(0.082022748 0.0081919718 -0.0066973904)
(0.075914333 0.0095329702 -0.0058854966)
(0.060689967 0.012074585 -0.0042582079)
(0.10053754 0.00099852243 -6.8395802e-05)
(0.10195231 0.0013608574 -0.00012940048)
(0.10361144 0.0014293429 -0.00017414983)
(0.10519063 0.0014345599 -0.00020321938)
(0.10669706 0.001416405 -0.00022117626)
(0.10818166 0.0013744254 -0.0002317798)
(0.10964637 0.0013117708 -0.00023711307)
(0.11107642 0.0012297524 -0.00023843436)
(0.11246495 0.001121806 -0.00023657579)
(0.11380885 0.00096999592 -0.0002316089)
(0.11509056 0.00073751188 -0.00022166975)
(0.11625788 0.00035429515 -0.00019984701)
(0.11713504 -0.00024008726 -0.00015145547)
(0.11782365 -0.00012490461 -3.3426515e-05)
(0.11856698 0.00032971875 0.00014265409)
(0.11937272 0.0010262804 0.00034091996)
(0.12019086 0.0019259192 0.00053157858)
(0.1209831 0.0028953859 0.0006867924)
(0.12168715 0.003896072 0.00079341592)
(0.12225395 0.0049204769 0.00084606649)
(0.12264189 0.0059690774 0.00084312408)
(0.1228089 0.0070481923 0.00078813519)
(0.12270599 0.0081708519 0.00068878206)
(0.12226857 0.009359227 0.00055796338)
(0.12140254 0.010651597 0.0004171957)
(0.11996315 0.012115827 0.00030148051)
(0.11772345 0.013875464 0.00026928448)
(0.11432667 0.016158918 0.00042567825)
(0.10928646 0.019386386 0.00098407377)
(0.096877651 0.024261504 0.0023201889)
(0.10053728 -0.0010005342 -6.8385546e-05)
(0.10195109 -0.0013654855 -0.00012937529)
(0.10360814 -0.0014380883 -0.00017409693)
(0.10518336 -0.001450255 -0.00020311097)
(0.10668258 -0.0014440353 -0.00022095614)
(0.10815425 -0.0014226373 -0.00023133655)
(0.10959616 -0.0013954502 -0.0002362306)
(0.11098667 -0.0013743599 -0.0002367077)
(0.11230859 -0.0013705412 -0.00023329456)
(0.11354614 -0.0013952101 -0.00022571151)
(0.11467535 -0.0014572997 -0.00021229802)
(0.11566141 -0.001549914 -0.00018908858)
(0.11645702 -0.0016247417 -0.00014874095)
(0.11708196 -0.0015142549 -7.5283008e-05)
(0.11765711 -0.0012471511 4.1133867e-05)
(0.1182816 -0.00087059366 0.00019836369)
(0.11899066 -0.00039216001 0.00039147597)
(0.11979883 0.00017882725 0.00062248279)
(0.12062312 0.00084453608 0.00089134973)
(0.12144463 0.0016037479 0.0011919866)
(0.12224211 0.0024592732 0.0015204692)
(0.12298842 0.0034217425 0.0018738807)
(0.12364946 0.004511421 0.0022512333)
(0.12418107 0.0057619676 0.0026534141)
(0.12452517 0.0072283553 0.0030891485)
(0.12460624 0.0090039023 0.0035751882)
(0.12432875 0.011250877 0.0041418476)
(0.12357854 0.014253469 0.0048435133)
(0.12234253 0.018510439 0.0057853403)
(0.11847571 0.024700898 0.007110792)
(0.09834446 -0.00098974207 -6.6326946e-05)
(0.097933651 -0.0013426297 -0.00012463949)
(0.097192812 -0.0013914964 -0.00016630828)
(0.096193688 -0.0013748873 -0.00019168739)
(0.095217134 -0.0013392223 -0.00020525043)
(0.094346076 -0.001286626 -0.00021076904)
(0.093557638 -0.0012243997 -0.00021028295)
(0.092819399 -0.0011617243 -0.00020486864)
(0.092109771 -0.0011053177 -0.00019498329)
(0.091409349 -0.0010597995 -0.00018021111)
(0.090693427 -0.0010276893 -0.00015878687)
(0.089932024 -0.0010065341 -0.0001270014)
(0.089097744 -0.00098453403 -7.8533764e-05)
(0.088191766 -0.00092499444 -4.0695456e-06)
(0.08727126 -0.0008141963 0.00010432331)
(0.086401808 -0.00066206608 0.00024199656)
(0.085616782 -0.00047819924 0.00040881372)
(0.084926424 -0.00025117029 0.00060066464)
(0.084440542 3.3215206e-05 0.00081589079)
(0.084165579 0.00036786935 0.0010657061)
(0.084105278 0.00074901343 0.0013647716)