/*--------------------------------*- C++ -*----------------------------------*\
| =========                 |                                                 |
| \\      /  F ield         | OpenFOAM: The Open Source CFD Toolbox           |
|  \\    /   O peration     | Version:  2412                                  |
|   \\  /    A nd           | Website:  www.openfoam.com                      |
|    \\/     M anipulation  |                                                 |
\*---------------------------------------------------------------------------*/
FoamFile
{
    version     2.0;
    format      ascii;
    arch        "LSB;label=32;scalar=64";
    class       volScalarField;
    location    "100/rightSolid";
    object      T;
}
// * * * * * * * * * * * * * * * * * * * * * * * * * * * * * * * * * * * * * //

dimensions      [0 0 0 1 0 0 0];

internalField   nonuniform List<scalar> 
130
(
326.93743
324.11515
321.20299
318.35558
315.68681
313.27144
311.15227
309.34866
307.86433
306.69398
305.82821
305.2573
304.97372
329.29003
325.93697
322.55764
319.33368
316.37877
313.75445
311.4868
309.57969
308.02438
306.80624
305.90936
305.31969
305.0272
334.04761
329.47123
325.0845
321.09747
317.59189
314.58168
312.04859
309.96125
308.28498
306.98693
306.03884
305.41875
305.11201
341.15447
334.27016
328.25574
323.1795
318.95851
315.4809
312.64263
310.35604
308.54999
307.1682
306.16748
305.5166
305.19563
349.44063
338.75959
330.81868
324.70442
319.89429
316.06832
313.01784
310.59941
308.71058
307.27682
306.24412
305.57488
305.24556
349.44063
338.75959
330.81869
324.70443
319.8943
316.06833
313.01784
310.59941
308.71058
307.27682
306.24412
305.57488
305.24557
341.15449
334.27018
328.25578
323.17953
318.95852
315.48092
312.64264
310.35604
308.55
307.1682
306.16748
305.51661
305.19564
334.04764
329.47128
325.08454
321.0975
317.59191
314.58169
312.04861
309.96126
308.28499
306.98694
306.03885
305.41876
305.11202
329.29008
325.93702
322.55768
319.33372
316.3788
313.75447
311.48682
309.5797
308.02439
306.80626
305.90938
305.31971
305.02721
326.93749
324.11521
321.20304
318.35562
315.68684
313.27146
311.15229
309.34867
307.86435
306.69399
305.82822
305.25731
304.97373
)
;

boundaryField
{
    maxX
    {
        type            zeroGradient;
    }
    minZ
    {
        type            zeroGradient;
    }
    maxZ
    {
        type            zeroGradient;
    }
    rightSolid_to_bottomWater
    {
        type            compressible::turbulentTemperatureRadCoupledMixed;
        refValue        nonuniform List<scalar> 
130
(
303.90899
303.96539
303.82474
303.52337
303.11215
302.64821
302.18258
301.75705
301.39189
301.09546
300.86658
300.70025
300.59189
303.86967
304.08434
304.11608
303.97783
303.69723
303.31358
302.87018
302.41416
301.97933
301.59114
301.26435
301.00484
300.81494
305.2993
305.45143
305.39356
305.14566
304.74091
304.22447
303.64566
303.05873
302.50272
302.0069
301.58795
301.252
301.00122
312.71231
311.37024
309.9332
308.51689
307.17472
305.93495
304.81856
303.84927
303.03157
302.36313
301.83443
301.43009
301.13669
324.92208
313.91171
310.23245
308.05579
306.43519
305.1431
304.09708
303.25542
302.57884
302.03932
301.61475
301.28764
301.04831
324.92293
313.91236
310.23285
308.05599
306.43528
305.1431
304.09707
303.25541
302.57884
302.03932
301.61475
301.28764
301.04832
312.71441
311.37215
309.93467
308.51782
307.1752
305.93471
304.81838
303.84918
303.03156
302.36314
301.83445
301.4301
301.1367
305.30045
305.4526
305.39461
305.14647
304.74134
304.22264
303.64613
303.05919
302.50313
302.00721
301.58815
301.2521
301.00127
303.87076
304.08539
304.11697
303.97847
303.69755
303.31198
302.87061
302.41457
301.97968
301.59139
301.26449
301.00492
300.81497
303.91036
303.96651
303.8255
303.52378
303.11224
302.64676
302.18303
301.7574
301.3921
301.09555
300.86661
300.70027
300.59189
)
;
        refGradient     uniform 0;
        valueFraction   uniform 0.0075140686;
        source          uniform 0;
        logInterval     -1;
        writePrecision  8;
        updateHeader    1;
        writeToFile     0;
        useUserTime     1;
        kappaMethod     solidThermo;
        value           nonuniform List<scalar> 
130
(
326.75775
323.95734
321.06629
318.23834
315.58688
313.18654
311.08016
309.28725
307.81165
306.64813
305.78736
305.21964
304.93745
329.09245
325.76642
322.41298
319.21252
316.27805
313.67092
311.41733
309.52147
307.97489
306.76326
305.87088
305.28384
304.9922
333.82515
329.28448
324.9305
320.97186
317.4899
314.49877
311.98072
309.905
308.23746
306.9457
306.0018
305.38399
305.07775
340.93451
334.09193
328.11209
323.0636
318.86454
315.40408
312.5791
310.30274
308.50443
307.12827
306.13131
305.48244
305.16175
349.25039
338.56684
330.65807
324.57361
319.78774
315.98114
312.94606
310.53981
308.66041
307.23364
306.20572
305.5392
305.21064
349.25039
338.56684
330.65808
324.57362
319.78774
315.98115
312.94607
310.53981
308.66041
307.23364
306.20573
305.53921
305.21065
340.93454
334.09197
328.11213
323.06363
318.86456
315.40409
312.57911
310.30274
308.50444
307.12827
306.13132
305.48244
305.16176
333.82519
329.28453
324.93055
320.97189
317.48992
314.49877
311.98074
309.90501
308.23747
306.94571
306.00181
305.384
305.07776
329.0925
325.76647
322.41303
319.21256
316.27807
313.67092
311.41735
309.52148
307.97491
306.76328
305.87089
305.28385
304.99221
326.75782
323.95741
321.06635
318.23838
315.58691
313.18655
311.08019
309.28726
307.81166
306.64814
305.78737
305.21965
304.93746
)
;
    }
    rightSolid_to_topAir
    {
        type            compressible::turbulentTemperatureRadCoupledMixed;
        refValue        nonuniform List<scalar> 
130
(
307.27831
308.02994
308.56557
308.8962
309.04649
309.04373
308.91604
308.69102
308.39507
308.05262
307.68508
307.30955
306.95339
306.87138
307.55902
308.03235
308.31384
308.43061
308.41227
308.28966
308.09483
307.86136
307.62452
307.39711
307.15301
306.9158
307.97633
308.70014
309.16379
309.40407
309.45964
309.36887
309.16963
308.89914
308.5952
308.29692
308.0217
307.73704
307.46783
310.12098
310.93589
311.41656
311.63015
311.63459
311.47846
311.20251
310.84139
310.42541
309.98207
309.53578
309.10579
308.71949
313.0669
313.83385
314.19643
314.26625
314.12229
313.82286
313.41253
312.92613
312.39162
311.83209
311.26712
310.71343
310.19564
313.0669
313.83385
314.19643
314.26625
314.12227
313.82287
313.41253
312.92613
312.39162
311.83209
311.26712
310.71343
310.19564
310.12098
310.93589
311.41657
311.63015
311.63458
311.47846
311.2025
310.84138
310.42541
309.98207
309.53578
309.10579
308.71949
307.97633
308.70014
309.1638
309.40407
309.45963
309.36888
309.16963
308.89914
308.5952
308.29692
308.0217
307.73705
307.46783
306.87138
307.55903
308.03235
308.31385
308.43061
308.41228
308.28967
308.09484
307.86136
307.62453
307.39712
307.15302
306.91581
307.27832
308.02995
308.56558
308.89621
309.04648
309.04375
308.91605
308.69104
308.39508
308.05263
307.68509
307.30956
306.95341
)
;
        refGradient     uniform 0;
        valueFraction   uniform 0.00032132529;
        source          uniform 0;
        logInterval     -1;
        writePrecision  8;
        updateHeader    1;
        writeToFile     0;
        useUserTime     1;
        kappaMethod     solidThermo;
        value           nonuniform List<scalar> 
130
(
326.92442
324.10353
321.19277
318.34671
315.6792
313.26497
311.14681
309.34405
307.86042
306.6906
305.82521
305.25452
304.97099
329.2762
325.92467
322.54684
319.32433
316.37074
313.74762
311.48102
309.5748
308.02023
306.80268
305.90624
305.31683
305.02443
334.03274
329.45825
325.0733
321.08792
317.58381
314.57489
312.0429
309.95649
308.28097
306.98351
306.03586
305.41602
305.10937
341.13821
334.25646
328.24431
323.17002
318.95069
315.47449
312.63739
310.35176
308.54647
307.16525
306.16492
305.51427
305.19336
349.42289
338.74549
330.80737
324.69532
319.88698
316.06248
313.01319
310.59571
308.70764
307.27443
306.2421
305.57304
305.24374
349.42289
338.74549
330.80738
324.69532
319.88698
316.06248
313.01319
310.59571
308.70764
307.27443
306.2421
305.57305
305.24375
341.13822
334.25649
328.24434
323.17005
318.95071
315.4745
312.6374
310.35176
308.54648
307.16526
306.16493
305.51428
305.19337
334.03277
329.45829
325.07334
321.08795
317.58383
314.5749
312.04292
309.9565
308.28099
306.98352
306.03587
305.41603
305.10939
329.27625
325.92472
322.54689
319.32436
316.37077
313.74763
311.48104
309.57481
308.02024
306.8027
305.90625
305.31684
305.02444
326.92448
324.10359
321.19282
318.34675
315.67922
313.26499
311.14683
309.34406
307.86044
306.69062
305.82522
305.25453
304.971
)
;
    }
    rightSolid_to_heater
    {
        type            compressible::turbulentTemperatureRadCoupledMixed;
        refValue        nonuniform List<scalar> 10(329.48454 332.36542 338.397 348.3154 364.54786 364.54787 348.31541 338.39702 332.36545 329.4846);
        refGradient     uniform 0;
        valueFraction   uniform 0.50000003;
        source          uniform 0;
        logInterval     -1;
        writePrecision  8;
        updateHeader    1;
        writeToFile     0;
        useUserTime     1;
        kappaMethod     solidThermo;
        value           nonuniform List<scalar> 10(328.20764 330.82441 336.21906 344.73179 356.99122 356.99122 344.7318 336.21909 330.82445 328.2077);
    }
}


// ************************************************************************* //
