/*--------------------------------*- C++ -*----------------------------------*\
| =========                 |                                                 |
| \\      /  F ield         | OpenFOAM: The Open Source CFD Toolbox           |
|  \\    /   O peration     | Version:  2412                                  |
|   \\  /    A nd           | Website:  www.openfoam.com                      |
|    \\/     M anipulation  |                                                 |
\*---------------------------------------------------------------------------*/
FoamFile
{
    version     2.0;
    format      ascii;
    arch        "LSB;label=32;scalar=64";
    class       volVectorField;
    location    "600";
    object      U;
}
// * * * * * * * * * * * * * * * * * * * * * * * * * * * * * * * * * * * * * //

dimensions      [0 1 -1 0 0 0 0];

internalField   nonuniform List<vector> 
4000
(
(-0.00745469 0.0127361 -0.00745469)
(-0.0122703 0.0051803 -0.00455153)
(-0.0139766 0.000228747 -0.00232919)
(-0.0134468 -0.00204811 -0.000954382)
(-0.0125149 -0.00255441 -0.000162457)
(-0.0115785 -0.00260251 0.000325386)
(-0.0106772 -0.00278911 0.000616793)
(-0.00967407 -0.00303853 0.000877584)
(-0.0084574 -0.00353696 0.001103)
(-0.00662756 -0.00430221 0.00118655)
(-0.00400927 -0.00496036 0.00114804)
(-0.000863926 -0.00569851 0.00105044)
(0.00385256 -0.00609527 0.00108306)
(0.0076499 -0.00581392 0.00117853)
(0.0110383 -0.00505149 0.00131836)
(0.013448 -0.0040774 0.00146876)
(0.0146329 -0.00369696 0.00162765)
(0.0144385 -0.00370918 0.0020163)
(0.0117053 -0.00322321 0.00236653)
(0.0082434 0.000724606 0.00354598)
(-0.000510451 0.0213837 -0.000510449)
(0.00160254 0.0124674 5.85519e-05)
(0.000844908 0.0061624 2.34937e-05)
(-0.00125656 0.00304032 -0.00038201)
(-0.00458196 0.00176263 -0.00112143)
(-0.00728284 -0.000666746 -0.00195161)
(-0.00831817 -0.00268963 -0.00237533)
(-0.0079697 -0.00363527 -0.00223319)
(-0.00673898 -0.00431369 -0.00187802)
(-0.00487989 -0.00535758 -0.00169622)
(-0.00263134 -0.00615793 -0.00165007)
(-0.0002065 -0.0072731 -0.00148888)
(0.00251105 -0.00781153 -0.0011364)
(0.00514255 -0.00768807 -0.000643743)
(0.00740451 -0.00703314 -1.38936e-05)
(0.0087811 -0.0058624 0.000499082)
(0.00910219 -0.00460254 0.000526199)
(0.00612371 -0.000855361 0.00101596)
(-0.00241409 0.00484932 0.00165619)
(-0.000719572 0.00675616 0.00211964)
(0.00664213 0.0136085 0.00664213)
(0.013849 0.00961862 0.00634393)
(0.0171504 0.00777731 0.00544049)
(0.0169558 0.00744577 0.00425125)
(0.0144167 0.00722458 0.00292134)
(0.0113805 0.00594089 0.00157887)
(0.00837496 0.00429185 0.000434407)
(0.00482962 0.00226581 -0.000673153)
(0.00189243 -0.000766477 -0.00203586)
(0.000409129 -0.00399295 -0.00332107)
(0.000764297 -0.005304 -0.00350552)
(0.00148937 -0.00653338 -0.00303848)
(0.00213465 -0.00741138 -0.00239595)
(0.00255418 -0.00796405 -0.00157198)
(0.00165145 -0.0077658 -0.00054147)
(-0.000585129 -0.00518769 0.000333268)
(-0.00662637 0.000863273 0.000717178)
(-0.0104817 0.00350019 0.00105481)
(-0.0110991 0.00173433 0.00181394)
(-0.00473169 -0.00975316 0.00323828)
(0.00626549 -0.0248498 0.00626549)
(0.0139777 -0.0189817 0.00686239)
(0.018091 -0.0128285 0.00702366)
(0.0199349 -0.0062872 0.00685898)
(0.0199995 -0.000717491 0.00628793)
(0.0190133 0.0027425 0.00546408)
(0.0173676 0.00459541 0.00450313)
(0.0153168 0.00505729 0.00339402)
(0.0135666 0.00438963 0.00209002)
(0.0119621 0.00329849 0.00080607)
(0.00963061 0.0014051 -0.000461948)
(0.00717618 -0.00109731 -0.00138425)
(0.00468311 -0.0030311 -0.00148475)
(0.00198955 -0.00405494 -0.000859977)
(-0.00370915 -0.00308795 0.000428211)
(-0.00898207 -0.00055193 0.00141419)
(-0.0114984 0.00153849 0.00215087)
(-0.0122161 0.000816302 0.00288621)
(-0.00978539 -0.00673622 0.0039518)
(-0.00129523 -0.0230491 0.00456433)
(0.00267419 -0.0354051 0.00267419)
(0.00707276 -0.0278808 0.0040826)
(0.00748278 -0.0208368 0.0049979)
(0.0075249 -0.0147499 0.0057211)
(0.00692497 -0.0101365 0.00618384)
(0.00684469 -0.00679461 0.00618714)
(0.00749767 -0.00441365 0.00587445)
(0.00882426 -0.0026581 0.00538525)
(0.0101946 -0.00129138 0.0049005)
(0.0112122 0.000199396 0.00450621)
(0.0114024 0.0012033 0.00416001)
(0.0107081 0.00153947 0.00397001)
(0.00903859 0.00140509 0.00377598)
(0.00664516 0.00118503 0.00373381)
(0.00346051 0.000686529 0.00412216)
(8.0429e-06 -0.000763557 0.00497326)
(-0.00237294 -0.00257896 0.00553385)
(-0.00164439 -0.00636401 0.00571715)
(-0.00207727 -0.0162388 0.00511983)
(0.00232503 -0.0326237 0.00489289)
(0.000725531 -0.0422354 0.000725527)
(0.00251165 -0.0347711 0.00239647)
(-0.000202204 -0.0279413 0.00316878)
(-0.00143108 -0.022899 0.00358094)
(-0.00253198 -0.0196428 0.00366668)
(-0.00235289 -0.0174583 0.00350922)
(-0.00113428 -0.0158779 0.00322975)
(0.00094684 -0.0143978 0.0029928)
(0.00353474 -0.0124596 0.0031054)
(0.00573118 -0.0100641 0.00373643)
(0.0071505 -0.00811853 0.00434785)
(0.00802003 -0.00736537 0.0046485)
(0.00879178 -0.00721803 0.00479046)
(0.00937231 -0.00725079 0.00490808)
(0.0096414 -0.00750868 0.00506712)
(0.00936641 -0.00862208 0.00529261)
(0.00828952 -0.0111725 0.00544249)
(0.0073676 -0.0154337 0.0051443)
(0.00452062 -0.0238558 0.00461275)
(0.00471326 -0.0370618 0.00448542)
(-0.000707096 -0.0432055 -0.000707104)
(-0.000956765 -0.0368179 0.000899439)
(-0.00554128 -0.0316206 0.00100221)
(-0.00741357 -0.0286355 0.000792116)
(-0.00843828 -0.0269243 0.000328103)
(-0.0079312 -0.0258582 -0.000187323)
(-0.00621701 -0.025027 -0.000672993)
(-0.00359813 -0.024063 -0.00100553)
(-0.000189956 -0.0224759 -0.000941101)
(0.00286249 -0.020158 -0.000202543)
(0.00518626 -0.0182985 0.000500375)
(0.00718641 -0.0179905 0.000590778)
(0.0094697 -0.0180491 0.000642739)
(0.011542 -0.0180606 0.000859274)
(0.013096 -0.0180681 0.00126455)
(0.013806 -0.0184641 0.00178025)
(0.0133338 -0.0197449 0.00225219)
(0.0120261 -0.0225984 0.0024826)
(0.00786656 -0.0286483 0.00272682)
(0.00627151 -0.0385998 0.00346767)
(-0.00254291 -0.0387955 -0.00254291)
(-0.0045205 -0.0343893 -0.00122872)
(-0.0101782 -0.0312892 -0.00187942)
(-0.0126541 -0.030058 -0.0026979)
(-0.0136288 -0.0296902 -0.00363352)
(-0.0127346 -0.0295745 -0.00448828)
(-0.0103927 -0.0294918 -0.00521357)
(-0.00694392 -0.0292024 -0.00573069)
(-0.00274616 -0.0284583 -0.00590453)
(0.0012999 -0.0269076 -0.0053407)
(0.00467883 -0.0255739 -0.00468635)
(0.00755961 -0.025632 -0.0048402)
(0.0110595 -0.0256332 -0.00477245)
(0.0142316 -0.025339 -0.00437734)
(0.0166152 -0.0248509 -0.0037046)
(0.0178178 -0.0244589 -0.00283961)
(0.0174941 -0.0245596 -0.00189728)
(0.0156988 -0.0257082 -0.000984595)
(0.010487 -0.0291816 6.18637e-05)
(0.00775965 -0.0357874 0.00173573)
(-0.005328 -0.0292492 -0.005328)
(-0.00916751 -0.0263306 -0.00493026)
(-0.0155725 -0.0249846 -0.00619951)
(-0.0183612 -0.0249681 -0.00768491)
(-0.0192056 -0.0254274 -0.0092011)
(-0.0180474 -0.0260671 -0.0105961)
(-0.0151729 -0.0266619 -0.0117972)
(-0.0108855 -0.0270165 -0.012694)
(-0.00556523 -0.0269019 -0.0130623)
(-0.000592995 -0.025998 -0.0123772)
(0.00459419 -0.025276 -0.0114433)
(0.00858649 -0.0255791 -0.0117629)
(0.0134059 -0.0254603 -0.0115352)
(0.0176338 -0.0249278 -0.0108242)
(0.0207883 -0.0241504 -0.00975918)
(0.0224775 -0.0233141 -0.00845578)
(0.0223376 -0.0226328 -0.00701478)
(0.0202066 -0.0224741 -0.00548502)
(0.0142408 -0.0238299 -0.00367872)
(0.0100486 -0.027652 -0.000948974)
(-0.00947368 -0.0183133 -0.00947368)
(-0.0160807 -0.015463 -0.0110288)
(-0.0230653 -0.0141785 -0.0137488)
(-0.0261045 -0.0138759 -0.016466)
(-0.0268565 -0.0138276 -0.0191454)
(-0.0254319 -0.0138059 -0.0216849)
(-0.022066 -0.0136669 -0.0240019)
(-0.0169363 -0.0132845 -0.0259801)
(-0.010305 -0.0125205 -0.0272555)
(-0.00399458 -0.0113134 -0.0268789)
(0.00484163 -0.0105158 -0.0258077)
(0.0109454 -0.0114574 -0.0262176)
(0.0175967 -0.0121905 -0.0252207)
(0.0230002 -0.0125815 -0.0234575)
(0.0268368 -0.0127171 -0.0212624)
(0.0289016 -0.0127108 -0.0187837)
(0.0289164 -0.0127015 -0.0160957)
(0.026613 -0.0129454 -0.0132339)
(0.020158 -0.0142028 -0.00989116)
(0.0135688 -0.017458 -0.0053114)
(-0.00455153 0.0051803 -0.0122703)
(-0.00846525 0.00281012 -0.00846525)
(-0.0104513 0.000549775 -0.00485276)
(-0.0107336 -0.000847364 -0.00222027)
(-0.0105013 -0.00132525 -0.000423459)
(-0.0100499 -0.00146125 0.000965455)
(-0.00950791 -0.00163219 0.00196485)
(-0.00888573 -0.00193888 0.00263511)
(-0.00799277 -0.00237991 0.00304426)
(-0.00651682 -0.00292668 0.00315457)
(-0.00423016 -0.00352524 0.0029723)
(-0.00136316 -0.00427642 0.00268571)
(0.00305533 -0.00486263 0.00270561)
(0.00677931 -0.00478458 0.00291333)
(0.0101002 -0.00430896 0.00322218)
(0.012589 -0.00374809 0.00349122)
(0.013949 -0.00375416 0.00390334)
(0.0141339 -0.00379919 0.00467616)
(0.0112012 -0.0026838 0.00528545)
(0.00756178 0.00232717 0.00738731)
(5.85511e-05 0.0124674 0.00160254)
(0.00073097 0.0079773 0.000730969)
(0.000445181 0.0044688 -0.000450703)
(-0.000821089 0.00238267 -0.00146218)
(-0.00267701 0.00126228 -0.00227611)
(-0.00444764 -0.000327915 -0.00299399)
(-0.00552389 -0.00182287 -0.0033557)
(-0.00556975 -0.00252806 -0.0031528)
(-0.00497032 -0.00301253 -0.00271324)
(-0.003943 -0.00364752 -0.00237444)
(-0.00247033 -0.00456064 -0.0023031)
(-0.000688883 -0.00574461 -0.00208498)
(0.00157863 -0.00655447 -0.00143768)
(0.00379304 -0.00680391 -0.000430305)
(0.00565152 -0.00636682 0.000832405)
(0.00668804 -0.00530752 0.00163472)
(0.00665981 -0.00376349 0.00178767)
(0.00109699 0.00189617 0.00287356)
(-0.00456284 0.00539545 0.00350993)
(-0.00218023 0.00680117 0.00449008)
(0.00634392 0.00961863 0.013849)
(0.0121109 0.00793871 0.0121109)
(0.0152923 0.00678688 0.00958972)
(0.0153798 0.00616342 0.00697861)
(0.0133525 0.00560795 0.00442968)
(0.0105607 0.00437092 0.00193562)
(0.00776192 0.00257786 -0.000274501)
(0.00486468 0.0005738 -0.00212362)
(0.00255739 -0.0015357 -0.0036216)
(0.00162272 -0.00314083 -0.00459143)
(0.00144916 -0.00441345 -0.00485683)
(0.00139648 -0.00574515 -0.0043924)
(0.00125106 -0.00695164 -0.00344515)
(0.000655108 -0.00775815 -0.00194267)
(-0.00110388 -0.00694783 -0.00011426)
(-0.00427445 -0.00331099 0.00121666)
(-0.00982843 0.00157607 0.00174852)
(-0.0128327 0.00334194 0.00230763)
(-0.0128957 -0.000136879 0.00353636)
(-0.00627698 -0.0114152 0.00574236)
(0.00686239 -0.0189817 0.0139777)
(0.01455 -0.0131264 0.01455)
(0.0194589 -0.00722076 0.0140085)
(0.0217598 -0.00145741 0.0125924)
(0.0218253 0.00270385 0.0106735)
(0.0202469 0.00466851 0.00864214)
(0.0180235 0.00518447 0.006622)
(0.0157131 0.00465644 0.00448647)
(0.0136602 0.00334042 0.00208297)
(0.0114034 0.00130472 -0.00048019)
(0.00882971 -0.00110232 -0.00230914)
(0.00620374 -0.00317343 -0.0029041)
(0.00336667 -0.00462484 -0.00250101)
(-0.000704794 -0.00518234 -0.00101225)
(-0.00653426 -0.00350768 0.000994323)
(-0.0112926 -0.000318558 0.00252795)
(-0.0139732 0.0020215 0.00385278)
(-0.0148048 0.000814818 0.00505598)
(-0.0117986 -0.00754852 0.00697109)
(-0.00327062 -0.0238821 0.00824527)
(0.0040826 -0.0278808 0.00707276)
(0.0100215 -0.020739 0.0100215)
(0.0124939 -0.0138486 0.0117221)
(0.0138084 -0.00739508 0.0125585)
(0.0142983 -0.00201947 0.0126783)
(0.0147649 0.00180405 0.0119827)
(0.0147105 0.003761 0.0107726)
(0.0144948 0.00441868 0.00928475)
(0.0142606 0.00435574 0.00767699)
(0.0138328 0.0039683 0.00620158)
(0.0128907 0.00333228 0.00510332)
(0.0110661 0.00247663 0.00432564)
(0.00813293 0.0016004 0.00392839)
(0.00404219 0.00101506 0.00427686)
(-0.00170235 0.0011187 0.00586304)
(-0.00585046 0.00140447 0.00753848)
(-0.00813884 0.000915168 0.00859394)
(-0.00689249 -0.00356927 0.00990104)
(-0.00600626 -0.0150414 0.00992474)
(-0.000324249 -0.0330315 0.00937997)
(0.00239647 -0.0347711 0.00251164)
(0.00709868 -0.0270576 0.00709869)
(0.00699032 -0.0194209 0.00974859)
(0.00693721 -0.0125069 0.0111793)
(0.00636975 -0.00712325 0.0118306)
(0.0062709 -0.00338024 0.0118144)
(0.00709877 -0.000804023 0.0113924)
(0.008244 0.000828289 0.0107796)
(0.00941948 0.00195566 0.0102034)
(0.0101893 0.00270122 0.00982106)
(0.0103523 0.00313526 0.00971352)
(0.0098901 0.0032149 0.00989633)
(0.00884331 0.00312819 0.0102478)
(0.00722816 0.00300485 0.010668)
(0.00516105 0.00264273 0.0111073)
(0.00315151 0.00129472 0.0117428)
(0.00165669 -0.00197411 0.0124746)
(0.00120673 -0.00821191 0.0122972)
(-0.0011754 -0.0203212 0.0110241)
(0.00139644 -0.0373894 0.0093223)
(0.000899431 -0.0368179 -0.00095676)
(0.00475054 -0.0291461 0.00475053)
(0.00245673 -0.0218718 0.00746273)
(0.00170766 -0.0158209 0.00863585)
(0.000893499 -0.0112909 0.0089334)
(0.000939627 -0.0082382 0.00861344)
(0.00184971 -0.00603567 0.00812895)
(0.00335584 -0.00420276 0.00787796)
(0.00499583 -0.00252907 0.00816022)
(0.00635063 -0.000946364 0.00902596)
(0.00724556 3.67555e-05 0.00985631)
(0.00773267 0.000203702 0.0103928)
(0.00799708 -1.67718e-05 0.0107362)
(0.00802588 -0.000473115 0.0110204)
(0.00786062 -0.00137265 0.0113493)
(0.007372 -0.00328862 0.0117299)
(0.00618886 -0.0067543 0.0119145)
(0.00506102 -0.0128388 0.0113146)
(0.0013766 -0.023523 0.0100327)
(0.00243189 -0.0380223 0.00802423)
(-0.00122872 -0.0343893 -0.0045205)
(0.00132162 -0.0273442 0.00132162)
(-0.00294951 -0.0213881 0.00330939)
(-0.00413987 -0.0171573 0.00360375)
(-0.00487481 -0.0140512 0.003104)
(-0.0045085 -0.0121217 0.00206561)
(-0.00313576 -0.0107288 0.00111503)
(-0.00101942 -0.00929187 0.000691339)
(0.0014506 -0.00734967 0.0013822)
(0.00347517 -0.0047093 0.00330395)
(0.0050071 -0.00332481 0.00473006)
(0.00633977 -0.0035002 0.00496986)
(0.00784782 -0.004143 0.00501677)
(0.00921187 -0.00505462 0.005277)
(0.0102128 -0.00625399 0.00584794)
(0.0105117 -0.00807096 0.00663149)
(0.00975989 -0.0109936 0.00726965)
(0.0082534 -0.015679 0.00730975)
(0.00357501 -0.0236857 0.00663427)
(0.00366921 -0.0347943 0.0049511)
(-0.00493026 -0.0263307 -0.00916752)
(-0.00558884 -0.0211313 -0.00558885)
(-0.0109316 -0.0175851 -0.00520336)
(-0.0129226 -0.0158092 -0.00619103)
(-0.0135384 -0.0148077 -0.00767132)
(-0.0125487 -0.0142828 -0.00920405)
(-0.010282 -0.0140147 -0.0104555)
(-0.0070427 -0.0137944 -0.011055)
(-0.00317566 -0.0133548 -0.0105698)
(0.000468558 -0.0120153 -0.0084625)
(0.00410372 -0.0114927 -0.00669377)
(0.00701701 -0.012214 -0.00714017)
(0.0103902 -0.0124406 -0.00721212)
(0.0134159 -0.0123889 -0.00663932)
(0.0156967 -0.0123444 -0.00547049)
(0.0167921 -0.0125624 -0.00395529)
(0.0163245 -0.0133285 -0.00248146)
(0.0142609 -0.0151624 -0.00128139)
(0.00850655 -0.0193731 -0.000585098)
(0.00643701 -0.0266564 -0.000811597)
(-0.0110288 -0.015463 -0.0160807)
(-0.0172115 -0.0105987 -0.0172115)
(-0.024373 -0.00784965 -0.0205566)
(-0.027378 -0.00637056 -0.0243741)
(-0.0282115 -0.00534409 -0.0283016)
(-0.0269773 -0.00448407 -0.032088)
(-0.0239143 -0.00359597 -0.0355269)
(-0.019122 -0.00253182 -0.038416)
(-0.012584 -0.00112258 -0.0401547)
(-0.00586527 0.000806483 -0.0394195)
(0.00536204 0.00168489 -0.0379422)
(0.0124994 -4.0902e-06 -0.0384474)
(0.019336 -0.00137598 -0.036867)
(0.0244292 -0.00245958 -0.0341079)
(0.0278146 -0.00336778 -0.0307145)
(0.029459 -0.00423348 -0.0269175)
(0.029091 -0.00524842 -0.0228334)
(0.0264155 -0.00679895 -0.0186226)
(0.0192879 -0.00986975 -0.0142453)
(0.0123193 -0.015815 -0.00990072)
(-0.00232919 0.000228749 -0.0139766)
(-0.00485276 0.000549775 -0.0104513)
(-0.00654182 0.000465383 -0.00654182)
(-0.00740417 0.000237581 -0.00325732)
(-0.00792986 6.1423e-05 -0.000791486)
(-0.00819751 -0.000151932 0.00114851)
(-0.00819543 -0.000509974 0.0026343)
(-0.00808115 -0.00090549 0.00361293)
(-0.00767829 -0.00130445 0.00407666)
(-0.00663161 -0.0018298 0.00399362)
(-0.00466009 -0.00252157 0.00356942)
(-0.00197091 -0.00340498 0.00317699)
(0.00212417 -0.00422115 0.00345977)
(0.00579844 -0.00430081 0.00409678)
(0.00909232 -0.0039904 0.00473339)
(0.0116921 -0.00375369 0.00520008)
(0.0132324 -0.0038812 0.00595966)
(0.0137287 -0.00384266 0.00689218)
(0.0107853 -0.00184943 0.00792713)
(0.00699878 0.00398364 0.0109016)
(2.34936e-05 0.0061624 0.000844908)
(-0.000450703 0.0044688 0.000445181)
(-0.000807554 0.00316933 -0.000807554)
(-0.00171664 0.0021249 -0.00213201)
(-0.00276528 0.0010824 -0.00323272)
(-0.00366808 -1.06425e-05 -0.00395591)
(-0.00437834 -0.000932238 -0.00414333)
(-0.00461644 -0.001418 -0.00381823)
(-0.00438799 -0.00185918 -0.003447)
(-0.00378981 -0.00261934 -0.00328451)
(-0.00273856 -0.0038011 -0.00318082)
(-0.00131509 -0.0051962 -0.0027267)
(0.000570919 -0.00627684 -0.00155046)
(0.0024082 -0.00664396 0.000148473)
(0.00404061 -0.00609316 0.00173183)
(0.00486957 -0.00496057 0.00244042)
(0.00417178 -0.00248978 0.00302193)
(-0.00299624 0.00369069 0.00473911)
(-0.00606274 0.00569165 0.00569964)
(-0.00340736 0.00713001 0.00750611)
(0.0054405 0.00777731 0.0171504)
(0.00958972 0.00678688 0.0152923)
(0.0121363 0.00601002 0.0121363)
(0.0121219 0.00542892 0.00861382)
(0.0104572 0.00464472 0.0052097)
(0.00813955 0.0033154 0.00202076)
(0.00577431 0.00162435 -0.000789015)
(0.00367984 -2.54923e-05 -0.00307911)
(0.00202145 -0.00160885 -0.00468586)
(0.00139551 -0.00288885 -0.00538354)
(0.000970304 -0.00436485 -0.00540796)
(0.000530223 -0.00601675 -0.00471126)
(-8.88908e-05 -0.00745891 -0.00323394)
(-0.00145054 -0.00795111 -0.00096757)
(-0.00357595 -0.00612449 0.00108797)
(-0.00727619 -0.0019557 0.00239681)
(-0.0125536 0.00237579 0.00336134)
(-0.014971 0.00320399 0.00461109)
(-0.0141788 -0.00137148 0.00636684)
(-0.00750935 -0.0120306 0.00862522)
(0.00702366 -0.0128285 0.018091)
(0.0140085 -0.00722076 0.0194589)
(0.0187235 -0.00195873 0.0187235)
(0.0207253 0.00230825 0.0164848)
(0.0203897 0.00478139 0.0135606)
(0.0186634 0.00556937 0.0104533)
(0.0163881 0.00514196 0.00733516)
(0.0140829 0.00393242 0.00414252)
(0.0120061 0.00212275 0.000991439)
(0.00955917 -0.000323836 -0.00173187)
(0.00713101 -0.00267906 -0.00311082)
(0.00455789 -0.00459741 -0.00317102)
(0.0014241 -0.00592002 -0.00209814)
(-0.00352467 -0.00578111 0.000303425)
(-0.00890629 -0.00306531 0.00249695)
(-0.0133424 0.000782196 0.0042477)
(-0.0160606 0.00285408 0.00585852)
(-0.0167313 0.000749703 0.00757192)
(-0.0132203 -0.00831629 0.00983687)
(-0.00482161 -0.0239433 0.0106293)
(0.0049979 -0.0208367 0.00748278)
(0.0117221 -0.0138486 0.0124939)
(0.0153406 -0.00769165 0.0153406)
(0.0174752 -0.00183886 0.0164232)
(0.0183157 0.0027406 0.0159785)
(0.0181021 0.00538622 0.0144537)
(0.0173004 0.00630906 0.0123136)
(0.0163229 0.00601891 0.00983867)
(0.0153676 0.00501123 0.00732988)
(0.0142258 0.00349519 0.00517901)
(0.0124261 0.00163429 0.00358201)
(0.00961681 -0.000182076 0.00276032)
(0.00574031 -0.00134623 0.00299518)
(0.000139522 -0.00129853 0.00460776)
(-0.00590718 0.000600062 0.0072076)
(-0.00965965 0.00242068 0.00917529)
(-0.0117707 0.0024124 0.0108231)
(-0.0108026 -0.0027091 0.0127311)
(-0.00883946 -0.0149607 0.0128178)
(-0.00227706 -0.0325978 0.0107605)
(0.00316878 -0.0279413 -0.0002022)
(0.00974859 -0.0194209 0.00699032)
(0.0114985 -0.0121486 0.0114985)
(0.0124409 -0.00544032 0.0138824)
(0.0127267 8.36404e-05 0.0148607)
(0.0127902 0.00369989 0.0144433)
(0.0128398 0.00546402 0.0131967)
(0.012935 0.00593655 0.0116716)
(0.0130105 0.00569088 0.0102943)
(0.0128091 0.00511278 0.00937599)
(0.0120235 0.00444106 0.00910155)
(0.0104861 0.00389586 0.00945891)
(0.00814063 0.00377712 0.0102461)
(0.00495737 0.0041079 0.0113103)
(0.00123663 0.00454809 0.012525)
(-0.00215517 0.00431602 0.0140873)
(-0.00407348 0.00199498 0.0156504)
(-0.00388836 -0.0054321 0.0160518)
(-0.00506599 -0.0190936 0.013689)
(-0.000611745 -0.0367754 0.00911455)
(0.00100222 -0.0316206 -0.00554128)
(0.00746273 -0.0218718 0.00245673)
(0.00738926 -0.0141508 0.00738926)
(0.0077247 -0.00746826 0.00987671)
(0.00751234 -0.0023581 0.0107148)
(0.00782756 0.00107088 0.0106923)
(0.00830067 0.00293359 0.00983212)
(0.00895726 0.00374386 0.00894146)
(0.00951604 0.00408835 0.00850539)
(0.00968908 0.00435098 0.00878501)
(0.00932889 0.00436557 0.0095757)
(0.00848662 0.00409708 0.0105205)
(0.00728039 0.00399556 0.0114832)
(0.00576793 0.00415708 0.01248)
(0.00412069 0.0042073 0.0136563)
(0.00246416 0.00324239 0.0151255)
(0.000896249 -8.99723e-05 0.0162612)
(0.000278332 -0.00796609 0.0152096)
(-0.00273098 -0.0211939 0.0116744)
(0.000669745 -0.0374006 0.00551748)
(-0.00187942 -0.0312892 -0.0101782)
(0.00330939 -0.0213881 -0.00294952)
(0.00122473 -0.0140904 0.00122473)
(0.00121591 -0.00809064 0.00271715)
(0.00104391 -0.00346945 0.0025504)
(0.00161985 -0.00019825 0.00165867)
(0.002936 0.00201886 0.000984831)
(0.00446368 0.00356359 0.000736419)
(0.00586305 0.00466646 0.00132189)
(0.00649522 0.00552349 0.00280768)
(0.00636988 0.00588111 0.00437546)
(0.0061417 0.00561679 0.00527237)
(0.00619937 0.00531599 0.00598965)
(0.00622589 0.00491326 0.00698546)
(0.00612259 0.00407839 0.00836395)
(0.00578006 0.00192623 0.00966849)
(0.004957 -0.00257447 0.0102053)
(0.00410596 -0.00971634 0.00936811)
(4.63426e-05 -0.0206963 0.00618455)
(0.00256073 -0.0340897 -0.000156783)
(-0.00619951 -0.0249846 -0.0155725)
(-0.00520337 -0.0175851 -0.0109316)
(-0.00919484 -0.0125655 -0.00919484)
(-0.00988044 -0.00948554 -0.00936029)
(-0.00970166 -0.00744506 -0.0105428)
(-0.0083621 -0.0061447 -0.0120877)
(-0.00624448 -0.00535236 -0.0134764)
(-0.00361361 -0.00482082 -0.0140382)
(-0.000699546 -0.00414756 -0.0129338)
(0.00173289 -0.00218216 -0.0104988)
(0.0039337 -0.0017675 -0.00856609)
(0.00566133 -0.00343498 -0.00805481)
(0.00775528 -0.00419064 -0.00798422)
(0.00984162 -0.0044093 -0.00756091)
(0.0115294 -0.00470638 -0.00631821)
(0.0123618 -0.00555753 -0.00453422)
(0.0122041 -0.00742753 -0.00302492)
(0.0112394 -0.0108155 -0.00268507)
(0.00663974 -0.0170534 -0.00404107)
(0.00661096 -0.026062 -0.0078297)
(-0.0137488 -0.0141785 -0.0230653)
(-0.0205566 -0.00784965 -0.024373)
(-0.028065 -0.00431111 -0.028065)
(-0.0309586 -0.00225499 -0.0325927)
(-0.0315801 -0.00077362 -0.0373905)
(-0.0301473 0.000506405 -0.0421091)
(-0.0269164 0.00182014 -0.046449)
(-0.0218765 0.00333237 -0.0501294)
(-0.0147158 0.00526123 -0.0523166)
(-0.00693927 0.00778405 -0.0511905)
(0.00653869 0.00856835 -0.0492795)
(0.0146778 0.00622515 -0.0497718)
(0.022092 0.00430256 -0.0476021)
(0.0272765 0.0027249 -0.0439899)
(0.0305934 0.00136392 -0.0396461)
(0.0322617 7.34464e-05 -0.034895)
(0.0319852 -0.00139093 -0.0298726)
(0.0293176 -0.00351618 -0.0248953)
(0.0217421 -0.00743419 -0.0203481)
(0.0143071 -0.0146168 -0.0172574)
(-0.000954382 -0.00204811 -0.0134468)
(-0.00222027 -0.000847365 -0.0107336)
(-0.00325732 0.000237581 -0.00740417)
(-0.00411042 0.000947755 -0.00411042)
(-0.00496487 0.00123537 -0.00126564)
(-0.00578091 0.00114182 0.00111639)
(-0.00652749 0.00077168 0.00295236)
(-0.007171 0.000312878 0.00420037)
(-0.0074528 -0.00024081 0.00467544)
(-0.00693371 -0.00108554 0.0044371)
(-0.00533556 -0.00215489 0.0039011)
(-0.00278564 -0.00332086 0.00362894)
(0.000972431 -0.00427752 0.00430473)
(0.00474394 -0.00436774 0.00529691)
(0.00809431 -0.00402841 0.00605058)
(0.0108313 -0.00399922 0.0066022)
(0.0125732 -0.00394907 0.00751954)
(0.0130277 -0.00344882 0.00831241)
(0.0104048 -0.000743183 0.00960075)
(0.00641106 0.00552311 0.013035)
(-0.00038201 0.00304032 -0.00125656)
(-0.00146218 0.00238267 -0.000821088)
(-0.00213201 0.0021249 -0.00171664)
(-0.00280172 0.00175794 -0.00280172)
(-0.00327214 0.00117704 -0.0036715)
(-0.00357634 0.000628375 -0.00410752)
(-0.00383755 0.000270223 -0.00406293)
(-0.00408694 -6.18703e-05 -0.00372126)
(-0.00413777 -0.000837355 -0.00334903)
(-0.00400222 -0.00228721 -0.00310189)
(-0.00339461 -0.00404625 -0.00284956)
(-0.00230477 -0.00572927 -0.00212886)
(-0.000875913 -0.00683871 -0.000595822)
(0.00078937 -0.00693861 0.00130237)
(0.00229416 -0.00597568 0.00256234)
(0.00305152 -0.00453924 0.00301075)
(0.000387232 -0.00034008 0.00405366)
(-0.00526544 0.0041678 0.00592511)
(-0.00700415 0.00601052 0.00737113)
(-0.00410036 0.0080344 0.0098145)
(0.00425125 0.00744577 0.0169558)
(0.00697861 0.00616342 0.0153798)
(0.00861382 0.00542892 0.0121219)
(0.00829652 0.00475433 0.00829652)
(0.00688117 0.00370296 0.00456374)
(0.00512008 0.00228067 0.00116681)
(0.00343555 0.000893869 -0.00165976)
(0.00215616 -0.000277368 -0.00360941)
(0.00120722 -0.00161332 -0.00466375)
(0.000493677 -0.00341817 -0.00495289)
(-0.000271957 -0.00552767 -0.00469458)
(-0.00111978 -0.0074429 -0.00368438)
(-0.00226552 -0.00859253 -0.00175267)
(-0.0039296 -0.00808682 0.000480476)
(-0.00615402 -0.00525095 0.00204996)
(-0.0101338 -0.000745768 0.0032534)
(-0.014467 0.00290573 0.0046687)
(-0.016453 0.00306866 0.00645634)
(-0.0148749 -0.00143809 0.00849966)
(-0.00829911 -0.010874 0.0104538)
(0.00685898 -0.0062872 0.0199349)
(0.0125924 -0.00145741 0.0217598)
(0.0164848 0.00230825 0.0207253)
(0.0178284 0.00474398 0.0178284)
(0.0172295 0.00577578 0.0141899)
(0.0155501 0.00553591 0.0103711)
(0.0134386 0.00442333 0.00657788)
(0.011356 0.00277191 0.00296077)
(0.00924801 0.000428609 -0.000149477)
(0.00703997 -0.00230756 -0.00211129)
(0.00471065 -0.0048059 -0.00277917)
(0.00193004 -0.0067028 -0.00224503)
(-0.00189216 -0.00746659 -0.000343238)
(-0.00666687 -0.00599678 0.00199971)
(-0.0113775 -0.00228855 0.0037775)
(-0.0153116 0.00181101 0.00553124)
(-0.017753 0.00352367 0.00729059)
(-0.0180053 0.000964966 0.00928677)
(-0.0140415 -0.00785436 0.0114356)
(-0.00574132 -0.0220067 0.0112386)
(0.0057211 -0.0147499 0.00752489)
(0.0125585 -0.00739509 0.0138084)
(0.0164232 -0.00183886 0.0174752)
(0.0184453 0.00266278 0.0184452)
(0.0188962 0.00559715 0.0173503)
(0.018297 0.00686287 0.0150898)
(0.017146 0.00672805 0.0122188)
(0.0158345 0.00560047 0.00911888)
(0.014442 0.00367005 0.00621996)
(0.01258 0.00104564 0.00382488)
(0.00986778 -0.00165794 0.00238406)
(0.00634538 -0.00352321 0.002339)
(0.0017968 -0.00403883 0.00353391)
(-0.00435818 -0.00254279 0.00575255)
(-0.00931681 0.000576257 0.00810068)
(-0.0125739 0.0032339 0.0100591)
(-0.014282 0.00327445 0.0120356)
(-0.013294 -0.00206938 0.0141239)
(-0.0105174 -0.0137959 0.0139349)
(-0.00328654 -0.0300305 0.0100768)
(0.00358094 -0.022899 -0.00143108)
(0.0111792 -0.0125069 0.0069372)
(0.0138824 -0.00544032 0.0124409)
(0.0154865 0.00042781 0.0154865)
(0.0159293 0.00464921 0.0162411)
(0.0158015 0.00695221 0.0153679)
(0.0154451 0.00755062 0.0136034)
(0.0149978 0.00693968 0.0115574)
(0.0143916 0.00560146 0.0097418)
(0.0133292 0.00394472 0.00852621)
(0.0115189 0.00232296 0.00811241)
(0.00884112 0.00119718 0.00845042)
(0.00536749 0.00121906 0.009596)
(0.00121397 0.00252965 0.0114394)
(-0.0031404 0.00433153 0.013394)
(-0.00630489 0.00527309 0.0152183)
(-0.00795933 0.00360984 0.0171113)
(-0.00737078 -0.00382639 0.0177708)
(-0.00725486 -0.0171632 0.0145151)
(-0.00133663 -0.034039 0.00712664)
(0.00079211 -0.0286355 -0.00741357)
(0.00863586 -0.0158209 0.00170766)
(0.00987671 -0.00746826 0.0077247)
(0.011044 -0.00109067 0.011044)
(0.0114059 0.00339613 0.0122258)
(0.0116106 0.00590417 0.0118675)
(0.0118606 0.0067355 0.0107814)
(0.0120338 0.00649495 0.00961484)
(0.0118905 0.00579219 0.00887216)
(0.0111313 0.0050735 0.00885914)
(0.00960792 0.00427715 0.00956634)
(0.00752721 0.00353319 0.0107222)
(0.00516387 0.00354068 0.0120925)
(0.0026904 0.00438901 0.0135592)
(0.000379342 0.00551575 0.0152782)
(-0.0015305 0.00565725 0.0172794)
(-0.00291744 0.00294391 0.0188869)
(-0.00278477 -0.0051487 0.0175892)
(-0.00465778 -0.0186022 0.0120423)
(0.000575773 -0.0350296 0.00241749)
(-0.0026979 -0.030058 -0.0126541)
(0.00360374 -0.0171573 -0.00413987)
(0.00271715 -0.00809064 0.00121591)
(0.003828 -0.00119302 0.003828)
(0.00474116 0.00349475 0.00473735)
(0.0055091 0.00583608 0.0042003)
(0.00638995 0.00679884 0.00333804)
(0.00722261 0.0071537 0.0027787)
(0.00775409 0.00733576 0.00292387)
(0.00745669 0.00763721 0.00397029)
(0.00622906 0.00751307 0.00541585)
(0.00491817 0.00683028 0.00654847)
(0.00412902 0.00660361 0.00770598)
(0.00347684 0.00681683 0.00918321)
(0.00290642 0.00705417 0.0110828)
(0.00232098 0.00638203 0.0130617)
(0.00170785 0.00283634 0.0141146)
(0.00219195 -0.00556874 0.0118181)
(-0.00104368 -0.0182445 0.00590408)
(0.00324439 -0.0327188 -0.00378887)
(-0.00768491 -0.0249681 -0.0183612)
(-0.00619103 -0.0158092 -0.0129226)
(-0.0093603 -0.00948554 -0.00988044)
(-0.00897294 -0.0054412 -0.00897294)
(-0.00791842 -0.00277876 -0.00944696)
(-0.00609419 -0.0013265 -0.0104621)
(-0.00433107 -0.000699786 -0.0122119)
(-0.00236578 -0.000299987 -0.0135528)
(-0.000166455 0.000487972 -0.0137319)
(0.00185957 0.00253958 -0.0119452)
(0.00365945 0.0025221 -0.00982042)
(0.00498239 0.000236209 -0.00890324)
(0.00656745 -0.000784079 -0.00758143)
(0.00779033 -0.00097293 -0.0055255)
(0.00880643 -0.000878074 -0.00284365)
(0.00945632 -0.00148539 -0.000230862)
(0.0104068 -0.00394789 6.78242e-05)
(0.0105585 -0.00835245 -0.00115361)
(0.00696221 -0.0157804 -0.00496681)
(0.00794981 -0.0258967 -0.011046)
(-0.016466 -0.0138759 -0.0261045)
(-0.0243741 -0.00637056 -0.027378)
(-0.0325927 -0.00225501 -0.0309586)
(-0.0355585 0.000161379 -0.0355585)
(-0.0359628 0.00194445 -0.0405248)
(-0.0342774 0.00351759 -0.0456341)
(-0.0308005 0.00518906 -0.0506684)
(-0.0253544 0.00716131 -0.055234)
(-0.0172871 0.00964362 -0.0582165)
(-0.00819279 0.0128319 -0.0577235)
(0.00850922 0.0134532 -0.0557761)
(0.0178323 0.0103796 -0.0553556)
(0.0258128 0.00793211 -0.0520982)
(0.0310452 0.00590461 -0.0474856)
(0.0342811 0.00419063 -0.0422878)
(0.0360719 0.00260738 -0.0370389)
(0.0360144 0.000765425 -0.0318528)
(0.0333086 -0.00171317 -0.0269048)
(0.0250932 -0.00611021 -0.0227745)
(0.0168521 -0.0141919 -0.0204964)
(-0.000162457 -0.00255441 -0.0125149)
(-0.000423459 -0.00132525 -0.0105013)
(-0.000791486 6.14235e-05 -0.00792985)
(-0.00126564 0.00123537 -0.00496487)
(-0.00209824 0.00189789 -0.00209823)
(-0.00320983 0.00208032 0.000451457)
(-0.0045956 0.00184294 0.00257317)
(-0.00600789 0.00122802 0.0041388)
(-0.00704669 0.000223378 0.00504764)
(-0.0072493 -0.00132521 0.00523584)
(-0.00625538 -0.00291182 0.00497324)
(-0.00393699 -0.0041922 0.00495165)
(-0.000344035 -0.00490601 0.0057396)
(0.00365056 -0.00472663 0.00669143)
(0.0071037 -0.0042557 0.00729506)
(0.00991015 -0.00419864 0.00779211)
(0.0118787 -0.00389966 0.0085137)
(0.0122098 -0.00275175 0.00900593)
(0.00994971 0.000486757 0.0101897)
(0.0056976 0.0067976 0.0136021)
(-0.00112143 0.00176263 -0.00458196)
(-0.00227611 0.00126228 -0.00267701)
(-0.00323272 0.0010824 -0.00276528)