/*--------------------------------*- C++ -*----------------------------------*\
| =========                 |                                                 |
| \\      /  F ield         | OpenFOAM: The Open Source CFD Toolbox           |
|  \\    /   O peration     | Version:  2412                                  |
|   \\  /    A nd           | Website:  www.openfoam.com                      |
|    \\/     M anipulation  |                                                 |
\*---------------------------------------------------------------------------*/
FoamFile
{
    version     2.0;
    format      ascii;
    arch        "LSB;label=32;scalar=64";
    class       volVectorField;
    location    "1.9";
    object      flux;
}
// * * * * * * * * * * * * * * * * * * * * * * * * * * * * * * * * * * * * * //

dimensions      [0 1 -1 1 0 0 0];

internalField   nonuniform List<vector> 
5712
(
(-0.32252 0.522492 0.29771)
(-0.394234 0.287096 0.904145)
(-0.736584 0.909534 0.225956)
(-1.15132 0.59583 0.988757)
(-1.11316 0.876087 0.123785)
(-2.17208 0.745351 1.04666)
(-0.768862 1.29009 0.210749)
(-2.31408 1.59981 1.65608)
(-0.793105 1.96453 0.344141)
(-1.85549 2.4894 2.07921)
(-0.975428 1.04127 0.352958)
(-1.60445 0.915272 1.47622)
(-0.746086 0.640988 0.376883)
(-0.987255 0.441879 1.31251)
(-0.401385 0.423244 0.371558)
(-0.407618 0.240994 1.12804)
(-0.52579 0.86715 0.174551)
(-0.596138 0.779151 0.0955166)
(-0.719881 0.784583 0.526514)
(-0.6529 0.775034 0.249712)
(-0.499602 0.995249 0.16279)
(-0.75191 0.952362 0.0750534)
(-0.744989 1.15115 0.566845)
(-0.745499 0.988313 0.228529)
(-0.211722 0.307002 0.228064)
(-0.153982 0.214458 0.168685)
(-0.287001 0.160006 0.673018)
(-0.205733 0.110629 0.493335)
(-0.480606 0.446513 0.152911)
(-0.313086 0.287512 0.120826)
(-0.888154 0.247706 0.676876)
(-0.620422 0.16053 0.513805)
(-0.739107 0.884409 0.343859)
(-0.750157 0.935042 0.125278)
(-0.751886 0.791519 0.261672)
(-0.762734 0.64205 0.0956497)
(-0.174619 0.638532 0.119755)
(-0.155096 0.500176 0.319809)
(-1.71825 0.541992 1.62136)
(-2.12453 0.517776 0.495168)
(-0.914547 0.723385 0.487491)
(-1.22012 0.711318 0.224678)
(-2.21279 1.47624 1.96595)
(-2.72327 1.6263 0.615797)
(-1.02469 1.05539 0.453758)
(-1.26102 1.11674 0.21246)
(-1.28819 0.764828 1.07536)
(-1.68382 0.602041 0.358341)
(-1.02731 0.779113 0.548565)
(-1.4221 0.546719 0.24977)
(-0.59121 0.331036 0.876948)
(-0.747959 0.286005 0.278639)
(-0.121474 0.24831 0.208923)
(-0.0385298 0.372499 0.113128)
(-0.157696 0.123613 0.361426)
(-0.054715 0.169052 0.146621)
(-0.271909 0.329048 0.186904)
(-0.111921 0.496396 0.117511)
(-0.470286 0.207071 0.37923)
(-0.172784 0.284668 0.143629)
(-0.3098 0.335116 0.249298)
(-0.102877 0.594086 0.158226)
(-0.311553 0.255972 0.238839)
(-0.0883062 0.42222 0.100759)
(-0.611813 0.0797845 0.421745)
(-0.178335 0.283169 0.1527)
(-0.801564 0.0137775 0.165842)
(-0.251528 0.202478 0.0614147)
(-1.0303 0.738988 0.518482)
(-0.589725 0.890027 0.392627)
(-0.87084 0.777811 0.313197)
(-0.601516 0.882391 0.282312)
(-1.05306 0.932468 0.573653)
(-0.678539 0.94827 0.503607)
(-0.835351 0.95297 0.310689)
(-0.674768 0.927148 0.331713)
(-0.676589 0.694871 0.292405)
(-0.488025 0.840356 0.253032)
(-0.743165 0.693009 0.38499)
(-0.470561 0.827877 0.331605)
(-0.845986 0.780358 0.232156)
(-0.623284 0.876448 0.200591)
(-0.874424 0.766233 0.133991)
(-0.639523 0.870998 0.115556)
(-0.818856 0.961497 0.229636)
(-0.689814 0.91486 0.229249)
(-0.85099 0.962468 0.130417)
(-0.703624 0.907901 0.130756)
(-0.698132 0.653004 0.223524)
(-0.516814 0.84201 0.176797)
(-0.752561 0.595739 0.129864)
(-0.536063 0.838358 0.092391)
(-0.745896 0.720709 0.252216)
(-0.306772 0.774326 0.142233)
(-0.42627 0.907584 0.254854)
(-0.487176 1.27557 0.279551)
(-0.802787 0.755009 0.338235)
(-0.354233 0.89538 0.257145)
(-0.423302 0.903036 0.366868)
(-0.510443 1.39649 0.48018)
(-0.747852 0.681772 0.183004)
(-0.28601 0.68525 0.0786389)
(-0.446198 0.902335 0.162977)
(-0.47983 1.20971 0.16734)
(-0.773192 0.65521 0.103088)
(-0.287782 0.628955 0.0362268)
(-0.469074 0.900811 0.0745692)
(-0.483923 1.17745 0.0642246)
(-0.117497 0.185626 0.242719)
(-0.132303 0.235404 0.487748)
(-0.0413849 0.506577 0.176018)
(-0.082502 0.829758 0.551203)
(-0.33865 0.222232 0.262578)
(-0.397815 0.249695 0.493289)
(-0.139627 0.625414 0.209624)
(-0.266715 0.929117 0.585792)
(-0.550605 0.263977 0.343936)
(-0.653919 0.275267 0.488109)
(-0.249744 0.763263 0.289715)
(-0.448533 1.04431 0.5945)
(-0.708543 1.01073 0.373817)
(-0.372684 1.11692 0.44133)
(-0.721939 0.854931 0.294732)
(-0.870298 0.784952 0.29731)
(-0.439687 1.0755 0.359275)
(-0.271576 1.13753 0.291226)
(-0.434882 0.986508 0.327156)
(-0.503874 0.854734 0.454669)
(-0.884242 0.724131 0.533421)
(-0.567981 1.22006 0.778947)
(-0.40842 1.04239 0.394611)
(-0.537122 0.962729 0.324786)
(-0.597229 0.810139 0.313715)
(-0.580489 0.836553 0.397428)
(-0.725285 1.58093 0.62751)
(-0.129764 0.0663483 0.608709)
(-0.132889 0.0874704 0.590551)
(-0.0805839 0.179632 0.711413)
(-0.0859222 0.37211 0.718699)
(-0.384614 0.0939084 0.593077)
(-0.365807 0.1308 0.594851)
(-0.24885 0.237474 0.712589)
(-0.252329 0.432707 0.711359)
(-0.576394 0.141084 0.545131)
(-0.525925 0.136266 0.566881)
(-0.368345 0.317431 0.681721)
(-0.369422 0.512742 0.690595)
(-0.390444 1.1083 0.366555)
(-0.435977 1.10386 0.389828)
(-0.616943 0.921224 0.364778)
(-0.654593 0.88028 0.386497)
(-0.692882 0.779103 0.444727)
(-0.651651 0.69149 0.448562)
(-0.825567 0.569632 0.52307)
(-0.756709 0.503595 0.512413)
(-0.573956 0.443795 0.66297)
(-0.571873 0.661985 0.673692)
(-0.52728 0.980325 0.333937)
(-0.57068 0.884427 0.368298)
(-0.680733 0.906697 0.381781)
(-0.619863 0.849812 0.412144)
(-0.642599 0.76685 0.429853)
(-0.535616 0.707796 0.469567)
(-0.5771 0.662672 0.498195)
(-0.460187 0.584827 0.551887)
(-0.644562 0.527194 0.657158)
(-0.511597 0.722769 0.720027)
(-0.573537 0.932689 0.39138)
(-0.305112 0.992527 0.267377)
(-0.450617 0.965647 0.31638)
(-0.436857 1.05963 0.317518)
(-0.632114 0.939111 0.434874)
(-0.733317 0.86696 0.492095)
(-0.645491 0.953107 0.353433)
(-0.839502 0.913112 0.46484)
(-0.38051 0.845079 0.292644)
(-0.373578 0.854053 0.296091)
(-0.520284 0.833169 0.372883)
(-0.232629 0.827499 0.268245)
(-0.435735 0.982105 0.13482)
(-0.68555 1.08529 0.229019)
(-0.450899 0.974585 0.0549041)
(-0.732463 1.07446 0.0852068)
(-0.655189 0.965434 0.218815)
(-1.02977 0.951154 0.344084)
(-0.67739 0.954103 0.0853099)
(-1.05434 0.943792 0.128529)
(-0.369532 0.836949 0.1146)
(-0.603213 0.847273 0.202381)
(-0.382662 0.847256 0.0428931)
(-0.654324 0.853355 0.0738529)
(-0.455711 0.72696 0.280015)
(-0.337634 0.718051 0.238667)
(-0.585706 0.500084 0.287299)
(-0.262428 0.597109 0.180783)
(-0.493039 0.733586 0.394917)
(-0.18068 0.707356 0.282752)
(-0.554085 0.515457 0.450692)
(-0.130624 0.61922 0.302797)
(-0.473698 0.7065 0.131979)
(-0.485279 0.707372 0.152097)
(-0.613513 0.493575 0.163769)
(-0.315381 0.596922 0.0938496)
(-0.427577 0.712517 0.100685)
(-0.56009 0.699259 0.109068)
(-0.563721 0.488551 0.1119)
(-0.401666 0.582193 0.0849004)
(-0.124028 0.0749806 0.514655)
(-0.115114 0.0608391 0.339646)
(-0.0987899 0.0447271 0.111536)
(-0.0802035 0.0413986 0.557378)
(-0.0782952 0.0354069 0.351637)
(-0.0682338 0.0349135 0.12174)
(-0.335061 0.112587 0.50605)
(-0.28763 0.0791813 0.33186)
(-0.249838 0.0615468 0.113373)
(-0.219526 0.096613 0.555621)
(-0.182691 0.0860204 0.350366)
(-0.153424 0.0741709 0.119019)
(-0.437566 0.119033 0.482189)
(-0.368747 0.114178 0.311553)
(-0.335627 0.12083 0.104593)
(-0.316299 0.174597 0.544719)
(-0.252906 0.151062 0.344467)
(-0.227468 0.137715 0.118625)
(-0.390111 1.04856 0.280957)
(-0.313989 0.928294 0.161865)
(-0.296652 0.845598 0.0429871)
(-0.60936 0.875512 0.338178)
(-0.449925 0.816874 0.231238)
(-0.363369 0.769299 0.0753465)
(-0.551626 0.599306 0.391827)
(-0.400863 0.570848 0.275825)
(-0.30864 0.555568 0.093189)
(-0.615414 0.427157 0.435729)
(-0.478488 0.402591 0.284774)
(-0.400267 0.39137 0.0936362)
(-0.480966 0.284132 0.525977)
(-0.324617 0.208122 0.332284)
(-0.239879 0.168859 0.117548)
(-0.7297 0.829124 0.308051)
(-0.589352 0.76006 0.170265)
(-0.520307 0.711126 0.0562163)
(-0.537336 0.829726 0.305873)
(-0.421909 0.768607 0.19902)
(-0.346842 0.732946 0.069595)
(-0.47672 0.619343 0.347058)
(-0.354862 0.547407 0.229713)
(-0.276367 0.50829 0.0791056)
(-0.428219 0.447565 0.412666)
(-0.316723 0.392223 0.265751)
(-0.248524 0.36701 0.0911818)
(-0.465778 0.298607 0.499446)
(-0.276767 0.218707 0.293043)
(-0.170159 0.17765 0.101845)
(-0.46174 1.14817 -0.0200315)
(-0.752402 1.18821 0.0396404)
(-0.392058 1.22315 0.0177182)
(-0.561393 1.12181 0.106026)
(-0.376494 1.12268 0.0726549)
(-0.774869 1.1203 0.0730656)
(-0.315546 1.34081 0.187019)
(-0.635804 1.15292 0.163327)
(-0.00703544 0.731755 0.0242193)
(-0.0689519 0.803393 0.0387525)
(0.0102843 0.729831 0.0256604)
(-0.0405565 0.718418 0.0406477)
(-0.142344 0.971159 0.0136581)
(-0.268876 0.852417 0.0375643)
(-0.0894414 0.950822 0.0251039)
(-0.162947 0.750136 0.0550538)
(-0.0737975 1.04891 0.0752865)
(-0.156873 1.0931 0.0453325)
(-0.441467 0.89662 0.152559)
(-0.657241 1.00477 0.108305)
(-0.349737 1.1731 0.0695036)
(-0.261253 1.03237 0.11412)
(-0.470317 1.1676 0.117583)
(-0.411272 1.21271 0.0316321)
(-0.632862 1.238 0.238962)
(-0.677771 1.3275 0.0746892)
(0.0228966 1.00485 -0.169668)
(0.223114 1.03082 -0.0273668)
(-0.337114 0.87209 0.0248862)
(-0.236251 0.859522 0.0258912)
(-0.264351 0.996752 -0.00141673)
(-0.152228 0.962763 0.0042254)
(-0.0633258 0.671043 0.410345)
(-0.0404976 0.384723 0.177023)
(-0.0511547 0.628394 0.108685)
(-0.0314311 0.425255 0.0634465)
(-0.155577 0.651414 0.404083)
(-0.0494891 0.376889 0.179339)
(-0.077489 0.60534 0.118524)
(-0.00938372 0.412088 0.075014)
(-0.399236 0.595215 0.389835)
(-0.11889 0.348753 0.195647)
(-0.301066 0.562052 0.158846)
(-0.0929681 0.391533 0.110898)
(-0.342905 0.552362 0.122172)
(-0.10323 0.406587 0.0785188)
(-0.388545 0.530569 0.0669826)
(-0.12801 0.406022 0.060068)
(-0.493684 0.912557 0.52707)
(-0.4881 0.718888 0.460239)
(-0.38447 0.894815 0.230342)
(-0.484057 0.724067 0.294495)
(-0.75138 1.02075 0.596505)
(-0.676677 0.912277 0.55679)
(-0.615374 1.02439 0.290166)
(-0.643536 0.897696 0.347757)
(-0.284102 0.825155 0.207329)
(-0.372287 0.569789 0.250157)
(-0.33133 0.856715 0.443607)
(-0.343605 0.550606 0.364771)
(-0.36034 0.912212 0.145959)
(-0.481395 0.726677 0.191654)
(-0.379215 0.93679 0.0831412)
(-0.486153 0.72531 0.110724)
(-0.587804 1.04912 0.193461)
(-0.63127 0.892315 0.226098)
(-0.609468 1.06714 0.110754)
(-0.636074 0.888539 0.128703)
(-0.2514 0.803169 0.116984)
(-0.377805 0.577054 0.164578)
(-0.243656 0.797455 0.0646551)
(-0.382777 0.577125 0.09959)
(-0.0302408 0.491387 0.183273)
(-0.0561244 0.341041 0.128119)
(-0.297819 0.433103 0.207372)
(-0.164603 0.279113 0.136817)
(-0.0291248 0.453568 0.31632)
(-0.0467133 0.305306 0.184765)
(-0.260542 0.405132 0.279143)
(-0.138905 0.25585 0.179539)
(-0.0303608 0.50274 0.10819)
(-0.0506605 0.361432 0.0874431)
(-0.314739 0.445456 0.14368)
(-0.181525 0.292284 0.0938298)
(-0.0428451 0.50581 0.059801)
(-0.0555959 0.374837 0.0546972)
(-0.318155 0.448698 0.0906937)
(-0.191668 0.300119 0.0579948)
(0.00754123 0.108975 0.476061)
(0.013356 0.0592684 0.311352)
(-0.0189861 0.204954 0.229282)
(-0.0127428 0.117817 0.234672)
(0.0352724 0.112534 0.471725)
(0.0564309 0.0680861 0.310468)
(-0.0304268 0.207706 0.226259)
(-0.0194875 0.129444 0.22989)
(-0.0450445 0.122175 0.476359)
(-0.00291567 0.0903831 0.298565)
(-0.100882 0.205608 0.229765)
(-0.0872661 0.14811 0.213529)
(0.306564 0.543062 0.531098)
(0.155521 0.90942 0.518277)
(0.18085 0.352864 0.490896)
(0.121444 0.319791 0.373806)
(0.000144211 0.230727 0.21098)
(0.283552 0.93024 0.315184)
(0.414303 0.597737 0.374996)
(0.196684 0.33558 0.391315)
(0.19978 0.298353 0.362771)
(0.00105496 0.180484 0.248387)
(-0.378287 0.897407 0.44864)
(-0.275409 0.648763 0.39744)
(-0.224432 0.475156 0.325708)
(-0.229834 0.348205 0.259925)
(-0.133031 0.218762 0.165724)
(0.0215137 0.0420342 0.260872)
(0.017445 0.0401785 0.254232)
(-0.00712413 0.0822981 0.25865)
(-0.0110382 0.0763262 0.308628)
(0.0605052 0.052061 0.260348)
(0.06639 0.0407003 0.246949)
(-0.0197209 0.0988047 0.252971)
(-0.0269699 0.0895695 0.302427)
(0.0522879 0.0731012 0.249453)
(0.0752867 0.0635642 0.234968)
(-0.055306 0.118893 0.240833)
(-0.0661824 0.10665 0.290092)
(0.123067 0.942686 0.353843)
(0.0622988 0.896749 0.334764)
(0.320398 0.599266 0.32452)
(0.225152 0.543699 0.27832)
(0.171556 0.375683 0.238511)
(0.122207 0.357272 0.237472)
(0.156516 0.287771 0.226214)
(0.129322 0.272353 0.233762)
(-0.00981218 0.16653 0.210448)
(-0.0387347 0.150399 0.274136)
(-0.199844 0.821931 0.260426)
(-0.138997 0.702581 0.295073)
(0.0185823 0.597728 0.214556)
(0.086226 0.510803 0.24346)
(0.0273064 0.445818 0.187331)
(0.0770647 0.401918 0.213332)
(-0.0140192 0.316181 0.179826)
(0.0286448 0.299694 0.214333)
(-0.0306836 0.202516 0.159092)
(-0.045052 0.22218 0.251734)
(-0.162731 0.565667 0.190296)
(-0.179881 0.444071 0.152632)
(-0.387192 0.571334 0.130402)
(-0.245407 0.418659 0.0708177)
(-0.347089 0.724451 0.295516)
(-0.336923 0.533946 0.224453)
(-0.520885 0.735693 0.238711)
(-0.406328 0.525269 0.151742)
(-0.294459 0.464187 0.0972668)
(-0.180262 0.369952 0.0559925)
(-0.0991084 0.459349 0.143977)
(-0.126965 0.394755 0.129495)
(-0.458263 0.590338 0.168786)
(-0.193711 0.399188 0.0740453)
(-0.491563 0.595356 0.0781308)
(-0.178853 0.403689 0.0431173)
(-0.598187 0.771866 0.22198)
(-0.391779 0.539376 0.127632)
(-0.6369 0.769966 0.0907232)
(-0.376867 0.543541 0.0625805)
(-0.355008 0.467287 0.135215)
(-0.131083 0.347422 0.0575868)
(-0.385847 0.474938 0.0685736)
(-0.113218 0.361749 0.034312)
(-0.219459 0.332135 0.0796319)
(-0.177666 0.299877 0.0945059)
(-0.163877 0.222955 0.0967873)
(-0.289384 0.291145 0.162862)
(-0.106957 0.336722 0.120425)
(-0.1429 0.314244 0.145999)
(-0.106733 0.226823 0.115925)
(-0.242683 0.287111 0.2109)
(-0.241929 0.330753 0.0971441)
(-0.165448 0.291375 0.069555)
(-0.199426 0.216982 0.071503)
(-0.332379 0.3037 0.11731)
(-0.293101 0.34778 0.0432509)
(-0.156007 0.294091 0.016709)
(-0.236827 0.225585 0.0143765)
(-0.328667 0.300381 0.0286913)
(0.0223813 0.0896347 0.199628)
(0.0286348 0.0713063 0.091697)
(0.0332037 0.0556872 0.0264684)
(-0.00701091 0.330857 0.212797)
(0.00549928 0.163057 0.0569375)
(0.00746796 0.12494 0.0151068)
(0.0802827 0.0830233 0.195399)
(0.0951847 0.0769577 0.0961042)
(0.101861 0.0651774 0.0300802)
(-0.00975325 0.347756 0.211838)
(0.0227565 0.190408 0.058807)
(0.0273921 0.153247 0.0163801)
(0.0974739 0.102861 0.179886)
(0.13587 0.108098 0.0894047)
(0.152201 0.107821 0.0232572)
(-0.0348918 0.367607 0.202324)
(0.0398523 0.235312 0.0547785)
(0.0552556 0.205468 0.0125006)
(0.0321687 0.798014 0.2272)
(0.0542282 0.715152 0.125125)
(0.0486255 0.658353 0.0333721)
(0.171086 0.50476 0.186511)
(0.182724 0.468058 0.100965)
(0.169011 0.444826 0.0283761)
(0.133817 0.361811 0.177875)
(0.155612 0.342513 0.0902264)
(0.15014 0.332355 0.0259762)
(0.142928 0.313298 0.170663)
(0.176931 0.292258 0.0816358)
(0.182183 0.282905 0.0192889)
(-0.0189425 0.424604 0.192752)
(0.0579214 0.307901 0.0487671)
(0.0549582 0.274382 0.00847357)
(-0.163502 0.59195 0.251231)
(-0.0811009 0.525009 0.132938)
(-0.0471084 0.481421 0.0415294)
(0.0500403 0.444928 0.212332)
(0.0968011 0.400276 0.116101)
(0.111847 0.374674 0.0383338)
(0.0607996 0.386683 0.187492)
(0.110534 0.343359 0.0989577)
(0.123049 0.313852 0.0325847)
(0.0373403 0.365019 0.175654)
(0.0975124 0.321356 0.0732692)
(0.109999 0.29818 0.020155)
(-0.0668228 0.548675 0.201923)
(0.0391264 0.383619 0.0509999)
(0.0462 0.347838 0.0163779)
(-0.00293113 0.209349 0.0673981)
(0.000231169 0.125129 0.0256502)
(0.0013302 0.0880968 0.0125866)
(0.00271752 0.0760538 0.00121105)
(0.00409733 0.233719 0.0273558)
(0.00390533 0.134428 0.0109625)
(0.00456868 0.0914786 0.00579293)
(0.00440224 0.0780793 0.00134299)
(-0.0079087 0.203438 0.0695561)
(0.000190625 0.123351 0.027423)
(0.00365242 0.0878966 0.0148914)
(0.00723138 0.0769352 0.0034276)
(0.00936722 0.232122 0.0330557)
(0.00895107 0.134821 0.0146449)
(0.00985814 0.0925574 0.0095143)
(0.00990948 0.0788878 0.0044185)
(-0.0157175 0.192879 0.07955)
(-0.00206615 0.120898 0.0326798)
(0.0037177 0.0890538 0.0193462)
(0.0111504 0.076303 0.0064107)
(0.00157465 0.225797 0.0566273)
(0.00732953 0.13611 0.0286692)
(0.00831106 0.0953772 0.0159433)
(0.0110046 0.0782516 0.00723895)
(0.00178711 0.236526 0.0416657)
(0.00477939 0.141431 0.0254123)
(0.00311202 0.0956465 0.0115342)
(0.00347693 0.0819622 0.00357793)
(-0.00620376 0.242987 0.0431881)
(-0.000490044 0.147153 0.0287005)
(0.0016042 0.0991741 0.0159681)
(0.00387311 0.0846955 0.00855834)
(-0.0400818 0.204999 0.0661154)
(-0.0121335 0.127919 0.0310765)
(-0.00533517 0.0924947 0.0161109)
(0.00581901 0.0775953 0.00209665)
(-0.0595971 0.168269 0.0626725)
(-0.0190946 0.113578 0.0285977)
(-0.0126676 0.0868416 0.0170519)
(0.00811022 0.0727929 -0.000597433)
(-0.0333037 0.17888 0.0831877)
(-0.00913614 0.116425 0.0348113)
(-0.00241535 0.0885815 0.0209481)
(0.0105952 0.071757 0.00517916)
(-0.0484359 0.151991 0.074304)
(-0.0152473 0.10592 0.030665)
(-0.0109931 0.0832993 0.0195106)
(0.00827893 0.0694018 -0.00133881)
(-0.037054 0.220547 0.050098)
(-0.0116941 0.136383 0.0269186)
(-0.00502987 0.0955668 0.0136721)
(0.00486119 0.0810671 0.00203209)
(-0.0657873 0.178486 0.0486923)
(-0.0211752 0.119634 0.0250582)
(-0.0134931 0.089464 0.0152226)
(0.0101626 0.0749088 0.00269145)
(-0.0394121 0.229478 0.0371708)
(-0.0136581 0.142493 0.0232063)
(-0.00482056 0.0985678 0.0141204)
(0.00676409 0.0828357 0.00791618)
(-0.0691065 0.184435 0.0339322)
(-0.0224244 0.124193 0.0207544)
(-0.0141492 0.0919768 0.0139066)
(0.0111731 0.0759152 0.00769263)
(-0.00284893 0.160236 0.0858555)
(-0.000187356 0.109545 0.0312815)
(0.00042735 0.082958 0.0157007)
(0.00238241 0.0719214 -0.00147736)
(-0.00240151 0.109055 0.0890218)
(-7.71916e-05 0.0911709 0.0304228)
(-0.000127658 0.0762914 0.0178122)
(0.00251883 0.0662937 -0.00707246)
(-0.00774445 0.155588 0.0855009)
(-0.000711884 0.107992 0.0316959)
(0.00125849 0.0829395 0.0169882)
(0.00636902 0.0719491 -0.000402342)
(-0.00402462 0.108439 0.0854419)
(0.00068651 0.090985 0.0293596)
(0.000233842 0.0762508 0.0177526)
(0.00689105 0.066627 -0.00655739)
(-0.0272028 0.148474 0.08594)
(-0.00705879 0.105682 0.0325316)
(-0.00206636 0.0832692 0.0196225)
(0.00960319 0.0716673 0.00143166)
(-0.0208738 0.111237 0.0765599)
(-0.00443326 0.0922549 0.0265689)
(-0.00211179 0.0765492 0.0175873)
(0.0110079 0.0677852 -0.00446603)
(-0.012931 0.141158 0.0798643)
(-0.00127796 0.102125 0.0313109)
(0.00128124 0.0819479 0.0213838)
(0.0111205 0.0713626 0.00606466)
(-0.00864544 0.112326 0.0844431)
(-0.000239111 0.0926538 0.0300481)
(-0.000518989 0.0780044 0.0224834)
(0.010833 0.0680267 -0.00403424)
(-0.0407659 0.130825 0.0619172)
(-0.011798 0.0984188 0.0242794)
(-0.00833299 0.0788545 0.016847)
(0.0120672 0.0667926 0.00230129)
(0.00141965 0.054095 0.0730347)
(0.00115564 0.0739348 0.022293)
(0.000741441 0.0615991 0.0134329)
(0.00206577 0.0192402 -0.00684086)
(0.00494963 -0.00908805 0.0285778)
(0.00218906 0.0645518 0.00791435)
(0.0012528 0.0544768 0.00412483)
(0.00130021 0.0183274 -0.00149639)
(0.00102833 0.0605179 0.0722383)
(0.0022416 0.0763699 0.0226401)
(0.00126556 0.0627038 0.0137712)
(0.00538476 0.0202866 -0.00605356)
(0.0121258 0.000490832 0.0291859)
(0.0056648 0.067381 0.00834864)
(0.0030682 0.0553634 0.00453348)
(0.00341573 0.0186486 -0.00102985)
(-0.00302862 0.0708925 0.0680701)
(0.00163352 0.0800587 0.0221004)
(0.00114935 0.0636999 0.0142509)
(0.0084139 0.02018 -0.00457514)
(0.0165008 0.0153928 0.0282355)
(0.00816204 0.0719581 0.00845571)
(0.0045883 0.0564128 0.00502037)
(0.0052135 0.0187457 -0.000367451)
(-0.00385071 0.0855551 0.0574635)
(0.00214747 0.0847024 0.0189638)
(0.00144631 0.0653637 0.0136577)
(0.0111258 0.0214918 -0.00290731)
(0.0173453 0.0329818 0.0249406)
(0.0096076 0.0776558 0.00749893)
(0.00514976 0.0582205 0.0053626)
(0.00610301 0.0194414 0.000484446)
(-0.0120451 0.10637 0.0504595)
(0.000425503 0.0910096 0.017713)
(-0.00158825 0.0683126 0.0131304)
(0.010566 0.0240262 -0.000650656)
(0.00980699 0.0513759 0.0225933)
(0.00859052 0.083164 0.00760432)
(0.00373865 0.0600038 0.00592196)
(0.00554487 0.0200113 0.00165914)
(-0.0413812 0.12076 0.0393727)
(-0.00523895 0.0985726 0.0169508)
(-0.00617696 0.0701482 0.0102939)
(0.00959047 0.0225959 0.000909244)
(-0.0120575 0.0492444 0.0207602)
(0.00269885 0.0896112 0.0104191)
(0.000650378 0.0638001 0.00629976)
(0.00381644 0.0208446 0.00321762)
(-0.0267366 0.118539 0.0419823)
(-0.00150547 0.0952142 0.0155194)
(-0.00435427 0.0686113 0.0108224)
(0.00987066 0.0226817 0.000123251)
(-0.00346874 0.0513382 0.0206101)
(0.0057229 0.0871229 0.00846236)
(0.00206555 0.0617487 0.00598198)
(0.00470567 0.0203124 0.00255517)
(-0.0538861 0.120231 0.0349092)
(-0.0103215 0.101053 0.0180073)
(-0.00847686 0.0714627 0.0107142)
(0.010282 0.0213161 0.00264272)
(-0.0177938 0.0453005 0.0209059)
(-0.00046044 0.0918651 0.0121841)
(-0.000739385 0.0653124 0.00712726)
(0.00333772 0.0208653 0.00427491)
(-0.0627679 0.119707 0.0271908)
(-0.015722 0.104151 0.0172093)
(-0.0110508 0.0741315 0.011214)
(0.010079 0.0219157 0.00649702)
(-0.0231043 0.0511736 0.0192888)
(-0.00433771 0.0950265 0.0130141)
(-0.00244467 0.0674298 0.00840187)
(0.00274684 0.0214079 0.00604005)
(0.00106722 0.0677715 0.000657539)
(0.00050046 0.0500205 0.00039962)
(0.000256191 0.0338241 0.000237609)
(0.000144785 0.0194341 0.000145242)
(0.000100844 0.00632604 0.000104581)
(0.00148344 0.0680387 0.000350031)
(0.000762529 0.0501017 0.00020395)
(0.000407735 0.0338705 0.000120469)
(0.000235886 0.019458 7.40931e-05)
(0.000165726 0.00633334 5.38288e-05)
(0.00227169 0.0689872 0.00134132)
(0.00106378 0.0504405 0.000803701)
(0.000542498 0.0340139 0.000467551)
(0.000307506 0.0195187 0.000282988)
(0.000216031 0.00635019 0.000202656)
(0.00390387 0.0690859 0.00132078)
(0.00207635 0.0505934 0.000775703)
(0.0011287 0.0341132 0.000442169)
(0.000661294 0.0195702 0.000265211)
(0.000468068 0.00636591 0.000189346)
(0.00325196 0.0696986 0.00298202)
(0.00153806 0.0508895 0.00180481)
(0.000796684 0.0342246 0.0010429)
(0.000457255 0.0196131 0.000631767)
(0.000323622 0.00637713 0.000453355)
(0.00562771 0.0694093 0.0057089)
(0.00295756 0.0512854 0.00330833)
(0.00162184 0.0344805 0.00189344)
(0.000958738 0.0197446 0.00114085)
(0.000682056 0.00641735 0.000815934)
(0.001894 0.0718197 0.00582049)
(0.000968939 0.0522455 0.00347292)
(0.000533209 0.035005 0.00201674)
(0.000316987 0.0200037 0.00122379)
(0.000226079 0.00649531 0.000879134)
(0.00104491 0.0731024 0.00623715)
(0.000522319 0.0531414 0.00363314)
(0.000282122 0.0355299 0.00209101)
(0.000166838 0.0202682 0.00126516)
(0.000118563 0.00657532 0.000909219)
(0.00288632 0.071636 0.00387419)
(0.00128333 0.0518454 0.00239633)
(0.000668342 0.0347098 0.0014064)
(0.000387642 0.0198448 0.000856852)
(0.000273591 0.00644603 0.000613548)
(0.000640813 0.0733574 0.00303887)
(0.000188521 0.0520991 0.00188342)
(7.84073e-05 0.0347552 0.00110845)
(4.03973e-05 0.0198542 0.000678087)
(2.71176e-05 0.00644755 0.000486607)
(0.00431698 0.0702645 0.0040442)
(0.00212448 0.051377 0.00240348)
(0.0011443 0.0344479 0.00138551)
(0.0006729 0.0197138 0.000841547)
(0.000478186 0.00640607 0.000603595)
(0.00118084 0.0727891 0.00308972)
(0.000472194 0.0518079 0.00169798)
(0.000235838 0.0345957 0.000964705)
(0.000133848 0.0197747 0.000585111)
(9.31068e-05 0.00642324 0.000418098)
(0.000971624 0.07262 0.00428651)
(0.000270159 0.0523892 0.0027888)
(0.000105441 0.035026 0.00165834)
(5.30516e-05 0.0200048 0.0010152)
(3.54958e-05 0.00649474 0.000730473)
(0.00066163 0.0742285 0.00410691)
(0.00021087 0.0526288 0.00257404)
(9.39464e-05 0.0350613 0.00151746)
(5.12489e-05 0.0200091 0.000927628)
(3.54723e-05 0.00649479 0.000666946)
(0.00090647 0.073507 0.00556298)
(0.000242112 0.0533256 0.00331709)
(9.12317e-05 0.0355945 0.0019186)
(4.54844e-05 0.0202934 0.00116261)
(2.9532e-05 0.00658236 0.000835345)
(0.000453328 0.0752544 0.00533268)
(6.91963e-05 0.0535352 0.00319662)
(1.10196e-05 0.0356139 0.0018525)
(1.0316e-06 0.0202911 0.00112314)
(-1.10994e-06 0.00658082 0.000805928)
(0.000862619 0.0674831 0.000387104)
(0.000377008 0.049946 0.000322689)
(0.000184673 0.0337754 0.000198156)
(0.000101235 0.0194082 0.000121877)
(6.94726e-05 0.00631808 8.79884e-05)
(0.000819049 0.0682637 7.21862e-05)
(0.000357657 0.0499519 0.000121979)
(0.00017516 0.0337489 7.80798e-05)
(9.59141e-05 0.0193926 4.89513e-05)
(6.5779e-05 0.00631327 3.59547e-05)
(0.00199053 0.0682784 0.000788462)
(0.000856497 0.0502826 0.00054332)
(0.000420211 0.0339202 0.000323756)
(0.00023138 0.0194703 0.000197818)
(0.000159902 0.00633542 0.000142934)
(0.00190613 0.0690004 0.000154229)
(0.000812521 0.0502564 0.000171958)
(0.000399034 0.0338769 0.000107093)
(0.000219427 0.0194469 6.65235e-05)
(0.00015083 0.00632836 4.89687e-05)
(0.00259139 0.0694666 0.00118588)
(0.00104767 0.0507325 0.000820817)
(0.000509487 0.0341086 0.000486111)
(0.000279633 0.0195514 0.000298091)
(0.000193403 0.00635805 0.000216638)
(0.0023115 0.0705144 0.000662183)
(0.00100021 0.0506939 0.000427068)
(0.000501513 0.0340527 0.000242663)
(0.00027836 0.0195217 0.000144901)
(0.000193544 0.00634913 0.0001051)
(0.00313352 0.0712242 0.00340112)
(0.00150576 0.0512325 0.00199336)
(0.000802077 0.0343189 0.00113515)
(0.000467125 0.0196441 0.000690211)
(0.000331783 0.00638422 0.000498476)
(0.00156021 0.0720831 0.00170145)
(0.000734019 0.0511168 0.000991598)
(0.000381585 0.0342421 0.000558179)
(0.00021581 0.0196059 0.000337575)
(0.000152524 0.00637256 0.000244336)
(0.00181458 0.0722802 0.00422727)
(0.000909527 0.0515559 0.00218425)
(0.000494395 0.0344688 0.00120847)
(0.000292343 0.0197133 0.000724759)
(0.000208221 0.00640446 0.000517891)
(-0.0203546 0.361082 0.104105)
(-0.0248163 0.55994 0.180755)
(-0.0561501 0.379624 0.09836)
(-0.0706267 0.574168 0.175489)
(-0.0859929 0.410397 0.0918966)
(-0.113162 0.597382 0.16345)
(-0.104195 0.447146 0.0898357)
(-0.149774 0.639464 0.157315)
(-0.102952 0.486913 0.0976669)
(-0.147955 0.712186 0.178951)
(-0.0931848 0.444963 0.0576673)
(-0.12463 0.548848 0.0831101)
(-0.0853035 0.458832 0.0794297)
(-0.103693 0.591164 0.124489)
(-0.107608 0.441575 0.0384298)
(-0.146673 0.540675 0.0499653)
(-0.112463 0.435884 0.0152737)
(-0.153782 0.53844 0.0201756)
(-0.020904 0.290455 0.307686)
(-0.00458961 0.0520749 0.0741943)
(-0.00100077 0.011475 0.0170406)
(-0.000212703 0.00258331 0.00378077)
(-5.17408e-05 0.00045594 0.000948628)
(-0.00866374 0.345799 0.0820945)
(-0.00316823 0.0956288 0.0217915)
(-0.000342528 0.0233206 0.00584083)
(-9.84898e-05 0.00529796 0.00131012)
(-3.99659e-05 0.000926899 0.000292685)
(-0.0675215 0.296747 0.30497)
(-0.0149317 0.0513266 0.0725199)
(-0.00327495 0.0111028 0.0165341)
(-0.000701463 0.00247689 0.00364179)
(-0.00017189 0.000434705 0.000909568)
(-0.0224142 0.352267 0.084854)
(-0.00477005 0.0960206 0.0247121)
(-0.000966405 0.0231173 0.00608126)
(-0.00018823 0.00518423 0.0014117)
(-4.01469e-05 0.000903893 0.000354163)
(-0.118771 0.308169 0.293552)
(-0.026417 0.0513279 0.0686104)
(-0.00582821 0.0108281 0.0154742)
(-0.0012598 0.00238407 0.00338225)
(-0.000311457 0.00041564 0.000840031)
(-0.0393547 0.364867 0.0823834)
(-0.00936445 0.0973204 0.0238971)
(-0.00207109 0.02301 0.00583439)
(-0.000452322 0.00509975 0.00134045)
(-0.000109493 0.000882912 0.000333085)
(-0.169884 0.321794 0.274507)
(-0.037999 0.0510773 0.0628959)
(-0.00846647 0.0105058 0.0140559)
(-0.00185134 0.00229078 0.00306059)
(-0.000463468 0.000398224 0.000759547)
(-0.0552829 0.381057 0.0791885)
(-0.0143921 0.0989335 0.0224424)
(-0.00341 0.0230323 0.00536904)
(-0.000784184 0.00506794 0.00121367)
(-0.000199376 0.000874859 0.000297355)
(-0.236032 0.332527 0.239789)
(-0.054315 0.0507157 0.0541015)
(-0.012363 0.010364 0.0120774)
(-0.0027535 0.00227153 0.00263975)
(-0.000701426 0.000397356 0.000659479)
(-0.0737554 0.395353 0.0735347)
(-0.0217723 0.100178 0.0198919)
(-0.00547395 0.0232899 0.00465139)
(-0.00130034 0.00515225 0.00103832)
(-0.000339543 0.000894494 0.000252079)
(-0.315956 0.320332 0.133863)
(-0.0794002 0.0580797 0.0322475)
(-0.0190877 0.0131743 0.00745541)
(-0.00442702 0.00306875 0.00166751)
(-0.00116345 0.00055605 0.000423897)
(-0.0858665 0.360388 0.0375714)
(-0.0268322 0.103084 0.00955994)
(-0.00696416 0.0258961 0.00208491)
(-0.00168401 0.00606012 0.00043179)
(-0.000447102 0.00109241 9.8877e-05)
(-0.288816 0.327132 0.187275)
(-0.0703316 0.0552608 0.0438493)
(-0.0164965 0.0119426 0.00995618)
(-0.00375087 0.0026968 0.0021992)
(-0.000970266 0.00047962 0.000554483)
(-0.0829275 0.375289 0.052254)
(-0.0262224 0.102288 0.0136659)
(-0.00680015 0.0247146 0.00312951)
(-0.00164097 0.00561028 0.000690023)
(-0.000431982 0.000990854 0.000166639)
(-0.328621 0.31657 0.0838161)
(-0.083692 0.059917 0.0207097)
(-0.0203721 0.0139832 0.00485809)
(-0.00477791 0.00332406 0.00109738)
(-0.0012669 0.000610328 0.000280596)
(-0.0879808 0.355297 0.0241105)
(-0.0266723 0.103564 0.00628172)
(-0.00681074 0.0265744 0.00135042)
(-0.00162773 0.00634082 0.000267152)
(-0.000430799 0.00115977 5.85396e-05)
(-0.33815 0.314075 0.0308592)
(-0.0858572 0.0589657 0.00771806)
(-0.0209907 0.0138204 0.00182575)
(-0.00495064 0.00331229 0.000415473)
(-0.0013196 0.000612221 0.00010686)
(-0.0881536 0.352468 0.0117404)
(-0.0267739 0.10258 0.00280172)
(-0.0068281 0.0265023 0.000571282)
(-0.00151497 0.00637329 0.000153597)
(-0.000424904 0.0011722 2.29897e-05)
(-0.00999285 1.4421 -0.0529743)
(-0.266182 2.01051 0.0240797)
(-0.26141 1.79904 0.169929)
(-0.147114 1.3555 -0.145825)
(0.150145 0.757065 0.0394966)
(0.206424 0.795037 0.0421312)
(0.415622 1.20621 0.10572)
(0.546582 1.21029 0.129008)
(0.236469 0.814678 0.0876183)
(0.476989 0.870461 0.141319)
(0.0905707 1.29911 0.116908)
(0.286891 1.73184 0.176592)
(0.232654 1.92096 0.111795)
(0.386897 2.60922 0.145986)
(0.425579 0.979052 0.0534368)
(0.587258 1.07577 0.0778498)
(0.512495 0.790852 0.0580548)
(0.583353 0.771441 0.067616)
(0.292655 0.548224 0.0404953)
(0.331245 0.5637 0.0419611)
(-0.758948 0.164717 0.115661)
(-0.565674 0.115971 0.0904774)
(-0.171338 0.0294467 -0.011754)
(-0.13198 0.0228185 -0.0337208)