/*--------------------------------*- C++ -*----------------------------------*\
| =========                 |                                                 |
| \\      /  F ield         | OpenFOAM: The Open Source CFD Toolbox           |
|  \\    /   O peration     | Version:  2412                                  |
|   \\  /    A nd           | Website:  www.openfoam.com                      |
|    \\/     M anipulation  |                                                 |
\*---------------------------------------------------------------------------*/
FoamFile
{
    version     2.0;
    format      ascii;
    arch        "LSB;label=32;scalar=64";
    class       volScalarField;
    location    "1.9";
    object      gradTx;
}
// * * * * * * * * * * * * * * * * * * * * * * * * * * * * * * * * * * * * * //

dimensions      [0 -1 0 1 0 0 0];

internalField   nonuniform List<scalar> 
5712
(
-8062.99
-9855.84
-18414.6
-28783
-27829
-54301.9
-19221.6
-57852
-19827.6
-46387.3
-24385.7
-40111.3
-18652.2
-24681.4
-10034.6
-10190.4
-13144.8
-14903.4
-17997
-16322.5
-12490.1
-18797.8
-18624.7
-18637.5
-5293.04
-3849.56
-7175.01
-5143.32
-12015.1
-7827.15
-22203.9
-15510.6
-18477.7
-18753.9
-18797.1
-19068.4
-4365.48
-3877.4
-42956.1
-53113.2
-22863.7
-30503
-55319.7
-68081.8
-25617.2
-31525.5
-32204.6
-42095.5
-25682.8
-35552.6
-14780.3
-18699
-3036.86
-963.244
-3942.4
-1367.87
-6797.73
-2798.02
-11757.1
-4319.6
-7745
-2571.93
-7788.83
-2207.65
-15295.3
-4458.37
-20039.1
-6288.2
-25757.4
-14743.1
-21771
-15037.9
-26326.6
-16963.5
-20883.8
-16869.2
-16914.7
-12200.6
-18579.1
-11764
-21149.7
-15582.1
-21860.6
-15988.1
-20471.4
-17245.4
-21274.7
-17590.6
-17453.3
-12920.3
-18814
-13401.6
-18647.4
-7669.29
-10656.8
-12179.4
-20069.7
-8855.83
-10582.6
-12761.1
-18696.3
-7150.24
-11154.9
-11995.7
-19329.8
-7194.56
-11726.9
-12098.1
-2937.42
-3307.58
-1034.62
-2062.55
-8466.26
-9945.38
-3490.67
-6667.89
-13765.1
-16348
-6243.6
-11213.3
-17713.6
-9317.11
-18048.5
-21757.5
-10992.2
-6789.4
-10872
-12596.9
-22106.1
-14199.5
-10210.5
-13428
-14930.7
-14512.2
-18132.1
-3244.11
-3322.23
-2014.6
-2148.05
-9615.36
-9145.16
-6221.26
-6308.23
-14409.9
-13148.1
-9208.62
-9235.55
-9761.1
-10899.4
-15423.6
-16364.8
-17322
-16291.3
-20639.2
-18917.7
-14348.9
-14296.8
-13182
-14267
-17018.3
-15496.6
-16065
-13390.4
-14427.5
-11504.7
-16114
-12789.9
-14338.4
-7627.79
-11265.4
-10921.4
-15802.8
-18332.9
-16137.3
-20987.5
-9512.74
-9339.45
-13007.1
-5815.74
-10893.4
-17138.8
-11272.5
-18311.6
-16379.7
-25744.2
-16934.8
-26358.5
-9238.31
-15080.3
-9566.55
-16358.1
-11392.8
-8440.84
-14642.7
-6560.71
-12326
-4517
-13852.1
-3265.6
-11842.5
-12132
-15337.8
-7884.52
-10689.4
-14002.3
-14093
-10041.7
-3100.69
-2877.85
-2469.75
-2005.09
-1957.38
-1705.85
-8376.54
-7190.76
-6245.94
-5488.16
-4567.27
-3835.61
-10939.2
-9218.68
-8390.67
-7907.48
-6322.66
-5686.7
-9752.76
-7849.73
-7416.31
-15234
-11248.1
-9084.21
-13790.6
-10021.6
-7716
-15385.3
-11962.2
-10006.7
-12024.1
-8115.43
-5996.98
-18242.5
-14733.8
-13007.7
-13433.4
-10547.7
-8671.05
-11918
-8871.56
-6909.17
-10705.5
-7918.07
-6213.1
-11644.4
-6919.17
-4253.97
-11543.5
-18810
-9801.45
-14034.8
-9412.35
-19371.7
-7888.64
-15895.1
-175.886
-1723.8
257.108
-1013.91
-3558.6
-6721.91
-2236.03
-4073.67
-1844.94
-3921.83
-11036.7
-16431
-8743.43
-6531.33
-11757.9
-10281.8
-15821.6
-16944.3
572.414
5577.84
-8427.85
-5906.27
-6608.77
-3805.7
-1583.15
-1012.44
-1278.87
-785.778
-3889.43
-1237.23
-1937.22
-234.593
-9980.91
-2972.24
-7526.66
-2324.2
-8572.63
-2580.75
-9713.62
-3200.26
-12342.1
-12202.5
-9611.74
-12101.4
-18784.5
-16916.9
-15384.4
-16088.4
-7102.55
-9307.17
-8283.25
-8590.12
-9008.51
-12034.9
-9480.38
-12153.8
-14695.1
-15781.8
-15236.7
-15901.8
-6284.99
-9445.12
-6091.4
-9569.43
-756.019
-1403.11
-7445.48
-4115.07
-728.121
-1167.83
-6513.54
-3472.63
-759.02
-1266.51
-7868.47
-4538.11
-1071.13
-1389.9
-7953.88
-4791.71
188.531
333.9
-474.653
-318.57
881.809
1410.77
-760.669
-487.188
-1126.11
-72.8917
-2522.04
-2181.65
7664.1
3888.02
4521.26
3036.11
3.60527
7088.8
10357.6
4917.1
4994.5
26.3739
-9457.17
-6885.23
-5610.8
-5745.86
-3325.78
537.843
436.125
-178.103
-275.956
1512.63
1659.75
-493.022
-674.246
1307.2
1882.17
-1382.65
-1654.56
3076.66
1557.47
8009.95
5628.8
4288.89
3055.16
3912.91
3233.04
-245.305
-968.367
-4996.1
-3474.91
464.558
2155.65
682.661
1926.62
-350.481
716.121
-767.09
-1126.3
-4068.28
-4497.02
-9679.79
-6135.19
-8677.22
-8423.09
-13022.1
-10158.2
-7361.47
-4506.54
-2477.71
-3174.13
-11456.6
-4842.77
-12289.1
-4471.33
-14954.7
-9794.48
-15922.5
-9421.66
-8875.2
-3277.09
-9646.18
-2830.45
-5486.48
-4441.65
-4096.92
-7234.61
-2673.94
-3572.49
-2668.32
-6067.09
-6048.23
-4136.19
-4985.65
-8309.47
-7327.52
-3900.18
-5920.69
-8216.67
559.533
715.87
830.093
-175.273
137.482
186.699
2007.07
2379.62
2546.52
-243.831
568.912
684.803
2436.85
3396.75
3805.03
-872.294
996.307
1381.39
804.219
1355.71
1215.64
4277.14
4568.09
4225.26
3345.41
3890.31
3753.51
3573.2
4423.27
4554.58
-473.562
1448.04
1373.96
-4087.56
-2027.52
-1177.71
1251.01
2420.03
2796.18
1519.99
2763.36
3076.24
933.508
2437.81
2749.97
-1670.57
978.16
1155
-73.2784
5.77923
33.2551
67.938
102.433
97.6332
114.217
110.056
-197.718
4.76562
91.3105
180.785
234.181
223.777
246.454
247.737
-392.937
-51.6537
92.9425
278.76
39.3662
183.238
207.776
275.114
44.6777
119.485
77.8006
86.9232
-155.094
-12.2511
40.105
96.8277
-1002.05
-303.338
-133.379
145.475
-1489.93
-477.364
-316.689
202.755
-832.592
-228.404
-60.3838
264.88
-1210.9
-381.183
-274.826
206.973
-926.35
-292.353
-125.747
121.53
-1644.68
-529.38
-337.328
254.064
-985.303
-341.452
-120.514
169.102
-1727.66
-560.611
-353.73
279.328
-71.2232
-4.68389
10.6838
59.5601
-60.0378
-1.92979
-3.19145
62.9707
-193.611
-17.7971
31.4623
159.225
-100.615
17.1628
5.84604
172.276
-680.07
-176.47
-51.6589
240.08
-521.845
-110.832
-52.7947
275.197
-323.275
-31.9491
32.0311
278.013
-216.136
-5.97778
-12.9747
270.825
-1019.15
-294.949
-208.325
301.68
35.4912
28.891
18.536
51.6442
123.741
54.7266
31.32
32.5053
25.7083
56.0399
31.639
134.619
303.145
141.62
76.7051
85.3931
-75.7154
40.838
28.7337
210.348
412.521
204.051
114.707
130.338
-96.2677
53.6868
36.1577
278.145
433.634
240.19
128.744
152.575
-301.127
10.6376
-39.7062
264.15
245.175
214.763
93.4663
138.622
-1034.53
-130.974
-154.424
239.762
-301.436
67.4712
16.2595
95.4109
-668.414
-37.6368
-108.857
246.766
-86.7185
143.072
51.6387
117.642
-1347.15
-258.039
-211.921
257.05
-444.844
-11.511
-18.4846
83.4431
-1569.2
-393.05
-276.269
251.974
-577.608
-108.443
-61.1167
68.671
26.6805
12.5115
6.40478
3.61963
2.52111
37.086
19.0632
10.1934
5.89715
4.14315
56.7923
26.5944
13.5624
7.68765
5.40077
97.5966
51.9086
28.2174
16.5323
11.7017
81.2989
38.4514
19.9171
11.4314
8.09055
140.693
73.939
40.5461
23.9685
17.0514
47.3499
24.2235
13.3302
7.92469
5.65199
26.1228
13.058
7.05305
4.17095
2.96407
72.1579
32.0832
16.7086
9.69106
6.83976
16.0203
4.71303
1.96018
1.00993
0.67794
107.924
53.1121
28.6075
16.8225
11.9547
29.5209
11.8048
5.89596
3.3462
2.32767
24.2906
6.75399
2.63602
1.32629
0.887395
16.5407
5.27176
2.34866
1.28122
0.886808
22.6617
6.0528
2.28079
1.13711
0.738301
11.3332
1.72991
0.27549
0.02579
-0.0277485
21.5655
9.42521
4.61683
2.53087
1.73682
20.4762
8.94142
4.37901
2.39785
1.64448
49.7632
21.4124
10.5053
5.78449
3.99755
47.6532
20.313
9.97585
5.48567
3.77074
64.7847
26.1918
12.7372
6.99082
4.83507
57.7876
25.0052
12.5378
6.959
4.8386
78.338
37.6441
20.0519
11.6781
8.29459
39.0052
18.3505
9.53963
5.39524
3.81309
45.3645
22.7382
12.3599
7.30856
5.20553
-508.865
-620.407
-1403.75
-1765.67
-2149.82
-2829.05
-2604.87
-3744.35
-2573.79
-3698.88
-2329.62
-3115.75
-2132.59
-2592.33
-2690.21
-3666.82
-2811.58
-3844.54
-522.599
-114.74
-25.0193
-5.31758
-1.29352
-216.593
-79.2058
-8.56319
-2.46224
-0.999146
-1688.04
-373.293
-81.8739
-17.5366
-4.29724
-560.356
-119.251
-24.1601
-4.70575
-1.00367
-2969.27
-660.426
-145.705
-31.4949
-7.78642
-983.867
-234.111
-51.7772
-11.308
-2.73732
-4247.11
-949.974
-211.662
-46.2836
-11.5867
-1382.07
-359.804
-85.25
-19.6046
-4.9844
-5900.8
-1357.87
-309.076
-68.8374
-17.5356
-1843.88
-544.307
-136.849
-32.5084
-8.48856
-7898.9
-1985.01
-477.193
-110.676
-29.0862
-2146.66
-670.806
-174.104
-42.1003
-11.1776
-7220.4
-1758.29
-412.414
-93.7718
-24.2566
-2073.19
-655.561
-170.004
-41.0242
-10.7996
-8215.52
-2092.3
-509.302
-119.448
-31.6726
-2199.52
-666.806
-170.269
-40.6932
-10.77
-8453.75
-2146.43
-524.766
-123.766
-32.9899
-2203.84
-669.348
-170.703
-37.8743
-10.6226
-249.821
-6654.54
-6535.25
-3677.84
3753.63
5160.6
10390.6
13664.5
5911.74
11924.7
2264.27
7172.27
5816.34
9672.43
10639.5
14681.5
12812.4
14583.8
7316.36
8281.13
-18973.7
-14141.8
-4283.46
-3299.5
-2563.01
-4112.7
-2899.56
-12352.9
-12033.7
-10343.2
-10860.5
-8877.07
-6143.3
-8505.03
-5170.38
-3961.17
-4893.39
-3128.85
-20412.5
-10091.1
-2969.28
-4989.17
-7604.41
-5142.56
-6029.88
-4538.86
-2194.27
-3707.66
-3273.85
-3820.36
-19034
-11799.9
-11836.5
-7496.95
-7942.72
-8003.71
-3926.42
-4983.44
-5210.69
-12787.2
-12114.7
-10291
-10086.2
-9067.72
-10071.5
-7466.36
-6153.69
-5065.65
-2291.87
-3786.2
-3138.47
-2351.13
-1462.78
-497.126
-2947.05
-2466.84
-1856.17
-1153.23
-391.301
-2274.01
-1888.59
-1409.91
-870.642
-294.546
-3675.45
-3076.63
-2312.36
-1433.89
-485.906
-2573.34
-2139.21
-1600.33
-990.871
-335.803
-8178.87
-6920.05
-5498.25
-5074.12
-5432.05
-6578.66
-5180.81
-3649.42
-2942.36
-2438.46
-7167.18
-4888.75
-3676.49
-2730.81
-1197.62
-5872.68
-4376.06
-3012.64
-2329.61
-1613.78
-4503.19
-3127.68
-2064.4
-1668.22
-983.439
-4890.02
-3674.76
-2606.13
-1616.73
-570.967
-6099.29
-4224.48
-2990.35
-1960.59
-778.839
-3627.91
-2392.45
-1615.42
-1014.48
-383.578
-3271.62
-2534.06
-1810.73
-1106.73
-379.082
-3943.73
-2975.33
-2086.59
-1263
-432.335
-2613.87
-2043.24
-1462.62
-888.587
-301.41
-13843.1
-11383.4
-9389.75
-8630.48
-7967.5
-7749.78
-5769.89
-4382.24
-3122.4
-1313.69
-2469.65
-1930.64
-1395.98
-864.373
-298.713
-4225.41
-3369.47
-2483.2
-1561.39
-543.27
-6268.33
-4902.76
-3649.6
-2382.07
-863.972
-4389.52
-3527.88
-2622.66
-1658.98
-574.27
-5240.21
-4273.76
-3186.08
-1994.67
-679.263
-3953.55
-3229.97
-2396.44
-1487.45
-506.941
-1891.54
-1524.84
-1113.08
-680.025
-229.701
-3258.73
-2681.36
-1989.64
-1226.65
-415.321
-2783.19
-2217.15
-1612.77
-990.813
-337.59
-3303.3
-2678.76
-1976.39
-1223.85
-417.6
-12745.5
-11343.7
-9635.21
-9185.98
-8033.8
-8732.42
-6513.49
-5239.11
-4095.45
-1828.38
-9476.11
-7663.99
-6061.29
-4713.36
-2084.95
-6123.03
-4624.29
-3524.96
-2410
-770.432
-6685.83
-5280.78
-3956.21
-2560.74
-866.474
-6510.78
-4885.63
-3708.6
-2528.81
-786.712
-3385.06
-2739.75
-2028.85
-1266.47
-433.631
-4384.29
-3614.91
-2693.32
-1668.88
-566.685
-4486.27
-3630.1
-2693.61
-1687.43
-579.397
-6412.62
-14085.1
-11260.9
-36681.8
-10606.9
-47839.5
-7116.09
-18823.7
-9259.38
-7797.62
-18211.6
-14217.8
-9406.18
-11304.9
-19900
-16502.3
-4029.27
-2747.47
-9282.48
-6524.98
-7060.15
-3688.88
-25571.4
-18034.7
-15452.2
-10734.9
-16048.4
-10446.5
1760.29
-1524.72
-43996.5
-53508.9
-22182.9
-30397.9
-56043.3
-68369.4
-24798.1
-31328.8
-32908.3
-42499.1
-25020.7
-35531.1
-15872.2
-19137.6
-2170
-414.844
-4737.83
-1526.14
-4106.36
-1938.7
-13263.3
-4738.57
-2066.55
-982.348
-5812.19
-1610.58
-15345.1
-4419.77
-20219.9
-6330.28
-18784.3
-11530
-19407.7
-13419.7
-18207.9
-12980.2
-18175.2
-14946.7
-15309
-10986.8
-14039.4
-9461.46
-20202.9
-14830.7
-21625.9
-15772.7
-19359.9
-16386
-20967.4
-17342.4
-16864.2
-12342.6
-18680.7
-13234.2
-17734
-7444.96
-9791.41
-11817.2
-17284.7
-8132.71
-8877.7
-12083.9
-18428.5
-7079.73
-10746.3
-11812.6
-19294.9
-7185.67
-11606.4
-12044.7
-665.999
-500.494
110.968
-692.425
-2481.33
-3074.22
-1756.26
-4574.13
-3710.43
-4970.19
-3871.64
-8407.6
-17001.2
-16237.6
-13622.2
-16036.4
-9696.63
-10880
-8701.81
-7563.01
-15866
-13046.9
-12723.1
-12133.9
-11579.8
-10943.9
-16683.5
-717.466
-911.489
-465.335
-692.498
-3077.65
-2754.62
-3493.1
-3459.71
-2977.73
-1572.51
-5796.37
-5522.96
-11842.5
-12703.1
-11116.6
-11073.6
-10116.5
-8425.47
-13668.7
-11757.4
-12202.9
-11542.9
-15293.7
-15726.4
-14459.6
-12957.4
-11900.1
-9790.51
-10733
-8406
-14432.1
-10707.9
-13283.5
-7886.02
-10884
-10986.1
-16274.5
-19221.6
-16231.5
-21295.8
-8907.28
-9213.42
-11416.4
-5694.59
-10753.6
-17096.6
-11228.6
-18287.5
-16455.8
-25994.6
-16938.7
-26374.4
-8995.72
-14943.2
-9497.3
-16314.9
-10848.4
-8307.26
-14352
-6521.86
-10986.9
-4446.07
-13259.5
-3420.14
-11615.2
-12015.8
-15201.5
-7848.18
-10624.6
-13962.7
-14058.1
-10020.1
-1107.71
-847.005
-630.56
-777.552
-2109.24
-1021.76
-2895.91
-2886.54
-471.54
-309.2
-5127.52
-4976.12
-13685.3
-11752.6
-10857.8
-8361.47
-7077.38
-4799.62
-9412.47
-7149.97
-10014.1
-6718.31
-19969.8
-16967.7
-10499.6
-8469.54
-8177.01
-5998.71
-7135.74
-4919.92
-8048.35
-4086.3
-5889.73
-11236.3
-5430.06
-10991.1
-7409.97
-12082
-8737.68
-13565.6
-1656.61
-1568.45
-1479.49
-1494.32
-4643
-4876.35
-4344.35
-4517.55
-1911.06
-2259.22
-9145.53
-10022
-5607.98
-6335.85
-10626
-10025.4
-14748.7
-16645.3
622.909
5436.58
-7809.14
-5826.08
-6360.67
-3822.32
-1391.42
-1319.25
-1519.01
-1295.76
-3117.4
-2077.71
-2461
-1502.69
-8297.48
-4067.53
-7786.61
-3725.71
-8648.63
-3373.85
-9772.12
-3523.04
-6707.1
-9702.72
-7590.9
-10729.1
-11498.1
-13035.9
-12817
-14174.1
-5974.74
-8668.91
-5179.25
-7706.42
-8170.55
-11443.9
-9231.19
-11983.9
-13599.3
-14951.7
-14913.2
-15662.4
-5833.36
-9175.16
-5958.88
-9493.49
-882.498
-1864.5
-7453.17
-4380.08
-1033.38
-1969.45
-6720.75
-3875.88
-934.924
-1636.42
-7889.09
-4728.55
-1147.83
-1543.64
-7946.63
-4877.17
-1274.83
-1444.98
-1332.09
-1506.86
-3106.29
-3444.99
-2326.77
-2668.03
-7557.56
-8153.57
-4324.58
-4735.49
-4185.18
-9516.45
-2788.09
-480.036
-1524.12
-4170.31
-1184.52
-1953.68
1790.85
-1003.55
-13842.9
-10082.7
-7755.15
-7546.23
-4190.59
-1736.45
-1887.87
-1761
-2139.17
-4073.38
-4354.53
-3157.73
-3927.97
-8650.51
-9698.64
-4780.97
-6026.73
-6183.41
-7500.48
-2165.44
-4186.18
-3443.51
-4735.16
-993.899
-1860.66
-1974.97
-3087.18
-11346.4
-8842.5
-6220.31
-4287.8
-4644.5
-3183.41
-4445.52
-3029.44
-2544.79
-3156.15
-7458.58
-7961.17
-11240.3
-7655.62
-11249.9
-11208.2
-14001.5
-11386.9
-9226.36
-6064.53
-5786.42
-6484.88
-12212
-5710.56
-12494.1
-4673.58
-15398
-10520.7
-16025
-9570.55
-9829.39
-4164.33
-9921
-3058.56
-7311.64
-5913.82
-5722.36
-8958.35
-5565.35
-6479.5
-4753.42
-8810.1
-7028.82
-5016.32
-5967.91
-9345.88
-7630.47
-4166.94
-6236.14
-8488.52
-1574.05
-1647.1
-1519.28
-1221.01
-4716.7
-5327.59
-2423.76
-1396.91
-10412.8
-8634
-3587.96
-436.517
-9355.79
-8079.73
-6004.94
-4986.77
-5035.05
-4007.2
-1893.02
-902.659
-2181.28
625.387
-8468.82
-7000.18
-4190.49
-2947.9
-2822.46
-1440.94
-2242.72
-699.316
-3794.89
407.057
-297.872
-123.429
-40.5676
28.2769
-316.83
-155.651
-38.0042
18.7098
-765.513
-321.739
-86.907
97.8038
-723.303
-363.464
-123.592
-1.6338
-1144.76
-488.243
-168.006
138.107
-1123.02
-550.557
-304.762
-112.191
-666.242
-344.805
-224.328
-82.785
-462.942
-219.546
-95.5875
16.8256
-1416.31
-565.308
-329.656
-0.990612
-1626.74
-537.221
-374.843
203.749
-1426.82
-566.214
-315.899
36.1086
-1387.98
-459.394
-349.279
207.582
-1244.42
-499.02
-253.189
75.42
-1749.76
-577.56
-390.129
228.912
-1122
-432.502
-179.126
141.076
-1773.81
-583.549
-374.463
272.843
-280.759
-105.453
-41.7819
40.6843
-281.128
-92.4482
-54.9576
46.4086
-725.348
-277.544
-105.202
110.818
-713.093
-243.866
-138.243
131.55
-1270.25
-478.666
-227.053
194.147
-1228.14
-429.745
-247.638
223.755
-1256.65
-511.06
-269.354
89.0251
-926.137
-343.308
-200.693
230.198
-1406.22
-478.844
-361.231
257.453
-207.606
-67.4934
-28.4412
30.4569
-123.798
-47.7593
-15.903
3.5601
-570.271
-187.625
-94.6307
77.7095
-343.117
-135.577
-56.4137
4.54559
-793.048
-273.413
-147.461
124.701
-479.899
-210.944
-89.3137
6.93113
-931.901
-345.587
-195.38
158.597
-618.798
-284.423
-128.826
1.83823
-1110.88
-387.742
-284.721
126.824
-835.472
-331.585
-187.027
-30.4048
-1919.42
-631.096
-459.45
71.9789
-1028.57
-359.493
-221.778
-46.2693
-1653.55
-546.718
-419.957
74.5123
-1067.43
-373.762
-227.39
-52.106
-1920.72
-604.871
-424.224
143.527
-886.08
-294.401
-178.488
-7.00122
-1760.98
-513.887
-350.356
213.222
-718.953
-204.189
-115.778
38.2829
-6.03723
-8.48713
-5.92136
-3.85351
-2.8496
-21.4686
-15.6228
-9.76133
-6.13659
-4.49437
-13.589
-17.8958
-12.4131
-8.03036
-5.88782
-68.4417
-44.7183
-27.0182
-16.7144
-12.1512
-31.6153
-28.6639
-18.5763
-11.7433
-8.53203
-104.926
-65.4785
-38.5515
-23.5416
-17.0183
-35.1092
-21.6773
-12.66
-7.69027
-5.55011
-16.66
-10.9366
-6.59599
-4.05408
-2.95319
-29.3253
-24.6165
-15.3347
-9.53406
-6.94305
5.17847
-1.5933
-1.64059
-1.15453
-0.874335
-71.4785
-45.7018
-26.9006
-16.415
-11.8581
-6.16905
-8.32464
-5.44018
-3.44167
-2.53453
8.24282
-1.30933
-1.87716
-1.38414
-1.06108
1.95448
-2.38025
-1.93583
-1.288
-0.958533
9.65688
-0.7927
-1.60016
-1.2242
-0.991244
10.0543
1.28881
0.0364769
-0.131627
-0.161644
-0.629343
-5.64743
-4.33165
-2.9082
-2.17387
-2.48006
-5.68577
-4.17004
-2.77523
-2.07025
-4.28115
-13.7486
-10.0837
-6.67471
-4.94895
-7.52312
-13.8494
-9.78568
-6.43147
-4.77856
-4.52829
-17.7495
-12.6761
-8.32725
-6.15261
-19.6195
-20.0955
-13.0525
-8.38964
-6.15731
-51.3331
-33.0467
-19.4329
-11.9174
-8.59805
-25.3305
-16.9486
-10.1586
-6.36799
-4.60519
-36.9373
-20.5571
-11.6469
-7.01466
-5.04607
-184.643
-311.486
-623.986
-1001.14
-1224.93
-1882.37
-1808.27
-2866.06
-2046.62
-3121.03
-2297.78
-3099.8
-1957.47
-2501.61
-2695.07
-3663.98
-2817.19
-3845.66
-511.049
-114.405
-25.1072
-5.34707
-1.30149
-153.549
-71.708
-6.90551
-2.23138
-0.980053
-1669.3
-374.418
-82.4904
-17.6892
-4.3345
-402.61
-93.1908
-19.89
-4.0096
-0.874945
-2942.42
-661.65
-146.547
-31.7176
-7.84271
-792.635
-202.158
-46.4912
-10.4482
-2.57897
-4199.28
-947.31
-211.857
-46.4029
-11.6247
-1213.16
-330.531
-80.2286
-18.7598
-4.8248
-5831.86
-1349.84
-308.163
-68.747
-17.5302
-1739.04
-523.49
-132.966
-31.8171
-8.35291
-7845.5
-1973.53
-474.922
-110.253
-28.9999
-2135.85
-666.533
-173.007
-41.862
-11.1233
-7151.79
-1746.33
-410.405
-93.4455
-24.1984
-2031.96
-644.227
-167.559
-40.5481
-10.7006
-8181.72
-2084.43
-507.628
-119.119
-31.6016
-2197.66
-665.65
-169.923
-40.6137
-10.7509
-8442.54
-2143.75
-524.177
-123.648
-32.9642
-2204.03
-669.233
-170.654
-37.8664
-10.6199
-140.824
-6516.68
-6043.2
-2912.13
-1495.84
-867.188
-3189.14
-2477.88
-5533.69
-6027.01
-3165.44
-2975.25
-369.789
-564.812
-955.421
-1487.41
-2115.92
-2748.07
-255.98
-535.963
-1092.88
-1863.26
-2759.11
-3672.02
-287.362
-124.909
-508.86
-315.124
-946.969
-704.441
-1522.43
-1308.52
-2100.85
-2074.21
-2601.69
-2836.9
-3411.94
-4121.83
-4996.66
-7063.98
-7463.09
-9041.01
-4497.65
-5078.11
-5230.98
-5031.1
-4172.21
-3746.39
-334.084
-283.037
-214.979
-134.217
-45.6211
-509.946
-431.704
-327.659
-204.454
-69.4748
-861.96
-729.079
-552.923
-344.824
-117.144
-1340.47
-1132.5
-858.009
-534.747
-181.613
-1903.83
-1605.77
-1214.95
-756.671
-256.92
-2466.15
-2074.61
-1566.84
-975.157
-331.082
-231.142
-195.735
-148.604
-92.7432
-31.5147
-483.65
-409.223
-310.44
-193.639
-65.7857
-985.518
-833.199
-631.641
-393.823
-133.774
-1678.42
-1417.39
-1073.53
-669.004
-227.209
-2481.3
-2091.91
-1582.48
-985.648
-334.718
-3293.94
-2770.29
-2092.49
-1302.87
-442.532
-259.724
-220.098
-167.215
-104.421
-35.5028
-112.902
-95.6819
-72.6951
-45.3964
-15.4352
-459.615
-389.237
-295.524
-184.449
-62.69
-284.67
-241.125
-183.102
-114.294
-38.8477
-854.706
-723.256
-548.709
-342.278
-116.295
-635.94
-538.268
-408.451
-254.82
-86.584
-1372.57
-1160.05
-879.099
-547.944
-186.1
-1179.84
-997.258
-755.761
-471.051
-159.976
-1890.78
-1595.07
-1206.87
-751.511
-255.126
-1866.6
-1574.33
-1190.75
-741.176
-251.549
-2334.3
-1962.91
-1481.62
-921.553
-312.752
-2544.33
-2138
-1612.02
-1001.47
-339.622
-3048.43
-2553.8
-1924.25
-1197.45
-406.798
-3653.72
-3039.74
-2284.53
-1424.62
-485.237
-4364.17
-3587.02
-2691.6
-1693.25
-581.3
-6010.46
-4840.86
-3649.26
-2358.07
-824.953
-6033.6
-4736.48
-3647.81
-2522.15
-966.662
-7017.16
-5412.72
-4261.31
-3117.94
-1254.39
-4019.3
-3368.86
-2540.42
-1582.32
-537.95
-4512.53
-3764.6
-2834.78
-1769.15
-602.953
-4608.15
-3818.75
-2873.7
-1802.98
-617.912
-4365.29
-3578.1
-2696.75
-1714.68
-595.115
-3517.31
-2835.39
-2155.62
-1417.11
-511.63
-3051.68
-2414.23
-1860.07
-1276.19
-480.238
-391.106
-630.245
-1068.52
-1649.49
-2326.87
-2992.02
-283.444
-620.329
-1237.45
-2066.82
-3008.38
-3934.24
-309.402
-141.684
-577.256
-368.318
-1068.4
-802.835
-1703.42
-1468.8
-2349.87
-2357.83
-2898.68
-3334.2
-3676.16
-4397.26
-5275.17
-7261.32
-7595.23
-9091.01
-4726.56
-5227.11
-5276.32
-4980.34
-4095.18
-3711.78
-353.44
-299.539
-227.596
-142.137
-48.321
-569.4
-482.426
-366.469
-228.83
-77.7893
-964.829
-816.966
-620.276
-387.184
-131.601
-1488.17
-1259
-955.198
-596.004
-202.547
-2096.64
-1771.48
-1342.76
-837.488
-284.59
-2690.29
-2268.49
-1717.38
-1070.88
-363.964
-256.089
-217
-164.859
-102.945
-34.9935
-560.287
-474.589
-360.444
-225.04
-76.4943
-1117
-945.522
-717.712
-447.952
-152.248
-1863.93
-1576.27
-1195.61
-745.95
-253.505
-2709.18
-2287.84
-1733.66
-1081.28
-367.463
-3534.97
-2978.9
-2254.59
-1406.01
-477.97
-279.714
-237.126
-180.223
-112.58
-38.2834
-128.116
-108.634
-82.5828
-51.596
-17.5481
-521.724
-442.187
-336.008
-209.862
-71.3555
-332.948
-282.256
-214.528
-134.01
-45.5683
-965.112
-817.539
-620.925
-387.679
-131.788
-725.377
-614.617
-466.91
-291.56
-99.1188
-1537.5
-1301.29
-987.613
-616.335
-209.471
-1326
-1122.53
-852.087
-531.804
-180.746
-2118.34
-1790.6
-1357.63
-846.826
-287.756
-2125.98
-1797.42
-1362.96
-850.158
-288.882
-2607.07
-2198.79
-1664.74
-1037.98
-352.731
-3000.23
-2531.41
-1916.82
-1194.99
-406.034
-3293.48
-2768.14
-2092.63
-1305.58
-444.148
-3913.44
-3271.17
-2469.85
-1545.59
-527.401
-4634.66
-3835.33
-2896.53
-1830.71
-629.881
-6220.75
-5049.33
-3834.76
-2491.56
-873.411
-6187.16
-4895.26
-3796.79
-2638.24
-1013.46
-7080.24
-5480.7
-4328.45
-3174.18
-1277.46
-4231.93
-3555.2
-2687.11
-1676.7
-570.582
-4654.59
-3892.79
-2938.74
-1837.73
-627.002
-4657.77
-3869.67
-2920.01
-1836.36
-630.172
-4329.01
-3556.72
-2688.88
-1715.14
-596.381
-3455.83
-2790.54
-2128.58
-1405.68
-509.33
-3024.16
-2394.13
-1848.15
-1271.67
-479.517
-18899.9
-14203.2
-4690.57
-3707.71
-3131.7
-4807.5
-3414.93
-13153.8
-14224.4
-11827.4
-13605.4
-7242.63
-11382.5
-5267.64
-5539.23
-3888.9
-21189
-10997.3
-3521.6
-5640.57
-8263.45
-5544.27
-6708.14
-5113.2
-2496.9
-4442.85
-3937.56
-4357.53
-18936.1
-12033.6
-12386.5
-7898.99
-8328.32
-8477.87
-4606.52
-5691
-5678.49
-12772.1
-12159.8
-10386.9
-10254.3
-9237.06
-10167.3
-7573.36
-6266.97
-5173.96
-2339.24
-4172.22
-3484.33
-2629.5
-1645.23
-560.853
-3324.83
-2796.47
-2114.47
-1318.76
-448.401
-2803.95
-2354.74
-1778.47
-1108.81
-377.176
-4317.99
-3636.83
-2751.03
-1714.88
-582.829
-3054.45
-2563.08
-1935.76
-1207.66
-411.002
-9710.1
-8750.14
-7402.42
-6862.57
-6934.56
-10025.8
-9201.62
-7578.57
-6370.28
-4822.09
-9137.03
-6896.97
-5531.7
-4196.06
-1839.14
-9937.27
-8574.79
-6848.01
-5557.59
-3460.06
-6152.24
-4942.75
-3726.64
-2419.02
-875.978
-9215.71
-7078.87
-5419.78
-3732.22
-1505.24
-4568.48
-3734.02
-2806.23
-1782.08
-623.314
-4786.02
-3899.49
-2930.32
-1866.42
-655.686
-3395.72
-2790.88
-2096.69
-1323.34
-458.759
-15202.8
-12984.3
-11060.1
-10205.5
-9211.52
-8836.86
-6893.01
-5421
-3921.39
-1646.95
-3048.76
-2490.3
-1876.07
-1197.44
-420.66
-4894.24
-4011.26
-3032.96
-1942.5
-682.275
-6991.6
-5628.48
-4300.02
-2856.25
-1045.13
-4806.71
-3932.84
-2974.07
-1905.39
-664.366
-5896.72
-4873.5
-3678.41
-2323.27
-795.053
-4517.26
-3752.21
-2829.53
-1778.27
-610.203
-2207.91
-1834.1
-1380.08
-864.151
-296.048
-3957.25
-3308.45
-2495.14
-1558.52
-531.571
-3451.37
-2847.08
-2142.32
-1351.04
-467.046
-3839.42
-3182.44
-2398.93
-1510.25
-520.008
-12846.9
-11603.2
-10009.6
-9679.53
-8566.54
-9041.79
-6838
-5557.13
-4367.74
-1952.24
-10241.4
-8502.18
-6896.89
-5424
-2416.76
-6567.79
-5067.43
-3924.65
-2705.93
-868.765
-7111.61
-5707.87
-4341.47
-2841.5
-968.342
-7057.63
-5432.03
-4209.58
-2904.28
-918.315
-4044.4
-3342.89
-2524.07
-1597.11
-550.714
-5058.52
-4222.05
-3184.09
-1991.65
-679.79
-4962.19
-4085.04
-3082.25
-1955.44
-676.187
-452.433
-1241.4
-1901.99
-2519.49
-3146.98
-3721.4
-2404.02
-6198.42
-5813.44
-2408.68
-7071.58
-6379.06
-7564.35
-10113.6
-1359.87
-171.754
-2570.94
1269.49
-10052.4
-8387.85
1984.25
-1752.52
-4900.57
-4698.58
-1851.28
-5384.15
-3013.07
-6018
-6184.8
-600.393
929.592
-1104.11
3455.96
-7065.99
-4559.38
3860.86
-1080.9
-3332.04
-3427.2
-1270.35
-3351.99
-496.088
-4475.33
-4480.37
-166.81
1121.74
96.8999
3622.68
-4323.22
-442.398
4393.1
-720.51
-2374.08
-2756.44
-972.998
-1795.79
850.387
-3762.29
-4210.71
38.9404
812.302
440.382
3035.13
-3268.13
1575.48
4187.94
-620.608
-2226.05
-2629.75
-890.597
-1668.69
565.18
-3989.96
-5443
116.524
618.32
547.322
2631.32
-3119.1
1578.5
2900.08
-597.902
-2191.28
-2561.18
-862.628
-2065.38
-208.683
-3912.97
-5352.71
162.647
965.153
447.453
2723.49
-3635.8
660.608
2151.86
-1322.25
-3140.29
-4215.58
-1718.74
-6457.56
-11555
-7019.24
-12408.9
-1620.28
-1442.92
-5218.45
-4397.86
-2318.23
-9455.86
-4740.71
-1293.27
-3056.01
-3760.88
-1486.99
-6105.76
-9861.38
-6299.2
-9072.18
-1687.34
-1335.36
-5083.23
-4200.02
-1685.3
-8739.54
-4624.35
-1194.4
-2844.32
-3128.67
-1201.04
-5514.27
-8575.26
-5295.63
-8016.6
-1448.21
-1708.36
-4464.84
-4972.68
-1978.75
-7738.2
-5181.6
-1194.86
-3088.56
-2878.6
-1058.94
-5824.18
-8361.7
-5201.87
-7832.81
-1506.89
-2094.81
-4586.78
-6063.86
-2510.36
-8454.21
-6228.67
-1200.03
-3056.34
-2821.04
-1018.1
-5714.56
-8958.87
-5196.64
-8586.59
-1625.84
-2660.49
-4907.5
-7663.04
-3560.62
-9960.32
-8020.38
-1211.36
-3045.65
-2781.98
-1003.54
-5791.74
-9172.82
-5073.07
-8474.13
-1822.32
-3305.47
-5397.89
-8734.4
-4737.54
-10966.2
-8954.5
7395.65
8959.32
18410.9
28734.5
27832.2
54285.7
19224.5
57847.4
19831.4
46382.3
24398.6
40106.2
18684.1
24669.1
8650.75
8761.05
13146.9
14903.8
17992.4
16321
12492.6
18799.2
18624.8
18637.9
4877.99
3563.86
6579.39
4721.02
12022
7823.32
22169
15482
18463.3
18752.2
18791.4
19065.3
4361.62
3862.22
42957.1
53114.2
22863.5
30503.3
55319.7
68081.9
25617.5
31525.7
32205.5
42097
25681.7
35553.1
14782.9
18700.7
2848.03
911.53
3638.48
1269.58
6782.2
2799.45
11732.4
4314.29
7737.04
2569.59
7777.8
2204.31
15295.5
4458.27
20040.4
6288.6
25756.6
14742.7
21770
15037.5
26327
16963.7
20883.9
16869.3
16913
12199.9
18577.4
11763.1
21149.3
15581.8
21860.5
15987.9
20471.5
17245.4
21274.8
17590.6
17452.8
12919.9
18814
13401.3
18644.4
7668.52
10655.8
12179.1
20065.8
8854.86
10581.1
12760.5
18695.6
7150.1
11154.5
11995.6
19330
7194.66
11726.6
12098.1
2752.86
3086.59
976.777
1924.93
8438.35
9901.34
3489.97
6648.87
13752.9
16332.7
6240.04
11207.1
17712.6
9316.78
18046.8
21752
10991
6789.06
10871.4
12595.6
22099.9
14198
10210.5
13427.5
14929.4
14509.5
18131
2992.89
3062.9
1836.56
1988.44
9605.21
9120.24
6241.1
6312.51
14403
13140.3
9211.4
9237.32
9760.82
10899.2
15422.9
16364.2
17320.7
16290.3
20635.6
18914.9
14349.9
14298.3
13181.8
14266.8
17017.6
15496.1
16063.8
13389.8
14425.9
11503.9
16114.3
12790.5
14338
7627.59
11265.1
10921.3
15802.7
18332.8
16137.2
20987.4
9512.28
9339.27
13006.4
5815.48
10893.2
17138.6
11272.3
18311.4
16379.7
25744
16934.7
26358.4
9238.03
15080.2
9566.36
16358
11392.4
8440.75
14642.7
6560.78
12325.3
4516.83
13852.2
3265.78
11842.3
12131.9
15337.9
7884.58
10689.3
14002.2
14093.1
10041.7
2825.82
2619.89
2259.05
1860.89
1817.89
1587.98
8366.12
7180.93
6241.4
5492.28
4570.72
3841.27
10935
9215.98
8389.77
7908.95
6324.12
5689.11
9752.6
7849.65
7416.28
15233.6
11247.9
9084.14
13790.1
10021.3
7715.95
15383.7
11961.3
10006.5
12025.1
8116.22
5998.04
18242.3
14733.7
13007.6
13433.1
10547.6
8670.99
11917.7
8871.43
6909.16
10705.1
7917.92
6213.13
11644.8
6919.46
4254.34
11552.6
18813.7
9813.51
14038
9417.19
19374.5
7893.88
15897.2
193.396
1596.48
-208.101
932.946
3520.1
6706.57
2195.28
4063.35
1836.85
3914.53
11034.8
16428.4
8736.42
6525.01
11759
10282.3
15822.5
16944.8
-573.169
-5577.98
8427.44
5906.45
6608.23
3805.66
1440.47
938.096
1157.34
719.172
3894.88
1230.28
1940.62
232.443
9979.52
2969.24
7525.52
2322.34
8572.13
2580.18
9713.68
3200.14
12343.4
12203
9612.59
12101.8
18786
16917.6
15385.2
16088.8
7102.32
9307.2
8282.8
8590.08
9009
12035.1
9480.78
12154.1
14695.6
15782
15237
15902
6285.01
9445.24
6091.6
9569.66
755.155
1402.25
7445.31
4114.74
726.998
1166.36
6513.26
3472.08
758.587
1266.09
7868.46
4537.97
1071.09
1389.74
7954.03
4791.71
-178.86
-309.769
445.796
299.468
-878.186
-1408.25
753.369
478.293
1126.19
73.3424
2518.37
2178.48
-7663.9
-3887.88
-4521.22
-3036.29
-5.06741
-7088.71
-10357.4
-4916.96
-4994.17
-27.6158
9457.35
6885.42
5610.72
5745.6
3324.87
-509.454
-406.848
150.156
240.344
-1504.49
-1657.07
497.509
677.792
-1304.53
-1879.23
1383.57
1656.92
-3076.51
-1557.31
-8009.59
-5628.35
-4288.45
-3054.52
-3911.56
-3231.13
245.39
969.451
4996.24
3475.04
-464.253
-2155.28
-682.319
-1926.08
350.952
-715.352
767.09
1126.9
4068.6
4497.27
9680.01
6135.33
8677.45
8423.19
13022.3
10158.3
7361.62
4506.69
2477.95
3174.43
11456.7
4842.9
12289.2
4471.46
14954.8
9794.53
15922.6
9421.71
8875.32
3277.2
9646.35
2830.58
5486.54
4441.76
4096.85
7234.69
2674.12
3572.83
2668.3
6067.4
6048.29
4136.28
4985.62
8309.53
7327.64
3900.29
5920.74
8216.78
-533.702
-670.614
-775.928
138.356
-144.418
-186.904
-1993.84
-2369.2
-2539.25
256.533
-561.151
-679.86
-2431.39
-3392.17
-3801.73
876.48
-993.062
-1379.1
-804.055
-1355.53
-1215.46
-4276.62
-4567.6
-4224.84
-3344.52
-3889.48
-3752.85
-3570.5
-4420.78
-4552.62
475.192
-1446.52
-1372.73
4087.68
2027.68
1177.88
-1250.6
-2419.61
-2795.78
-1519.34
-2762.72
-3075.66
-932.522
-2436.8
-2749.06
1671.43
-977.354
-1154.36
69.9598
-4.40861
-29.7278
-62.0894
-95.7569
-90.8514
-105.724
-101.421
196.348
-5.1965
-91.8315
-181.039
-232.869
-223.243
-246.212
-247.438
391.987
51.2647
-93.3182
-278.947
-39.4779
-183.301
-207.927
-275.164
-44.8561
-119.56
-77.865
-86.9451
155.01
12.2137
-40.134
-96.8404
1001.83
303.261