/*--------------------------------*- C++ -*----------------------------------*\
| =========                 |                                                 |
| \\      /  F ield         | OpenFOAM: The Open Source CFD Toolbox           |
|  \\    /   O peration     | Version:  2412                                  |
|   \\  /    A nd           | Website:  www.openfoam.com                      |
|    \\/     M anipulation  |                                                 |
\*---------------------------------------------------------------------------*/
FoamFile
{
    version     2.0;
    format      ascii;
    arch        "LSB;label=32;scalar=64";
    class       volScalarField;
    location    "1.9";
    object      gradTy;
}
// * * * * * * * * * * * * * * * * * * * * * * * * * * * * * * * * * * * * * //

dimensions      [0 -1 0 1 0 0 0];

internalField   nonuniform List<scalar> 
5712
(
13062.3
7177.4
22738.3
14895.7
21902.2
18633.8
32252.2
39995.2
49113.2
62234.9
26031.8
22881.8
16024.7
11047
10581.1
6024.86
21678.8
19478.8
19614.6
19375.8
24881.2
23809
28778.8
24707.8
7675.04
5361.44
4000.14
2765.72
11162.8
7187.8
6192.66
4013.25
22110.2
23376
19788
16051.2
15963.3
12504.4
13549.8
12944.4
18084.6
17783
36906.1
40657.4
26384.8
27918.6
19120.7
15051
19477.8
13668
8275.91
7150.12
6207.75
9312.48
3090.32
4226.31
8226.2
12409.9
5176.77
7116.71
8377.89
14852.1
6399.3
10555.5
1994.61
7079.23
344.438
5061.94
18474.7
22250.7
19445.3
22059.8
23311.7
23706.8
23824.3
23178.7
17371.8
21008.9
17325.2
20696.9
19508.9
21911.2
19155.8
21774.9
24037.4
22871.5
24061.7
22697.5
16325.1
21050.3
14893.5
20959
18017.7
19358.2
22689.6
31889.2
18875.2
22384.5
22575.9
34912.3
17044.3
17131.2
22558.4
30242.7
16380.3
15723.9
22520.3
29436.3
4640.64
5885.09
12664.4
20744
5555.81
6242.37
15635.4
23227.9
6599.42
6881.68
19081.6
26107.6
25268.4
27923.1
21373.3
19623.8
26887.6
28438.2
24662.7
21368.3
18103.3
30501.6
26059.8
24068.2
20253.5
20913.8
39523.3
1658.71
2186.76
4490.81
9302.74
2347.71
3269.99
5936.85
10817.7
3527.1
3406.66
7935.77
12818.5
27707.6
27596.5
23030.6
22007
19477.6
17287.3
14240.8
12589.9
11094.9
16549.6
24508.1
22110.7
22667.4
21245.3
19171.3
17694.9
16566.8
14620.7
13179.8
18069.2
23317.2
24813.2
24141.2
26490.8
23477.8
21674
23827.7
22827.8
21127
21351.3
20829.2
20687.5
24552.6
27132.3
24364.6
26861.6
24135.9
23778.8
23852.6
23594.8
20923.7
21181.8
21181.4
21333.9
18174
17951.3
12502.1
14927.7
18339.7
17683.9
12886.4
15480.5
17662.5
17684.3
12339.4
14923
17812.9
17481.5
12213.8
14554.8
1874.52
1520.98
1118.18
1034.96
885.172
872.838
2814.69
1979.53
1538.67
2415.32
2150.51
1854.27
2975.82
2854.45
3020.75
4364.94
3776.56
3442.87
26214.1
23207.4
21139.9
21887.8
20421.8
19232.5
14982.7
14271.2
13889.2
10678.9
10064.8
9784.26
7103.31
5203.04
4221.47
20728.1
19001.5
17778.2
20743.2
19215.2
18323.6
15483.6
13685.2
12707.2
11189.1
9805.56
9175.25
7465.17
5467.68
4441.24
28704.3
29705.2
30578.8
28045.2
28067.1
28007.4
33520.2
28823
18293.9
20084.8
18245.8
17960.4
24279
21310.4
23770.5
18753.4
26222.6
27327.6
22415.5
25119.4
29327.4
25809.4
29190
30317.7
30950.1
33187.6
25121.1
25770.5
21802.3
21488
24918.8
24069.1
16776.1
9618.07
15709.8
10631.4
16285.3
9422.23
15133.5
10302.2
14880.4
8718.82
14051.3
9788.31
13809
10164.7
13264.2
10150.6
22813.9
17972.2
22370.4
18101.7
25518.7
22806.9
25609.8
22442.4
20628.9
14244.7
21417.9
13765.2
22805.3
18166.9
23419.8
18132.8
26228
22307.9
26678.6
22213.5
20079.2
14426.4
19936.4
14428.1
12284.7
8526.04
10827.6
6977.82
11339.2
7632.64
10128.3
6396.26
12568.5
9035.79
11136.4
7307.11
12645.3
9370.93
11217.4
7502.98
2724.38
1481.71
5123.85
2945.42
2813.35
1702.15
5192.65
3236.11
3054.37
2259.58
5140.21
3702.74
13576.5
22735.5
8821.59
7994.77
5768.18
23256
14943.4
8389.51
7458.82
4512.09
22435.2
16219.1
11878.9
8705.14
5469.05
1050.86
1004.46
2057.45
1908.15
1301.53
1017.51
2470.12
2239.24
1827.53
1589.11
2972.34
2666.25
23567.1
22418.7
14981.7
13592.5
9392.07
8931.79
7194.27
6808.84
4163.25
3759.96
20548.3
17564.5
14943.2
12770.1
11145.5
10047.9
7904.54
7492.35
5062.9
5554.49
14141.7
11101.8
14283.4
10466.5
18111.3
13348.6
18392.3
13131.7
11604.7
9248.8
11483.7
9868.87
14758.4
9979.7
14883.9
10092.2
19296.6
13484.4
19249.1
13588.5
11682.2
8685.55
11873.4
9043.72
8303.38
7496.93
5573.87
7278.63
8418.05
7856.09
5670.57
7177.76
8268.83
7284.37
5424.54
7592.5
8694.51
7352.26
5639.63
7509.54
2240.87
1782.66
1392.18
8271.42
4076.43
3123.49
2075.58
1923.94
1629.44
8693.91
4760.21
3831.19
2571.52
2702.45
2695.53
9190.18
5882.81
5136.69
19950.3
17878.8
16458.8
12619
11701.5
11120.6
9045.28
8562.84
8308.87
7832.44
7306.46
7072.61
10615.1
7697.53
6859.55
14798.8
13125.2
12035.5
11123.2
10006.9
9366.84
9667.07
8583.97
7846.31
9125.48
8033.9
7454.5
13716.9
9590.48
8695.95
5233.71
3128.23
2202.42
1901.35
5842.96
3360.7
2286.97
1951.98
5085.96
3083.77
2197.41
1923.38
5803.05
3370.53
2313.94
1972.19
4821.98
3022.46
2226.35
1907.58
5644.92
3402.75
2384.43
1956.29
5913.16
3535.76
2391.16
2049.05
6074.67
3678.83
2479.35
2117.39
5124.97
3197.97
2312.37
1939.88
4206.72
2839.44
2171.04
1819.82
4472.01
2910.64
2214.54
1793.93
3799.77
2648.01
2082.48
1735.04
5513.66
3409.58
2389.17
2026.68
4462.16
2990.85
2236.6
1872.72
5736.96
3562.33
2464.2
2070.89
4610.88
3104.83
2299.42
1897.88
4005.91
2738.62
2073.95
1798.03
2726.37
2279.27
1907.28
1657.34
3889.69
2699.8
2073.49
1798.73
2710.98
2274.62
1906.27
1665.68
3711.84
2642.06
2081.73
1791.68
2780.92
2306.37
1913.73
1694.63
3528.96
2553.13
2048.7
1784.06
2808.14
2316.35
1950.11
1700.67
3270.62
2460.47
1971.36
1669.81
1352.38
1848.37
1539.98
481.006
-227.201
1613.8
1361.92
458.185
1512.95
1909.25
1567.6
507.166
12.2708
1684.52
1384.08
466.214
1772.31
2001.47
1592.5
504.5
384.82
1798.95
1410.32
468.643
2138.88
2117.56
1634.09
537.295
824.544
1941.39
1455.51
486.036
2659.26
2275.24
1707.82
600.654
1284.4
2079.1
1500.09
500.282
3019.01
2464.32
1753.71
564.897
1231.11
2240.28
1595
521.116
2963.47
2380.35
1715.28
567.042
1283.45
2178.07
1543.72
507.809
3005.78
2526.32
1786.57
532.902
1132.51
2296.63
1632.81
521.634
2992.68
2603.78
1853.29
547.894
1279.34
2375.66
1685.75
535.197
1694.29
1250.51
845.603
485.852
158.151
1700.97
1252.54
846.762
486.451
158.334
1724.68
1261.01
850.346
487.968
158.755
1727.15
1264.83
852.831
489.255
159.148
1742.47
1272.24
855.615
490.327
159.428
1735.23
1282.14
862.013
493.614
160.434
1795.49
1306.14
875.124
500.093
162.383
1827.56
1328.54
888.249
506.706
164.383
1790.9
1296.13
867.745
496.12
161.151
1833.93
1302.48
868.88
496.355
161.189
1756.61
1284.42
861.198
492.844
160.152
1819.73
1295.2
864.892
494.367
160.581
1815.5
1309.73
875.65
500.121
162.368
1855.71
1315.72
876.532
500.227
162.37
1837.67
1333.14
889.862
507.334
164.559
1881.36
1338.38
890.347
507.277
164.52
1687.08
1248.65
844.386
485.204
157.952
1706.59
1248.8
843.724
484.816
157.832
1706.96
1257.06
848.005
486.759
158.385
1725.01
1256.41
846.923
486.172
158.209
1736.66
1268.31
852.716
488.785
158.951
1762.86
1267.35
851.318
488.041
158.728
1780.61
1280.81
857.972
491.102
159.605
1802.08
1277.92
856.053
490.148
159.314
1807.01
1288.9
861.721
492.832
160.112
9027.05
13998.5
9490.61
14354.2
10259.9
14934.5
11178.7
15986.6
12172.8
17804.6
11124.1
13721.2
11470.8
14779.1
11039.4
13516.9
10897.1
13461
7261.39
1301.87
286.874
64.5826
11.3985
8644.96
2390.72
583.015
132.449
23.1725
7418.68
1283.16
277.57
61.9223
10.8676
8806.68
2400.51
577.933
129.606
22.5973
7704.22
1283.2
270.703
59.6017
10.391
9121.68
2433.01
575.25
127.494
22.0728
8044.85
1276.93
262.644
57.2696
9.95559
9526.43
2473.34
575.808
126.698
21.8715
8313.16
1267.89
259.101
56.7882
9.93389
9883.83
2504.45
582.248
128.806
22.3624
8008.29
1451.99
329.359
76.7188
13.9013
9009.7
2577.09
647.402
151.503
27.3103
8178.29
1381.52
298.564
67.4199
11.9905
9382.23
2557.19
617.865
140.257
24.7714
7914.24
1497.93
349.581
83.1016
15.2582
8882.43
2589.1
664.361
158.52
28.9943
7851.88
1474.14
345.511
82.8073
15.3055
8811.7
2564.49
662.558
159.332
29.3049
36052.6
50262.8
44976.1
33887.4
18926.6
19875.9
30155.1
30257.2
20367
21761.5
32477.8
43295.9
48024
65230.5
24476.3
26894.3
19771.3
19286
13705.6
14092.5
4117.93
2899.26
736.168
570.463
687.785
585.854
720.595
4083.76
4138.3
2638.62
3514.07
3155.91
1462.67
2069.63
1789.74
1203.61
1368.74
1135.72
3557.78
2070.32
1303.5
1196.83
1480.38
1276.49
991.191
993.597
925.545
828.909
1078.08
1009.88
3663.43
2332.72
2481.45
1717.62
1434.82
2023.04
1022.1
809.344
1138.54
8659.17
8982.75
9184.6
11247
19398.3
6499.49
7399.58
8037.16
9405.02
10998
1936.94
2767.96
3402.03
3837.06
4061.84
1511
2180.56
2700.33
3056.52
3238.59
1816.56
2609.36
3216.09
3626.46
3834.46
1551.77
2238.95
2770.85
3133.36
3317.66
1899.19
2720.17
3346.66
3772.5
3990.08
8999.48
9653.98
9548.4
10765.8
17468.5
8822.77
9164.17
9082.29
9805.14
11716.3
6085.67
7111.94
7592.27
8306.46
9095.31
7627
8154.94
8140.44
8469.6
9301.02
6945.78
7592.63
7593.43
7820.3
8337.66
3648.75
4820.18
5574.36
6096.86
6405.6
4919.74
6043.15
6641.37
7150
7558.93
4338.15
5475.15
6101.57
6539.15
6821.48
3071.88
4194.15
4962.5
5469.66
5738.38
3438.93
4586.06
5327.35
5815.41
6083.03
2916.62
4016.93
4780.18
5277.07
5532.64
8025.73
8920.11
9082.97
10506.4
17190.3
4979.43
6201.94
6935.15
7708.47
8378.5
3306.28
4475.47
5275.35
5833.26
6151.51
3062.73
4200.78
5004.57
5567.53
5882.88
3706.61
4921.32
5740.31
6373.74
6783.43
3255.23
4438.67
5274.87
5887.45
6241.37
2572.34
3601.88
4363.59
4899.2
5187.69
2580.6
3617.22
4378.7
4901.41
5178.06
2415.72
3408.44
4136.78
4619.19
4863.56
2174.64
3092.51
3779.62
4240.38
4474.54
2782.51
3862.84
4632.61
5146.53
5415.37
2620.22
3666.56
4428.02
4942.82
5212.52
8000.15
8642.53
8882.47
10654.8
17833.3
5446.45
6562.83
7322.77
8404.58
9499.95
6201.55
7580.93
8126.18
9404.06
10806.6
4260.18
5546.75
6416.85
7236.04
7795.29
3628.14
4872.75
5738
6424.55
6838.67
4956.86
6232.11
6980.24
7850.19
8436.84
2648.97
3701.59
4474.29
5012.74
5302.08
2123.27
3020.3
3695.36
4153.03
4388.09
2927.75
4043.95
4844.75
5406.16
5715.52
19374.4
12625.5
20528.9
15509.1
24779.1
35130.2
26436.9
36630.3
21452.8
20984.2
18955.1
19646.5
22602.2
22426.9
27806.5
23813
14903.7
13101.7
6668.12
5279.45
17373.5
13860.2
9242.65
6189.1
22378.6
24633.1
20497.8
18246
21392
14293.1
13422.3
12955.6
18160.3
17807
36848.8
40691.6
25997.6
27824.8
19590.4
15180.6
20031.9
13781.1
8723.51
7236.04
13785
16514.7
5578.55
6749.27
14773
18462.3
7503.79
9473.26
12891.9
18755.7
8057.87
12368.4
2274.56
7722.68
364.507
5187.49
18983.8
20847.9
19261.3
21307.7
21878.8
21762.9
22912.2
22113.6
17913.3
20699.2
19206.7
20111.3
19369.7
21527.6
19104.6
21649.9
23579.2
22330.3
23932.4
22523.6
16484.9
20884.7
14915.4
20902.4
18593.5
20420.2
22809.2
32198.2
19859.5
24372.1
22832.8
35572.4
17307.5
17614.9
22600
30375.8
16449.2
15853.9
22527.6
29473.8
18422.9
21019.1
24254.3
34223.5
17576.1
18983.1
25034.5
33963.2
15339.3
15847.7
25209.3
32580
19176
21040.2
19651.9
20160.2
29738.5
20638.5
18080.7
20697.1
18675.8
33881.4
20856.2
19913.3
18538
21340.7
40784.6
13243
12689.2
11019.9
13813.7
12893.8
12484.8
11250
14311.9
11855.3
10808
11124.4
14401.9
20209.2
19614.5
17547.8
16754.8
18817.7
17299.5
14909.7
13273.9
12340.9
16418.5
20088.2
18788.1
19203.5
18718.7
17585
16396.6
16598.9
14341.6
13287.9
16975
21442.6
23094.5
23078.3
25425.9
21311.2
20039.4
22650.7
21897.6
20479.7
20629.9
19736.6
19551.8
24044.2
26645.1
24212.8
26717.3
23581.1
23368.6
23688.8
23473.8
20597.2
20816.9
21082.5
21228
17893.3
17538.5
12424.5
14702.4
17986.4
17101.4
12863
15120.9
17499.7
17454
12275.3
14787.9
17757.2
17407.6
12187.7
14507.3
12280.6
13283.1
4734.93
4860.59
11962.6
12062
5435.48
5655.09
9655.6
9401.17
5936.19
5771.83
19067.9
18088.8
17203.1
16967.9
15431.9
14922.9
11373.4
10437.2
7501.46
5819.62
18605.2
17786.5
19410.8
18428.3
14821.2
13504.6
11137.3
9953.86
6802.45
5271.38
23993.5
23934.8
28347.5
25353.7
25445.5
24560.3
33327.3
27347.1
19559.2
15359.4
20953.1
16469.3
20439.9
15402.7
21823.7
16432.6
22659.8
20939.1
19873.8
19268.6
21123.6
22441
27872.9
29923.4
30164.2
32949.7
23431.1
25242.9
20676.6
21169.4
23153.7
23543.9
12883.5
10342.8
13903.4
10727.3
12530.4
10064.3
13551.2
10406.2
11887.1
9272.79
12783.9
9799.46
13069.9
10095.2
13042.8
10116.4
18786.7
16730.1
20470.6
17245.6
22322.9
20645.9
24052.3
21220.7
18704.7
13882.1
17427.3
13518.1
21877.3
17682.9
23142.6
17971
25457.1
21673.9
26451.4
22008.2
19160.2
14173.5
19671.1
14335.8
11810.6
8821.16
10957.5
7402.32
11096.4
8529.01
10707.5
7304.98
12233.2
9117.88
11141.2
7505.46
12526.8
9378.83
11214.7
7574.83
11238.2
11675.6
9597.04
9253.64
10725.2
11301.3
9253.43
8917.44
10033.6
10466.8
8406.64
8008.12
16625.5
20737.5
14659.6
10351
8112.71
20186.7
17730
16171.7
10520.5
7667.21
20180.3
16566.6
13425.9
10787.9
7315.75
13316.9
15865.9
9868.38
11243.6
12538.3
14362.5
9261.54
10369
11153.4
12162.5
7891.54
8212.02
19525.8
18164.8
15938.9
14897.7
14695.9
15143.9
10824.6
11542.4
7530.92
7608.63
18163.2
15588.6
14916
12873.2
12684.6
11842.8
10249.9
10176.3
6957.69
7784.4
13799.1
11207.3
14057.2
10591
16743.2
12599.7
17620.7
12786.7
11824.3
9705.27
11964.7
10696.6
14599.2
10030.9
14826
10102.1
18901.1
13327.8
19127.8
13542.8
11726
8860.51
11856.8
9078.95
8742.07
8117.72
6075.46
8095.54
9383.2
9083.63
6708.6
8707.57
8431.9
7545.15
5653.35
8009.69
8750.75
7436.5
5733.07
7643.68
20666.2
21712.1
25345.6
21165.3
17953.5
18888.6
23747.4
19943.3
14624.6
15322.4
20517.6
17543.8
16878.1
15953.3
14636.5
14358.7
15781.1
15960.3
13409.1
13060.4
19386
16924.2
13327.8
12818
11717.8
11672.3
12035.1
11909.1
12743.8
12297.8
20449.2
17056.9
6626.69
4077.12
2775.91
2317.48
6819.45
4157.53
2808.89
2343.59
6357.19
3969.58
2720.98
2308.38
6638.74
4068.32
2766.5
2316.15
5908.65
3810.44
2679.25
2232.48
6267.38
3963.02
2763.93
2237.09
6270.27
3889.62
2659.93
2252.42
6190.6
3800.55
2568.82
2188.53
5695.48
3652.48
2614.88
2174.42
4716.8
3235.93
2419.71
2011.52
5430.34
3573.88
2608.33
2073.98
4636.33
3246.72
2423.47
1971.78
5814.59
3672.45
2572.93
2175.06
4738.3
3215.05
2393.42
2004.63
5826.57
3650.61
2529.8
2124.06
4701.45
3178.26
2354.48
1943.27
6216.28
3914.45
2724.18
2240.39
5564.75
3663.2
2636.06
2112.22
5903.89
3814.45
2685.07
2216.23
5263.56
3581.73
2601.53
2105.6
5446.73
3659.72
2639.75
2170.64
4848.5
3456.58
2537.59
2098.57
4975.38
3430.17
2518.01
2095.19
4547.8
3333.94
2487.33
2039.82
4506.83
3241.66
2398.93
1923.28
4428.74
3333.38
2227.84
646.621
2415.16
3114.36
2057.62
642.373
4241.48
3297.01
2222.99
671.248
2376.28
3084.21
2047.25
644.076
3966.05
3218.26
2174.88
648.627
2288.29
3025.17
2006.38
629.388
3935.94
3152.84
2159.32
676.82
2420.82
2973.91
1976.08
629.964
3969.62
3080.37
2149.15
730.062
2545.1
2897.29
1930.56
623.896
3467.55
2851.48
2053.36
674.106
1507.27
2614.06
1840.78
599.769
3771.89
2970.12
2099.02
690.259
1890.32
2755.74
1881.18
609.061
3221.39
2741.85
1976.04
605.655
1225.71
2501.66
1780.93
570.74
3046.71
2671.8
1916.96
572.752
1295.76
2439.4
1734.3
551.562
2010.47
1436.05
947.044
535.519
172.982
1996.67
1431.02
945.288
534.836
172.795
2026.27
1433.46
944.001
533.741
172.418
1994.39
1424.65
940.68
532.347
172.024
2021.08
1429.22
940.365
531.689
171.772
1952.15
1410.95
932.716
528.301
170.801
1935.7
1386.54
919.564
521.985
168.936
1880.24
1359.94
905.744
515.355
166.977
1982.21
1408.26
929.143
526.231
170.151
2026.23
1414.53
929.985
526.293
170.135
2004.05
1423.53
936.19
529.451
171.078
2061.34
1424.32
934.266
528.235
170.691
1944.89
1390.32
920.463
522.203
168.978
1981.18
1396.25
921.499
522.397
169.007
1881.19
1360.43
905.215
514.939
166.842
1923.89
1366.75
906.451
515.269
166.924
2031.93
1443.07
949.205
536.308
173.195
2085.92
1449.67
950.654
536.786
173.321
2042.57
1442.46
947.255
535.053
172.784
2096.12
1449.44
949.044
535.719
172.97
2058.67
1440.9
944.387
533.317
172.224
2119.37
1448.33
946.424
534.119
172.452
2083.73
1436.74
940.518
531.214
171.564
2135.84
1442.34
942.503
532.083
171.81
2084.99
1430.77
937.256
529.614
171.084
11279.9
15111
11243.4
15082.2
11283.2
15082
11670.9
15701
12190.4
17054
11067.7
13567.8
11426.4
14494.1
10995.3
13428.1
10882.5
13433.6
8115.21
1408.66
304.478
67.7702
11.8826
9389.43
2562.49
617.572
138.987
24.1645
8112.55
1369.34
291.89
64.5472
11.2695
9374.57
2538.04
606.278
135.035
23.4311
8141.36
1338.08
280.143
61.3957
10.6724
9415.82
2516.87
593.872
131.233
22.6627
8239.1
1300.88
267.122
58.1989
10.1096
9569.24
2503.85
584.424
128.651
22.2002
8319.22
1269.03
259.818
57.029
9.98258
9740.98
2497.24
583.376
129.337
22.474
7957.36
1442.59
327.542
76.3848
13.8522
8928.91
2557.85
643.528
150.794
27.2068
8129.83
1373.39
297.325
67.2553
11.9736
9265.14
2537.05
614.927
139.882
24.7352
7878.42
1491.01
348.118
82.805
15.2114
8832.9
2576.04
661.408
157.923
28.8999
7839.51
1471.7
344.976
82.6939
15.287
8795.54
2560.08
661.512
159.109
29.269
35624.8
50159.5
44754.2
32614.2
24372.3
28996.9
24180.7
29015.7
27221.6
42415.5
29374.7
46164.4
160.226
175.411
209.253
263.653
340.011
440.182
172.988
188.127
221.627
274.77
349.096
446.909
149.861
144.694
165.225
159.976
199.941
194.801
257.515
254.278
338.924
341.571
447.736
462.399
565.328
731.571
969.164
1334.28
1698.15
1992.35
571.971
731.73
934.288
1174.79
1399.26
1549.74
428.957
629.123
790.215
902.911
960.89
469.388
687.941
863.537
986.195
1049.23
559.521
819.058
1026.94
1171.78
1246.09
704.145
1028.88
1287.8
1467.59
1559.66
906.486
1321.01
1649.49
1876.66
1992.79
1170.47
1699.08
2114.54
2400.73
2546.99
462.964
678.681
852.125
973.356
1035.68
503.22
737.121
924.824
1055.81
1123.08
592.315
866.453
1085.7
1238.3
1316.56
733.377
1070.63
1339.08
1525.33
1620.69
929.976
1353.75
1688.97
1920.75
2039.34
1187.23
1721.15
2140.15
2429.09
2577.1
401.253
588.641
739.587
845.255
899.635
387.424
568.407
714.266
816.409
868.977
442.215
648.34
814.121
930.012
989.591
428.19
627.869
788.559
900.936
958.713
534.755
783.145
982.326
1121.22
1192.5
521.058
763.243
957.585
1093.16
1162.75
687.948
1005.67
1259.28
1435.45
1525.68
679.378
993.362
1244.13
1418.38
1507.62
903.813
1317.6
1645.68
1872.51
1988.39
910.889
1327.96
1658.59
1887.07
2003.71
1190.73
1728.76
2151.43
2442.12
2590.37
1229.49
1784.37
2219.56
2518.17
2670.13
1497.11
2160.32
2675.95
3030.46
3212.34
1924.09
2749.3
3381.34
3818.17
4045.83
2517.24
3533.58
4295.47
4837.26
5133.27
3387.1
4601.77
5486.37
6180.4
6607.85
4188.48
5481.42
6415.14
7268.32
7898.38
4804.32
6102.38
7043.28
8038.84
8863.99
1513.13
2180.51
2698.99
3056.5
3240.77
1923.67
2747.76
3380.04
3818.84
4048.72
2433.62
3431.97
4186.87
4721.35
5011.33
3022.14
4189.81
5060.19
5703.16
6074.07
3552.45
4840.68
5793.81
6539.55
7004.09
3898.8
5250.79
6250.25
7070.19
7608.81
162.808
183.296
223.069
284.33
368.557
477.455
175.645
196.21
235.594
295.219
376.519
481.34
152.36
147.144
172.941
167.569
213.647
208.37
278.534
275.366
368.768
371.894
488.998
506.988
610.677
782.452
1019.78
1373.28
1720.97
1999.22
612.293
775.207
976.182
1208.84
1421.02
1557.11
435.878
639.326
803.132
917.766
976.748
490.611
719.341
903.335
1032.01
1098.19
596.74
874.212
1096.97
1252.51
1332.44
759.942
1111.8
1393.41
1589.64
1690.38
983.725
1436.3
1796.99
2047.76
2176.43
1271.73
1851.16
2310.34
2629.03
2792.72
470.099
689.226
865.495
988.751
1052.13
524.994
769.381
965.77
1103
1173.54
629.97
922.326
1156.74
1320.29
1404.3
788.592
1152.78
1443.82
1646.5
1750.54
1004.21
1464.63
1830.93
2085.54
2216.27
1280.75
1861.66
2321.1
2640.13
2804.29
407.959
598.53
752.093
859.626
914.972
393.996
578.095
726.511
830.472
883.98
462.966
679.006
852.947
974.664
1037.28
448.6
658.011
826.698
944.779
1005.53
571.654
837.771
1051.62
1201.04
1277.84
557.574
817.273
1026.08
1172.03
1247.05
744.651
1089.9
1366.5
1559.33
1658.32
736.257
1077.84
1351.64
1542.58
1640.59
984.594
1438.25
1800.12
2051.74
2180.79
993.035
1450.82
1816.09
2070.07
2200.29
1302.93
1897.55
2369.08
2696.21
2864.07
1350.98
1967.72
2456.76
2795.86
2969.74
1621.04
2348.23
2920.11
3317.29
3522.39
2064.62
2965.76
3666.85
4157.63
4415.27
2660.02
3759.94
4601.83
5209.16
5542.85
3502.7
4795.78
5760.92
6526.39
6997.45
4261.25
5611.58
6606.79
7519.25
8189.94
4828.09
6147.5
7111.97
8132.14
8975.35
1623.24
2347.32
2915.59
3310.83
3515.62
2043.37
2931.37
3621.34
4104.95
4359.65
2550.5
3614.62
4431.11
5015.07
5333.15
3119.1
4345.41
5273.08
5964.16
6363.4
3615.87
4945.24
5939.94
6722.15
7209.25
3920.66
5287.51
6302.32
7136.2
7683.71
4104.97
2901.5
798.311
622.618
766.294
649.412
793.795
3852.7
3738.2
2606.81
3102.2
1541.1
2061.94
1308.01
1476.32
1238.02
3472.72
2112.12
1393.84
1286.22
1558
1352
1057.31
1077.57
1041.7
932.232
1180.27
1105.33
3630.12
2349.81
2481.72
1760.2
1495.86
2063.58
1097.91
894.283
1222.91
8660.18
9028.68
9276.36
11423.3
19750
6520.18
7453.4
8128.27
9544.32
11179.7
2109.1
3034.4
3755.1
4258.34
4521.18
1653.65
2397.24
2982.49
3388.59
3597.89
2033.08
2942.46
3655.34
4148.83
4403.15
1725.73
2503.48
3115.84
3540.03
3758.17
2101.77
3033.27
3761.08
4266.56
4528.56
8857.16
10140.2
10707
12768.6
21118.2
8654.85
10022.5
10847.6
12713.6
16108
6248.87
7760.6
8784.99
10082.7
11346.7
7637.61
9351.62
10223.5
11646.2
13620.4
3950.75
5440.75
6542.69
7383.55
7900.09
5127.4
6728.82
7847.84
8867.38
9653.37
3403.02
4789.26
5837.55
6591.28
7012.18
3807.55
5290.58
6395.46
7213.34
7693.61
3235.55
4583.17
5608.92
6335.38
6730.58
8015.78
9267.09
9837.37
11774.6
19519.3
5190.51
6697.67
7759.84
8867.44
9781.75
3598.79
5010.68
6070.91
6861.2
7324.7
3334.78
4671.63
5683.57
6428.71
6855.28
3965.3
5406.72
6474.77
7338.79
7898.33
3484.96
4836.15
5848.93
6617.94
7067.66
2761.33
3906.71
4782.01
5412.28
5755.74
2822.08
4009.91
4921.06
5568.78
5918.39
2744.49
3932.57
4850.29
5489.65
5825.67
2462.44
3541.61
4380
4962.73
5266.57
3087.86
4381.21
5369.63
6070.65
6451.23
2897.49
4122.89
5063.56
5728.99
6087.15
8020.69
8810.5
9196.04
11188.4
18882.9
5523.95
6730.79
7591.01
8784.25
9969.73
6309.47
7908.83
8699.24
10270.6
11913.4
4402.03
5810.8
6815.43
7765.12
8406.6
3818.48
5208.97
6230.24
7059.22
7561.06
5138.9
6630.17
7623.44
8747.73
9502.95
2867.55
4058.07
4967.8
5621.37
5978.15
2360.56
3391.93
4193.18
4752.17
5044.74
3178.38
4466.94
5444.99
6159.4
6560.67
8427.39
7866.02
6977.38
5832.3
4266.76
1672.51
19412.6
20655.5
22087.6
22752.2
20922.6
21152.7
21252.8
21773.1
16965.4
19546.3
19202.8
19507.3
25593.3
17742.1
27837.4
18277.9
19585.2
20736.8
20992.3
20100.9
21302
20311
21446.2
17508.3
25884.9
19725.1
25171.7
26512.8
21617.2
32149.1
17009.9
18135.9
18848.1
18729
18951
20665.6
18920.3
20700.4
19756.2
24986.7
22168.7
24618.9
27662.1
24251.4
30873.2
15772.1
16811.8
17040.1
16709.7
17924.2
20202.6
17496.4
19850.5
17942.2
22977.3
19989.4
21832.3
24324.1
21386.3
27734
14551.9
15612.9
15621.2
15234.1
17000.1
19678.6
16110.3
18366.3
15883
18668
17948.4
17456.4
21185.5
18068.7
22275.2
13393.8
14426.2
14493.1
14098.9
15565.6
17727.7
14981.6
16907.4
13683.6
15021.3
15647.4
14554.6
18589.4
15194
19378.5
22299.7
22419.5
23201.2
24243.5
22992.4
23642.6
22228.4
23016.8
19167.3
12317.9
20316.3
12146.3
20427.7
16841.5
17443.5
21289.5
21720.5
21542.9
22072.6
22316.2
23061.4
21015.7
21977.5
17021.7
12295
17803.2
12002.2
17654.7
15849.7
16153.7
18649.7
19106.1
19232.5
19298.1
19853
20488.5
19210.9
20523.2
15664
12928.8
16561.9
12326.7
17063.8
14308.9
16643.1
16091.8
16695.3
17064.3
16843.7
17648.4
18302.1
17572.1
18996.8
13741.3
13784.6
14695.4
12962.2
15319
12911.7
17313.4
14384
15119.7
15476.1
15172.9
16207
17401.4
16008.2
17314.6
12712.7
14996.1
14051.3
14867.2
15339.7
14062.5
19388.4
12901.9
13731.3
14269.6
13930
15292.7
16944
14816.4
16347.2
12321.2
16058.3
14085.2
16676.5
15945
14734.8
21398.4
12774.7
6886.98
22721.3
14853
21897.8
18618.7
32246.6
39984.1
49108.1
62218.1
26037.9
22871.8
16030.9
11025.7
10223.7
5693.23
21673.8
19476
19608.9
19373.4
24877.5
23806.8
28774
24705.6
7497.49
5269.22
3874.97
2709.48
11154.3
7181.05
6193.32
4017.75
22105.1
23369.8
19785.1
16049.1
15959.7
12505.3
13548.1
12943.8
18083.4
17782.3
36904.1
40656.3
26383.4
27917.6
19120.3
15051.2
19477.3
13667.7
8275.87
7150.13
6100.42
9133.07
3021.81
4114.74
8230.55
12420.9
5186.49
7130.05
8380.5
14857.5
6403.12
10560.4
1995.16
7081
344.436
5062.52
18473.4
22249.9
19444.3
22059.2
23310.4
23705.9
23823.1
23178
17371.6
21008.8
17324.3
20696.6
19508.2
21910.8
19155.3
21774.6
24036.5
22870.9
24060.9
22697
16324.9
21050.2
14893.3
20958.9
18018.3
19360.2
22690.1
31890.3
18875.7
22387.1
22576.5
34913.7
17044.7
17132.5
22558.8
30243.5
16380.6
15724.7
22520.6
29437
4582.3
5840.6
12487
20586.2
5565.21
6252.68
15650.4
23247.5
6603.28
6885.58
19088.3
26113.7
25267.1
27922.2
21371.7
19624.3
26890.6
28437.3
24661.5
21366.4
18103.7
30504.6
26059
24067.4
20253
20914.7
39525.3
1633.1
2155.88
4435.29
9226.38
2357.36
3275.46
5949.1
10829.2
3530.51
3409.17
7940.98
12823
27706.8
27595.8
23029.7
22006.3
19476.4
17286.5
14241.7
12590.7
11097.4
16551.8
24507.5
22110.2
22666.8
21244.9
19171
17694.8
16567.5
14621.2
13181
18070.2
23316.8
24812.9
24140.9
26490.6
23477.3
21673.7
23827.3
22827.5
21126.9
21351.3
20829.1
20687.4
24552.4
27132.1
24364.4
26861.4
24135.5
23778.6
23852.3
23594.6
20923.7
21181.8
21181.3
21333.8
18174.2
17951.4
12502.4
14928
18340
17684.2
12887
15480.9
17662.6
17684.4
12339.6
14923.2
17813
17481.5
12213.9
14555
1837.88
1492.54
1099.09
1022.44
875.728
865.952
2817.08
1981.36
1541.1
2420.37
2154.77
1858.37
2977.12
2855.52
3021.79
4366.89
3778.18
3444.58
26213.5
23207
21139.6
21887.4
20421.6
19232.3
14982.3
14271
13889.2
10679.4
10065.1
9784.68
7104.31
5203.79
4222.2
20727.7
19001.2
17778
20742.9
19215
18323.6
15483.6
13685.2
12707.3
11189.5
9805.82
9175.55
7465.59
5468.01
4441.58
28708.8
29707.4
30582.8
28046.8
28064.8
28006.5
33517
28822
18149.3
20049.9
18064.5
17916.8
24301.5
21304.1
23797.5
18746.8
26228.3
27334
22417.9
25122
29327.2
25809.2
29190.6
30317.6
30949.3
33186.8
25123
25771
21803.1
21488.2
24919.5
24069.6
16758.9
9597.96
15689.4
10614.7
16282.3
9423
15130.8
10302.2
14879.4
8718.8
14050.6
9788.16
13809.2
10164.7
13264.5
10150.7
22814.7
17972.2
22370.9
18101.7
25518.3
22806.5
25609.3
22442
20629.4
14244.9
21418.4
13765.3
22805.4
18166.8
23419.6
18132.6
26227.5
22307.5
26678
22213
20079.6
14426.4
19936.5
14428.1
12285.1
8526.08
10827.7
6977.9
11339.7
7632.73
10128.5
6396.36
12568.8
9035.88
11136.5
7307.18
12645.5
9371.09
11217.5
7503.06
2711.53
1467.87
5108.73
2927.22
2815.95
1704.66
5193.92
3237.6
3055.27
2260.38
5140.6
3703.3
13576.4
22734.9
8821.73
7995.16
5768.43
23255.4
14943.1
8389.31
7458.97
4512.46
22434.6
16218.9
11878.9
8705.33
5469.19
1033.13
985.692
2034.19
1895.39
1302.75
1018.13
2471.36
2239.67
1828.13
1589.51
2972.88
2666.46
23566.5
22418.1
14981.2
13591.8
9391.53
8930.96
7194.18
6808.55
4163.55
3760.09
20547.8
17564.1
14942.9
12769.8
11145.3
10047.7
7904.63
7492.34
5063.05
5554.5
14141.5
11101.6
14283.2
10466.4
18110.9
13348.4
18392
13131.5
11604.7
9248.76
11483.7
9868.81
14758.3
9979.61
14883.7
10092.1
19296.4
13484.3
19248.9
13588.4
11682.2
8685.51
11873.4
9043.68
8303.44
7496.94
5573.91
7278.68
8418.13
7856.11
5670.66
7177.86
8268.85
7284.37
5424.57
7592.52
8694.52
7352.25
5639.65
7509.56
2209.61
1756.05
1371.01
8222.59
4041.2
3092.17
2074.75
1923.75
1629.99
8700.06
4765.41
3835.68
2571.92
2702.78
2695.8
9192.41
5884.82
5138.62
19949.7
17878.3
16458.4
12618.2
11700.8
11120
9044.25
8561.94
8308.16
7832.09
7306.04
7072.25
10616.3
7698.66
6860.72
14798.4
13124.9
12035.2
11122.9
10006.6
9366.56
9666.83
8583.73
7846.1
9125.48
8033.86
7454.48
13717.5
9591.14
8696.74
5233
3129.4
2202.68
1900.64
5840.94
3361.01
2286.91
1950.59
5084.48
3083.45
2197.32
1923.23
5802.05
3370.49
2313.96
1972.15
4821.38
3022.29
2226.28
1907.49
5644.47
3402.67
2384.41
1956.24
5912.96
3535.72
2391.15
2049.03
6074.66
3678.85
2479.37
2117.39
5124.82
3197.94
2312.35
1939.86
4206.7
2839.45
2171.05
1819.81
4471.81
2910.58
2214.51
1793.89
3799.75
2648.02
2082.49
1735.03
5513.6
3409.57
2389.17
2026.67
4462.17
2990.87
2236.62
1872.72
5736.98
3562.36
2464.22
2070.9
4610.92
3104.87
2299.45
1897.89
4005.03
2739.78
2074.49
1797.7
2722.11
2278.8
1907.51
1656.72
3888.27
2699.49
2073.35
1798.56
2710.13
2274.58
1906.13
1665.61
3711.33
2641.93
2081.66
1791.61
2780.79
2306.44
1913.72
1694.61
3528.86
2553.13
2048.7
1784.04
2808.19
2316.43
1950.14
1700.66
3270.65
2460.51
1971.39
1669.81
1347.28
1847.91
1540.63
481.231
-231.991
1612.27
1361.65
458.055
1513.95
1909.94
1567.8
507.339
13.9637
1685.31
1384.45
466.345
1772.79
2001.79
1592.63
504.577
385.656
1799.38
1410.53
468.717
2139.14
2117.73
1634.17
537.332
825.008
1941.63
1455.63
486.076
2659.4
2275.33
1707.86
600.674
1284.64
2079.22
1500.16
500.304
3019.03
2464.34
1753.72
564.9
1231.13
2240.31
1595.03
521.123
2963.52
2380.4
1715.3
567.049
1283.53
2178.13
1543.75
507.82
3005.79
2526.34
1786.59
532.905
1132.52
2296.65
1632.83
521.64
2992.7
2603.82
1853.32
547.902
1279.34
2375.7
1685.78
535.207
1693.08
1249.95
845.347
485.738
158.118
1699.26
1251.87
846.45
486.308
158.291
1724.59
1260.97
850.326
487.961
158.753
1727.11
1264.8
852.819
489.254
159.15
1742.41
1272.21
855.603
490.325
159.429
1735.2
1282.11
862.002
493.614
160.436
1795.47
1306.12
875.115
500.091
162.383
1827.54
1328.52
888.241
506.704
164.383
1790.87
1296.11
867.735
496.117
161.151
1833.9
1302.46
868.869
496.352
161.189
1756.57
1284.4
861.187
492.842
160.152
1819.69
1295.17
864.88
494.364
160.581
1815.48
1309.71
875.64
500.118
162.369
1855.69
1315.7
876.522
500.224
162.369
1837.66
1333.13
889.855
507.332
164.559
1881.35
1338.37
890.339
507.274
164.52
1686.16
1248.17
844.173
485.111
157.925
1705.74
1248.36
843.53
484.736
157.812
1706.87
1257.01
847.981
486.751
158.385
1724.95
1256.35
846.89
486.163
158.211
1736.6
1268.28
852.7
488.782
158.952
1762.8
1267.31
851.298
488.037
158.73
1780.55
1280.78
857.958
491.099
159.606
1802.02
1277.89
856.037
490.144
159.315
1806.96
1288.87
861.708
492.828
160.111
8993.25
13959.9
9491.61
14357
10260.9
14936
11179.3
15987.4
12173.3
17805.1
11124.3
13721.4
11471.1
14779.5
11039.5
13517
10897.3
13461.2
7250.83
1295.65
285.352
64.2402
11.3389
8631.5
2386.21
581.887
132.188
23.1272
7416.37
1281.01
276.853
61.731
10.8309
8804.63
2398.16
577.015
129.341
22.5441
7703.06
1282.44
270.403
59.5111
10.3724
9120.9
2431.89
574.746
127.334
22.039
8044.39
1276.66
262.518
57.2269
9.9462
9526.17