/*--------------------------------*- C++ -*----------------------------------*\
| =========                 |                                                 |
| \\      /  F ield         | OpenFOAM: The Open Source CFD Toolbox           |
|  \\    /   O peration     | Version:  2412                                  |
|   \\  /    A nd           | Website:  www.openfoam.com                      |
|    \\/     M anipulation  |                                                 |
\*---------------------------------------------------------------------------*/
FoamFile
{
    version     2.0;
    format      ascii;
    arch        "LSB;label=32;scalar=64";
    class       volScalarField;
    location    "1.9";
    object      gradTz;
}
// * * * * * * * * * * * * * * * * * * * * * * * * * * * * * * * * * * * * * //

dimensions      [0 -1 0 1 0 0 0];

internalField   nonuniform List<scalar> 
5712
(
7442.74
22603.6
5648.89
24718.9
3094.62
26166.5
5268.73
41402
8603.52
51980.2
8823.94
36905.6
9422.08
32812.7
9288.94
28201
4363.77
2387.91
13162.8
6242.8
4069.75
1876.33
14171.1
5713.23
5701.61
4217.13
16825.5
12333.4
3822.77
3020.66
16921.9
12845.1
8596.48
3131.95
6541.8
2391.24
2993.88
7995.23
40534
12379.2
12187.3
5616.96
49148.6
15394.9
11343.9
5311.49
26884
8958.53
13714.1
6244.26
21923.7
6965.98
5223.07
2828.19
9035.66
3665.54
4672.6
2937.76
9480.76
3590.73
6232.45
3955.64
5970.98
2518.98
10543.6
3817.51
4146.06
1535.37
12962.1
9815.67
7829.94
7057.79
14341.3
12590.2
7767.22
8292.83
7310.12
6325.81
9624.74
8290.12
5803.9
5014.77
3349.78
2888.89
5740.9
5731.23
3260.43
3268.9
5588.09
4419.93
3246.61
2309.77
6305.41
3555.81
6371.35
6988.77
8455.87
6428.62
9171.7
12004.5
4575.1
1965.97
4074.42
4183.5
2577.2
905.669
1864.23
1605.62
6067.98
12193.7
4400.46
13780.1
6564.46
12332.2
5240.6
14644.8
8598.41
12202.7
7242.86
14862.5
9345.43
11033.2
7368.29
7432.75
8981.89
7280.65
8178.89
11366.7
13335.5
19473.7
9865.28
8119.65
7842.88
9935.71
15687.7
15217.7
14763.8
17785.3
17967.5
14826.9
14871.3
17814.7
17784
13628.3
14172
17043
17264.9
9163.88
9745.71
9119.44
9662.42
11118.2
11214
13076.7
12810.3
16574.3
16842.3
8348.42
9207.45
9544.53
10303.6
10746.3
11739.2
12454.9
13797.2
16428.9
18000.7
9784.49
6684.42
7909.51
7937.96
10871.9
12302.4
8835.83
11621
7316.1
7402.27
9322.08
6706.14
3370.51
5725.48
1372.6
2130.17
5470.38
8602.1
2132.75
3213.22
2865
5059.53
1072.33
1846.32
7000.38
5966.68
7182.48
4519.58
9872.92
7068.8
11267.3
7569.93
3299.48
3802.42
4094.23
2346.24
2517.13
2726.69
2797.49
2122.51
12866.4
8491.14
2788.4
13934.4
8790.93
3043.49
12651.2
8296.51
2834.33
13890.5
8759.15
2975.47
12054.7
7788.83
2614.82
13618
8611.68
2965.62
7023.94
4046.62
1074.68
8454.45
5780.94
1883.66
9795.67
6895.63
2329.72
10893.2
7119.35
2340.9
13149.4
8307.11
2938.71
7701.29
4256.63
1405.41
7646.82
4975.5
1739.87
8676.45
5742.83
1977.64
10316.6
6643.77
2279.54
12486.1
7326.07
2546.13
-500.787
991.01
442.954
2650.66
1816.37
1826.64
4675.47
4083.17
605.483
968.813
641.509
1016.19
341.454
939.108
627.598
1376.34
1882.16
1133.31
3813.98
2707.63
1737.59
2852.99
2939.56
790.802
5974.06
1867.23
-4241.69
-684.171
622.156
647.279
-35.4183
105.635
10258.6
4425.57
2717.13
1586.16
10102.1
4483.49
2963.11
1875.35
9745.87
4891.18
3971.15
2772.46
3054.3
1962.97
1674.56
1501.7
13176.7
11506
5758.55
7362.37
14912.6
13919.8
7254.14
8693.93
5183.22
6253.92
11090.2
9119.28
3648.96
4791.35
2078.53
2768.11
4836.52
5652.46
2768.84
3217.58
2924.59
4114.44
1616.38
2489.75
4581.81
3202.98
5184.29
3420.42
7908
4619.12
6978.57
4488.48
2704.75
2186.08
3592.01
2345.75
1495.03
1367.43
2267.34
1449.87
11901.5
7783.81
5732.06
5866.8
11793.1
7761.7
5656.48
5747.25
11909
7464.11
5744.11
5338.24
13277.5
12956.9
12272.4
9345.15
5274.51
7879.61
9374.89
9782.88
9069.27
6209.68
11216
9936.01
8142.69
6498.14
4143.1
6521.8
6355.79
6466.26
7715.7
6508.71
6173.72
6324.29
7560.67
6236.32
5874.19
6020.82
7252.31
8846.08
8369.09
8113.01
6958
5962.78
5936.79
5655.35
5844.05
5261.19
6853.39
6510.64
7376.83
5363.9
6086.5
4683.26
5333.29
4495.66
5358.34
3977.3
6293.36
4757.41
3815.8
3260.06
1770.44
7387.91
5611.32
5967.79
3793.55
2431.67
1399.81
3599.41
3237.36
4219.65
1851.13
1953.27
1077.93
5549.5
3190.81
2268.08
1564.51
3380.37
1439.67
1714.34
857.8
1990.8
2362.65
2419.68
4071.55
3010.63
3649.97
2898.14
5272.51
2428.6
1738.88
1787.57
2932.75
1081.27
417.725
359.412
717.282
4990.71
2292.42
661.709
5319.93
1423.44
377.669
4884.97
2402.6
752.004
5295.96
1470.17
409.502
4497.15
2235.12
581.431
5058.11
1369.46
312.516
5679.99
3128.13
834.303
4662.78
2524.13
709.403
4446.89
2255.66
649.406
4266.57
2040.9
482.222
4818.79
1219.18
211.839
6280.78
3323.46
1038.24
5308.29
2902.53
958.345
4687.3
2473.94
814.617
4391.34
1831.73
503.874
5048.08
1275
409.447
1684.95
641.254
314.666
30.2763
683.895
274.062
144.823
33.5748
1738.9
685.575
372.285
85.69
826.393
366.123
237.858
110.463
1988.75
816.996
483.655
160.267
1415.68
716.731
398.582
180.974
1041.64
635.307
288.354
89.4482
1079.7
717.513
399.202
213.958
1652.88
776.912
402.773
52.4163
1566.81
714.943
426.297
-14.9358
2079.69
870.282
523.703
129.479
1857.6
766.626
487.764
-33.4703
1252.45
672.964
341.803
50.8024
1217.31
626.456
380.564
67.2861
929.27
580.157
353.009
197.905
848.305
518.86
347.666
192.316
2146.39
782.037
392.517
-36.9339
2225.55
760.57
445.306
-176.812
2137.52
792.397
424.705
-10.0586
2136.05
733.991
443.814
-163.935
2148.5
813.29
490.564
35.7914
1914
664.223
439.682
-111.651
1996.61
782.773
534.594
151.616
2111.08
751.203
562.084
-100.856
1547.93
606.984
421.175
57.5323
1825.87
557.325
335.824
-171.021
714.445
197.859
103.121
-37.4098
1805.96
566.004
344.28
-151.339
729.648
208.716
113.337
-25.7462
1701.75
552.511
356.274
-114.378
705.886
211.393
125.509
-9.18628
1436.59
474.096
341.443
-72.6829
623.515
187.473
134.065
12.1111
1261.49
442.824
328.261
-16.2664
564.832
190.108
148.049
41.4785
984.317
423.771
257.347
22.7311
519.005
260.477
157.494
80.4406
1049.56
387.986
270.559
3.08127
515.251
211.559
149.549
63.8793
872.729
450.182
267.855
66.068
522.646
304.603
178.182
106.873
679.77
430.233
280.349
162.426
482.221
325.353
210.047
151.001
16.4385
9.9905
5.94022
3.63104
2.61453
8.75077
5.09875
3.01173
1.85233
1.34572
33.533
20.0925
11.6888
7.0747
5.0664
33.0195
19.3926
11.0542
6.63027
4.73366
74.5506
45.1201
26.0726
15.7942
11.3339
142.722
82.7083
47.336
28.5213
20.3984
145.512
86.823
50.4186
30.5947
21.9783
155.929
90.8285
52.2753
31.629
22.7305
96.8547
59.9082
35.16
21.4213
15.3387
75.9717
47.0855
27.7112
16.9522
12.1652
101.105
60.087
34.6377
21.0387
15.0899
77.2431
42.4494
24.1176
14.6278
10.4524
107.163
69.7201
41.4584
25.38
18.2618
102.673
64.351
37.9365
23.1907
16.6736
139.075
82.9272
47.965
29.0653
20.8836
133.317
79.9154
46.3126
28.0784
20.1482
9.67761
8.06722
4.9539
3.04693
2.19971
1.80465
3.04948
1.95199
1.22378
0.898868
19.7116
13.583
8.09391
4.94546
3.57336
3.85572
4.29895
2.67732
1.66309
1.22422
29.6471
20.5204
12.1528
7.45228
5.41596
16.5546
10.6767
6.06657
3.62254
2.6275
85.028
49.8341
28.3787
17.2553
12.4619
42.5363
24.79
13.9545
8.43938
6.10839
105.682
54.6061
30.2118
18.119
12.9473
2602.62
4518.87
2459
4387.24
2297.41
4086.24
2245.89
3932.87
2441.67
4473.76
1441.68
2077.75
1985.74
3112.22
960.745
1249.13
381.842
504.39
7692.15
1854.86
426.014
94.5194
23.7157
2052.36
544.788
146.021
32.7531
7.31713
7624.25
1813
413.352
91.0447
22.7392
2121.35
617.803
152.031
35.2926
8.85408
7338.81
1715.26
386.856
84.5563
21.0008
2059.59
597.428
145.86
33.5112
8.32712
6862.67
1572.4
351.397
76.5148
18.9887
1979.71
561.06
134.226
30.3419
7.43388
5994.73
1352.54
301.935
65.9937
16.487
1838.37
497.297
116.285
25.9581
6.30197
3346.57
806.187
186.385
41.6876
10.5974
939.284
238.999
52.1227
10.7948
2.47192
4681.88
1096.23
248.905
54.9801
13.8621
1306.35
341.647
78.2378
17.2506
4.16599
2095.4
517.742
121.452
27.4346
7.0149
602.762
157.043
33.7604
6.67881
1.46349
771.481
192.952
45.6439
10.3868
2.6715
293.511
70.043
14.282
3.83994
0.574743
-1324.36
601.993
4248.23
-3645.63
987.416
1053.28
2642.99
3225.21
2190.46
3532.96
2922.7
4414.81
2794.86
3649.65
1335.92
1946.25
1451.37
1690.4
1012.38
1049.03
2891.53
2261.93
-293.849
-843.021
-919.629
-1234.43
-621.053
12147.5
3301.79
4191.17
3416.33
411.369
36.1237
3359.72
-912.336
-364.56
-750.44
-250.113
5991.67
3125.28
1465.35
818.485
3324.27
1572.72
265.111
450.614
-1038.7
-1011.64
906.495
784.981
9370.96
4598.73
4558
2627.87
3440.23
3259.69
60.0913
-986.825
370.737
2020.79
1774.19
1548.31
1431.4
1078.66
1809.37
1462.91
1184.52
871.87
344.842
-265.06
-221.579
-162.94
-97.3829
-32.0803
-752.379
-628.352
-470.785
-290.99
-98.3744
-821.119
-685.728
-513.06
-316.411
-106.85
-1103.07
-922.37
-691.418
-427.264
-144.448
-549.124
-452.507
-332.846
-201.891
-67.5589
8993.8
8205.72
6971.68
6469.76
5969.83
3031.18
2459.72
2210.86
1841.08
829.764
3415.72
2720.61
2267.84
1782.61
819.213
2644.71
2066.14
1694.65
1262.74
477.431
344.373
242.793
242.825
193.104
99.2723
94.8865
137.299
148.488
118.551
45.5197
2787.4
2225.53
1724.7
1190.13
450.679
-571.086
-299.756
-149.045
-66.186
-21.4135
-289.77
-203.932
-120.148
-54.6602
-13.874
-541.115
-347.582
-202.418
-102.091
-31.4512
-235.111
-201.146
-147.375
-86.067
-27.3565
4126.34
4031.18
3492.92
3417.93
3394.04
2578.08
2027.14
1680.57
1276.92
501.104
1331.72
1153.34
933.915
639.767
232.555
718.52
603.24
479.09
324.743
117.17
2781.83
2216.51
1685.41
1117.3
404.89
1404.91
1177.2
914.717
593.214
196.337
228.269
190.088
153.908
107.214
38.5155
405.46
347.199
275.964
183.249
64.0795
-901.119
-727.942
-527.224
-316.87
-105.511
-891.437
-731.723
-536.234
-324.176
-108.167
800.239
671.434
521.681
341.913
121.03
692.171
579.859
450.327
294.787
103.834
6194.55
4987.11
4390.07
4209.91
3468.94
3596.71
2845.62
2276.68
1678.4
694.243
3613.84
3045.27
2554.03
2087.41
881.934
2097.71
1727.44
1383.46
1000.63
444.75
2947.54
2397.78
1831.72
1197.61
421.203
2722.36
1962.1
1596.12
1169.74
226.164
55.4412
53.8835
56.6224
48.3364
18.3848
-876.511
-725.877
-536.236
-326.083
-109.163
340.241
298.369
249.748
174.792
60.8597
-29445.2
-46035.2
-22289.9
-39124.3
-23679
-54912.1
-31143.6
-66770.5
-16670
-11192.1
-18498.5
-9964.49
-15540.4
-10214.3
-18634.2
-8866.66
-24262.6
-17079.2
-33586
-24243
-19108.2
-14009.1
-28915.4
-21679.8
-14652.8
-14905.3
-10264.6
-9922.87
-12481.1
-13179.5
-43963
-13512.4
-14061.9
-6693.03
-51683.3
-16415.3
-12760.3
-6151.42
-30774.6
-10140.9
-15626.6
-7292.96
-25865.3
-7888.22
-11659.8
-4961.8
-15962.7
-6005.27
-10152
-4540.59
-14764.3
-5271.44
-10574.9
-5115.38
-9029.03
-3453.92
-12758.1
-4537.85
-4996.29
-1851.53
-10492.6
-7584.71
-8562.27
-6394.19
-9085.45
-7758.63
-7600.42
-6655.98
-8565.45
-6280.74
-9912
-7811.24
-6422.93
-4721.46
-3806.31
-2702.5
-5807.07
-4879.16
-3329.89
-2667.43
-6481.35
-4464.91
-3874.06
-2368.85
-7651.07
-4054.48
-6551.05
-7039.32
-9948.92
-6988.08
-9304.98
-11975.6
-5444.6
-2290.09
-4226.73
-4240.82
-3163.26
-1131.82
-1993.31
-1658.01
-10249.3
-13073.8
-5871.09
-14774.4
-10162.2
-12754.5
-6417.98
-15283.7
-11252.6
-12320.6
-7984.29
-14973.2
-6289.51
-3887.16
-8071.89
-9377.66
-9628.23
-5735.59
-7982.31
-11968.5
-13721.7
-19444.3
-5178.87
-5930.51
-7230.75
-9831.85
-15539.5
-13825.8
-11382
-17181
-14252.9
-13422.3
-11677.8
-17197.2
-14366.1
-12272.2
-10871.1
-16255.8
-14271
-8386.92
-7854.17
-8416.71
-7602.98
-9679.64
-8621.81
-11155.6
-9883.67
-15597.3
-14318.8
-6913.59
-7572.5
-7740.6
-7582.46
-8900.04
-8688.01
-10826.5
-10773.5
-15527
-15287.8
-8183.61
-5574.12
-6862.73
-6979.83
-8532.71
-10671.8
-7196.75
-10122.8
-6746.4
-6785.48
-8376.34
-5911.22
-2655.14
-4996.12
-758.252
-1524.28
-4279.77
-7503.79
-1155.62
-2322.57
-2479.76
-4597.95
-724.758
-1453.86
-6719.26
-5599.79
-7031.87
-4309.51
-9332.95
-6485.46
-10965.6
-7098.72
-3105.37
-3537.48
-3976.16
-2198.55
-2322.24
-2484.02
-2679.1
-1978.47
-8297.09
-3204.5
-8870.99
-3087.72
-8494.74
-3184.97
-9306.08
-3429.14
-8138.64
-3001.16
-10063.8
-3976.44
-4431.36
-1056.73
-5308.09
-1904.65
-6170.25
-2404.99
-7483.74
-2835.6
-10027.1
-3888.7
-5376.4
-897.722
-4697.8
-1584.44
-5430.3
-2004.03
-7053.26
-2616.16
-9107.81
-2987.84
-6318.35
-6134.01
-4106.42
-3956.08
-10088.4
-8004.98
-7817.31
-6175.62
-5429.24
-5004.19
-2088.38
-1707.11
-5082.4
-4906.72
-1790.86
-1697.63
-2518.92
-5768.11
-3759.1
-6975.57
-4757.19
-2050.41
-3169.98
-733.286
-6738.48
-2323.2
4091
1244.73
-196.607
-13.515
1043.64
1227.3
-2619.81
-1387.77
-1041.72
-404.533
-2619.21
-1538.25
-1139.33
-390.764
-2871.47
-1841.55
-1252.05
-235.275
-1076.74
292.692
295.745
975.485
-5126.62
-5041.72
-3780.3
-4297.83
-7436.35
-7173.46
-6055.59
-6055.66
-2533.44
-3221.73
-4099.9
-3910.65
-2562.62
-2900.06
-1218.46
-1269.79
-4296.37
-4177.3
-2385.36
-2123.44
-1295.26
-2027.31
-285.425
-728.475
-1603.58
-931.674
-2529.73
-1435
-2697.25
-1938.14
-3121.74
-2196.04
-654.549
-191.146
-1550.63
-569.649
241.201
527.817
-425.782
249.058
-2927.6
-2931.85
-2417.57
-3823.74
-3020.24
-3092.79
-2548.7
-3921.5
-3577.77
-3227.06
-2893.18
-3847.24
-2244.6
-2715.71
-2799.22
-2696.98
-2419.16
-4461.1
-3541.32
-3287.5
-4013.59
-4218.45
-4569.59
-3462.18
-2916.91
-2679.06
-2013.22
-3909.42
-4949.53
-6630.74
-11484.7
-3740.36
-4188.42
-6219.62
-10662.4
-3805.12
-4612.38
-5706.92
-9524.22
-7613.88
-6564.43
-6064.8
-5305.72
-4213.54
-4638.03
-4388.55
-5308.27
-4899.1
-8514.76
-5153.89
-5969.51
-3718.5
-4783.22
-3029.96
-4226.02
-3194.77
-4743.91
-2871.57
-6720.85
-2316.25
-2463.65
-1263.94
-321.744
-4761.45
-4188.25
-3981.43
-2323.91
-594.748
-76.3731
-1559.64
-2071.92
-2551.65
-647.121
-493.761
-10.5769
-3982.1
-1979.02
-973.548
-519.374
-1775.55
-341.782
-223.297
152.209
-502.923
-1394.97
-1353.42
-3635.08
-1481.22
-2901.73
-1984.75
-5266.91
-1035.02
-845.214
-568.618
-2280.19
324.748
495.193
903.081
50.0523
-4153.93
-1364.18
-8406.54
-1166.5
-3583.9
-1493.93
-7928.66
-1155
-3223.34
-962.061
-6554.72
-571.308
-3561
-781.576
-3072.07
-733.532
-3427.58
-1030.16
-3191.19
-524.683
-5880.1
-489.124
-4334.39
-563.25
-3797
-573.139
-3755.27
-737.172
-3780.72
-380.204
-5857.38
-588.107
-635.631
-194.663
-88.1102
123.04
-197.839
-52.2337
-31.3142
32.4129
-611.905
-160.515
-85.4925
117.531
-81.2165
25.2243
-10.834
36.957
-660.252
-134.89
-68.3066
178.49
176.126
239.485
267.465
345.389
654.041
473.792
478.887
455.917
950.368
664.522
528.476
370.362
-266.553
70.3905
177.698
392.972
-255.606
112.361
118.974
433.273
-755.17
-131.722
-39.9841
308.947
-588.089
-27.7076
-30.0964
433.441
183.681
274.371
306.32
412.906
91.1058
253.844
228.853
386.065
563.475
444.292
370.835
312.224
458.658
390.151
300.844
292.165
-1040.62
-324.116
-179.552
220.782
-1417.98
-395.119
-320.898
372.722
-1014.59
-296.045
-184.302
217.542
-1376.02
-374.461
-315.788
360.008
-1009.45
-262.561
-214.89
202.765
-1242.83
-325.588
-307.714
311.984
-687.87
-99.8772
-145.838
229.318
-1166.75
-251.892
-333.159
393.124
-503.65
-32.8848
-53.0114
370.835
-1396.54
-306.544
-260.556
324.961
-611.846
-112.846
-69.6952
87.7568
-1251.29
-261.608
-242.768
312.528
-566.327
-99.0612
-67.1748
83.6648
-1014.69
-181.078
-223.401
275.844
-471.475
-69.3107
-60.9849
78.7777
-790.813
-119.158
-196.816
233.812
-397.497
-52.3329
-61.7547
68.6862
-525.095
-39.7413
-118.468
226.583
-217.604
1.36539
-31.7551
73.1127
-184.044
98.4123
102.141
299.395
144.258
168.79
131.315
163.772
-440.705
-21.4027
-31.4626
245.806
-18.0155
80.7047
41.7099
109.993
118.269
238.132
205.841
316.647
258.472
247.211
199.186
197.819
401.526
350.799
256.577
254.827
360.288
301.399
219.009
187.817
38.0225
13.9142
6.41394
3.57382
2.50907
16.4832
6.47117
3.06358
1.70786
1.18923
55.4672
23.6097
11.9641
6.9327
4.93946
42.5282
20.4734
11.063
6.56675
4.71311
104.581
48.1152
25.4764
14.9426
10.666
159.261
83.9199
46.4009
27.6562
19.8682
166.869
89.7087
49.6884
29.5517
21.1621
165.002
91.9289
51.9473
31.1649
22.3556
134.858
65.1391
34.8677
20.5166
14.7241
110.773
51.3298
27.1859
15.9049
11.3914
130.982
61.3795
32.814
19.248
13.7627
84.4699
41.1056
22.209
13.0357
9.36183
153.989
76.9199
41.5728
24.5034
17.529
138.233
69.4623
37.7142
22.2648
15.9615
153.951
84.8503
47.7666
28.6083
20.5102
149.005
82.2318
46.2189
27.6532
19.8346
41.0438
12.4624
5.42108
2.96677
2.06987
19.1946
4.88516
1.99884
1.05832
0.719789
48.2831
17.3063
8.2521
4.67279
3.28469
20.996
6.0456
2.67945
1.47098
1.0068
61.7433
23.5353
11.6766
6.66747
4.67198
28.896
11.5943
6.0429
3.56184
2.50592
107.018
47.9391
25.4682
14.8186
10.486
51.1148
23.0449
12.3971
7.25265
5.11609
93.8388
49.3384
27.3598
16.226
11.6369
-2933.57
-4443.28
-2803.5
-4351.17
-2588.86
-4052.82
-2452.44
-3865.19
-2464.55
-4213.9
-1399.32
-1984.1
-1961.71
-2965.26
-888.833
-1163.67
-292.205
-416.325
-8252.98
-1964.1
-446.738
-98.3526
-24.5073
-2178.03
-576.004
-153.437
-34.162
-7.57088
-8097.27
-1905.39
-431.048
-94.3399
-23.4244
-2259.3
-654.104
-159.657
-36.7883
-9.16705
-7649.93
-1778.15
-399.289
-86.9287
-21.5034
-2185.57
-628.968
-152.407
-34.7864
-8.59369
-7005.87
-1604.11
-358.16
-77.8768
-19.2892
-2067.11
-583.043
-138.868
-31.2569
-7.62792
-6013.84
-1360.7
-304.192
-66.513
-16.6116
-1871.17
-507.756
-118.723
-26.4655
-6.41413
-3318.75
-801.211
-185.59
-41.5703
-10.5794
-922.507
-236.927
-51.9619
-10.8004
-2.47986
-4655.92
-1093.37
-248.786
-55.0254
-13.8839
-1302.45
-343.635
-78.9749
-17.4334
-4.21152
-2071.34
-512.855
-120.522
-27.2673
-6.98179
-578.126
-152.061
-32.854
-6.52336
-1.43442
-750.213
-188.4
-44.7034
-10.2036
-2.63206
-264.55
-63.4628
-12.9171
-3.57644
-0.519601
658.611
-1599.38
-5583.93
1776.98
-6739.7
-2964.24
-6607.38
-3012.21
-11251.7
-6129.85
-13180.4
-7201.28
-115.069
-454.865
-705.061
-814.626
-714.929
-372.694
-183.391
-695.313
-1056.85
-1173.45
-959.171
-349.569
-90.3793
-87.7369
-329.189
-308.041
-423.175
-407.832
-295.68
-306.459
-187.1
-227.071
-323.377
-250.999
490.086
1736.58
3383.85
2703.2
2454.95
1181.09
729.997
2175.18
3626.04
4022.74
3432.85
1576.02
-103.732
-87.6464
-66.3831
-41.3492
-14.0369
-410.623
-347.569
-263.752
-164.546
-55.9073
-636.398
-538.58
-408.639
-254.917
-86.6122
-734.937
-621.627
-471.395
-293.947
-99.8514
-644.641
-544.857
-412.824
-257.22
-87.332
-336.746
-284.955
-215.723
-134.077
-45.4179
-165.228
-139.512
-105.602
-65.7508
-22.3165
-627.341
-530.667
-402.462
-250.987
-85.2621
-953.262
-806.116
-611.231
-381.148
-129.48
-1057.67
-893.717
-677.23
-422.155
-143.393
-863.763
-729.178
-552.118
-344.013
-116.832
-315.565
-266.913
-202.208
-125.884
-42.7075
-81.5296
-68.949
-52.269
-32.5797
-11.0631
-79.1974
-67.0269
-50.8512
-31.716
-10.7739
-297.283
-251.755
-191.131
-119.278
-40.5312
-278.249
-235.693
-178.981
-111.717
-37.9659
-382.097
-323.519
-245.57
-153.231
-52.0642
-368.256
-311.803
-236.68
-147.687
-50.1823
-267.004
-226.099
-171.618
-107.068
-36.3709
-276.563
-234.015
-177.514
-110.707
-37.6039
-168.911
-142.923
-108.303
-67.4222
-22.866
-204.526
-172.652
-130.638
-81.3024
-27.5827
-291.084
-245.3
-185.005
-114.682
-38.7962
-225.611
-189.897
-143.178
-88.8124
-30.0708
435.153
363.224
274.244
171.828
58.7379
1536.52
1278.77
964.793
605.454
207.33
2959.77
2445.28
1850.89
1176.38
407.577
2351
1962.7
1504.94
975.596
354.99
2147.46
1795.21
1377.35
888.124
310.335
1064.06
905.728
699.796
447.23
152.766
649.587
542.679
408.998
255.285
86.9984
1930.37
1609.67
1213.39
758.993
259.228
3199.74
2658.81
2006.53
1262.02
433.544
3535.06
2935.51
2222.32
1407.49
488.224
3012.57
2501.9
1899.33
1208.07
419.217
1396.27
1170.39
895.142
571.411
198.184
255.082
593.841
841.175
945.542
839.286
509.582
378.307
886.64
1237.46
1330.84
1079.82
431.376
195.911
172.012
429.071
388.93
508.586
478.322
353.898
352.583
235.281
218.258
449.959
284.553
-331.903
-1511.09
-2978.75
-2171.89
-1802.78
-454.663
-670.238
-2079.95
-3401.21
-3615.96
-2832.68
-849.942
230.684
195.696
148.849
93.0364
31.643
536.731
454.974
345.785
215.997
73.4426
760.013
643.991
489.258
305.536
103.873
854.036
723.403
549.411
343.024
116.605
758.058
642.074
487.587
304.379
103.456
461.775
392.308
298.434
186.335
63.3045
342.039
290.072
220.571
137.84
46.8777
801.025
678.676
515.577
321.968
109.46
1117.38
946.166
718.425
448.497
152.455
1200.92
1016.23
771.213
481.316
163.596
973.815
823.534
624.702
389.809
132.491
390.221
330.941
251.477
156.978
53.343
177.196
150.343
114.367
71.4884
24.3144
155.582
132.003
100.413
62.7646
21.3466
387.883
328.889
250.021
156.2
53.1115
351.617
298.154
226.665
141.613
48.1523
459.641
389.621
296.105
184.95
62.8781
432.273
366.393
278.429
173.9
59.1206
319.941
271.31
206.253
128.844
43.8018
318.546
269.917
205.055
128.043
43.5235
213.008
180.889
137.636
85.9958
29.2295
197.146
167.005
126.828
79.166
26.9022
407.029
345.227
262.312
163.699
55.6079
256.99
217.611
165.152
103.017
34.9948
-290.992
-239.7
-179.283
-111.956
-38.28
-1331.57
-1103.77
-830.841
-521.381
-178.674
-2589.74
-2127.33
-1606.15
-1022.35
-354.982
-1854.01
-1524.71
-1158.22
-751.61
-278.406
-1530.31
-1245.81
-936.467
-597.493
-207.693
-373.743
-287.734
-200.267
-114.965
-34.7786
-595.557
-496.889
-374.226
-233.595
-79.6284
-1844.87
-1537.84
-1159.41
-725.678
-247.986
-2995.69
-2484.94
-1873.84
-1179.04
-405.353
-3160.42
-2610.77
-1969.65
-1246.59
-433.077
-2455.16
-2014.14
-1515.57
-960.655
-333.41
-719.294
-575.155
-424.171
-265.999
-91.8442
-1976.15
-1424.19
693.239
1179.61
1246.56
1729.12
1120.24
-10140.2
-1636.02
-3096.63
-1361.27
633.711
-4045.45
948.17
2354.03
810.326
-4993.43
-2051.57
-586.098
-302.547
-2944.28
-781.164
169.918
125.028
1802.29
1730.92
-489.129
-304.908
-8406.41
-3851.23
-3606.61
-1851.83
-2908.15
-2253.9
620.491
1742.3
282.188
-1065.35
-876.448
-766.693
-852.068
-839.245
-991.394
-715.189
-564.404
-445.13
-188.674
632.268
539.516
410.066
254.675
86.1473
1061.54
895.76
678.481
423.139
143.78
1122.78
947.969
717.759
447.185
151.906
1556.38
1313.38
994.363
619.706
210.541
1010.49
854.361
647.193
403.128
136.996
-7262.02
-6893.74
-6141.29
-6260.39
-6570.07
-1131.26
-709.576
-782.805
-876.155
-424.454
-2337.2
-1755.18
-1501.34
-1295.78
-657.118
-917.921
-633.647
-602.629
-543.806
-183.282
563.113
466.311
344.846
209.826
71.1848
-3344.92
-2670.47
-2072.84
-1433.81
-542.902
847.706
708.855
530.247
326.47
109.828
2041.63
1667.53
1250.58
791.881
276.529
730.749
616.196
463.272
285.347
95.6814
-3196.96
-3220.05
-2883.27
-3122.56
-3541.73
-1517.15
-1050.68
-885.387
-753.165
-315.96
-466.664
-363.518
-293.065
-217.467
-83.369
-228.058
-165.543
-130.558
-99.1828
-38.8142
-2451.45
-1946.27
-1492.59
-1009.28
-372.591
-651.157
-501.029
-371.34
-236.606
-69.8081
176.022
164.303
124.74
71.6926
23.3887
132.17
126.023
97.5636
57.535
19.4475
1608.66
1346.29
1013.84
631.084
214.754
1555.68
1310.12
989.242
614.972
208.764
-408.236
-324.921
-247.577
-165.043
-59.7055
-244.111
-186.202
-140.637
-95.9955
-35.1472
-5295.84
-4201.93
-3777.97
-3865.06
-3463.63
-2892.38
-2218.81
-1776.28
-1354.36
-583.722
-2668.9
-2207.6
-1867.49
-1636.5
-707.596
-1364.93
-1074.96
-862.632
-663.9
-333.745
-2452.7
-1964.99
-1492.61
-980.935
-345.564
-1769.16
-1085.29
-889.841
-708.457
-43.6061
578.833
503.499
382.786
234.583
79.6731
1569.85
1325.34
1002.24
623.212
211.495
280.17
257.006
195.327
115.77
41.0028
-88.1866
-187.543
-230.416
-288.514
-424.054
-593.178
-20714.1
-17061.1
-16000.8
-19161
-14601.5
-11213.2
-13386.6
-10182.3
-18298.4
-14573.6
-15402
-13119.5
-13250.6
-10101.9
-12544.9
-17473.6
-15317
-13588.3
-15432.9
-12994
-10089.5
-11539.1
-8671
-16945.2
-14306.6
-15271.2
-13391.7
-13204.3
-11022.1
-12816.5
-13635.7
-12495.3
-10911.6
-11881.1
-10879.2
-9001.43
-9697.37
-8303.11
-14080.7
-12901.5
-13362.7
-12449.9
-12185.9
-10563
-11909
-9381.5
-8997.15
-7769.77
-8085.06
-8328.82
-7801.22
-7402.63
-7368.13
-10172.9
-11270.7
-9849.29
-10818.7
-9402.84
-8572.29
-10269
-6039.03
-5944.17
-5001.63
-5085.73
-5862.17
-5934.37
-4933.66
-5096.11
-7112.13
-8684.94
-6990.63
-8103.53
-6884.14
-6677.89
-7717.97
-2205.89
-2191.21
-1800.24
-1818.7
-2205.26
-2314.09
-1771.92
-1763.2
-2905.14
-3649.37
-2837.96
-3220.4
-2822.66
-2798.95
-3069.72
-7681.82
-7723.29
-10894
-12008.3
-7734.91
-7312.54
-10124.1
-8426.88
-7183.67
-4577.47
-7313.21
-4501.86
-7393.19
-7434.88
-4594.17
-7298.62
-7127.62
-10045.1
-10859.8
-6877.14
-6044.75
-9128.02
-7475.66
-5041.58
-1813.83
-4984.76
-2053.69
-4230.48
-4040.99
-2403.46
-6132.11
-6014.69
-8460.16
-8929.98
-6032.29
-5543.2
-7915.3
-7084.49
-2649.78
-1720.05
-2613.13
-2323.29
-2537.36
-2809.3
-3006.16
-4512.1
-4518.59
-6205.98
-6356.26
-4642.42
-4564
-6092.15
-5974.52
-2735.02
-1594.55
-2935.64
-2541.38
-3198.31
-3755.97
-3462.72
-2803.49
-2814.54
-3954.91
-3996.76
-2751.28
-2748.68
-3922.24
-3864.21
-1529.17
-1177.18
-1723.7
-2009.54
-2187.43
-2678.31
-2713.11
-946.887
-953.858
-1399.72
-1409.39
-948.702
-992.087
-1382.72
-1339.12
-270.737
-490.781
-434.579
-913.818
-747.824
-972.93
-1138.51
7355.47
22138.7
5638.72
24731.3
3090.3
26171.5
5266.57
41400.6
8599.9
51975.7
8816.03
36902.9
9408.32
32808.8
9165.47
27543.4
4361.83
2387.53
13164.2
6243.08
4068.43
1875.91
14170.2
5712.88
5631.91
4165.2
16511.6
12104.2
3813.76
3016.75
16936.6
12862.7
8601.8
3130.27
6543.02
2391.04
2993.78
8002.86
40537
12379.5
12188
5616.86
49148.2
15394.4
11343.9
5311.16
26891
8959.85
13715.8
6244.63
21933.7
6967.68
5182.4
2792.58
8855.52
3586.57
4676.3
2937.76
9496.84
3594.46
6234.82
3956.06
5976.18
2520.6
10549.5
3819.46
4147.51
1535.9
12961.9
9815.7
7830.04
7057.85
14341.4
12590.3
7767.11
8292.82
7310.65
6325.98
9624.79
8290.23
5804.11
5014.82
3349.63
2888.81
5740.83
5731.21
3260.25
3268.83
5588.72
4420.1
3246.64
2309.75
6306.56
3556.3
6371.61
6988.9
8456.6
6428.84
9171.93
12004.5
4576.18
1966.41
4074.65
4183.63
2577.46
905.797
1864.26
1605.65
6075.2
12222.8
4382.88
13807.3
6569.93
12324
5242.83
14636.5
8599.16
12199.7
7242.63
14859.5
9345.48
11033.5
7368.4
7433.64
8981.72
7280.7
8178.78
11366.2
13334.6
19472.2
9865.41
8119.68
7842.9
9935.76
15687.6
15243.3
14775.8
17816.8
17947.5
14820.2
14868.3
17807.9
17787
13625.5
14170.4
17040.7
17265.2
9163.84
9745.57
9119.18
9662.12
11117.5
11213.5
13075.1
12809.4
16573.3
16842.2
8348.36
9207.33
9544.31
10303.4
10745.9
11738.8
12454.4
13796.8
16428.8
18000.6
9784.38
6684.36
7909.47
7937.93
10871.8
12302.3
8835.8
11620.9
7316.1
7402.29
9321.95
6706.11
3370.52
5725.47
1372.58
2130.16
5470.38
8602.06
2132.74
3213.21
2865.03
5059.55
1072.32
1846.32
7000.43
5966.72
7182.54
4519.6
9872.85
7068.83
11267.3
7569.93
3299.54
3802.45
4094.28
2346.25
2517.15
2726.7
2797.5
2122.51
12864.5
8483.01
2790.69
13920.8
8777.73
3037.83
12647.8
8294.22
2833.02
13891.1
8758.33
2974.68
12053.4
7787.85
2614.38
13618.2
8611.29
2965.32
7023.79
4046.5
1074.64
8454.18
5780.73
1883.59
9795.22
6895.29
2329.59
10892.6
7118.91
2340.73
13149.4
8306.86
2938.54
7701.16
4256.53
1405.37
7646.62
4975.34
1739.8
8676.18
5742.62
1977.55
10316.4
6643.56
2279.45
12486
7325.85
2546
-502.711
990.358
438.227
2649.75
1814.96
1826.04
4672.64
4082.37
595.363
965.316
629.454
1008.63
343.975
941.124
630.353
1378.13
1885.2
1134.89
3814.4
2707.87
1739.4
2856.14
2939.15
791.041
5973.65
1867.08
-4240.39
-682.837
622.481
648.041
-33.248
107.283
10243.7
4421.95
2711.71
1581.14
10100.6
4484.96
2962.75
1877.18
9744.99
4891.47
3971.75
2773.76
3055.46
1964.12
1675.95
1502.64
13177
11506.1
5758.39
7362.36
14912.9
13919.9
7253.93
8693.89
5183.29
6253.93
11089.9
9119.09
3648.94
4791.41
2078.79
2768.28
4836.37
5652.44
2768.83
3217.62
2924.88
4114.58
1616.88
2490.02
4581.97
3203.31
5184.28
3420.45
7907.49
4618.89
6978.24
4488.17
2705.22
2186.57
3592.19
2345.94
1495.68
1367.94
2267.66
1450.14
11901.9
7796.86
5737.28
5875.83
11790.9
7758.08
5654.91
5740.66
11906.9
7462.01
5742.7
5335.35
13277.7
12957.4
12271.9
9344.03
5273.67
7879.73
9374.87
9782.24
9067.82
6208
11216.2
9936.04
8142.4
6497.62
4142.58
6530.36
6357.81
6470.76
7709.63
6505.79
6170.92
6317.59
7557.58
6234.63
5873.04
6018.01
7251
8846.12
8369.02
8112.92
6957.86
5962.4
5936.48
5654.56
5843.47
5259.86
6852.74
6510.67
7376.77
5363.89
6086.42
4683.09
5333.12
4495.31
5358.08
3976.69
6293.01
4757.46
3815.8
3260.08
1770.44
7388
5611.32
5967.81
3793.54
2431.64
1399.79
3599.32
3237.31
4219.68
1851.16
1953.35
1077.98
5549.5
3190.82
2268.11
1564.54
3380.42
1439.69
1714.45
857.855
1990.74
2362.61
2419.62
4071.51
3010.43
3649.87
2897.89
5272.39
2428.65
1738.9
1787.64
2932.78
1081.4
417.787
359.549
717.358
4988.01
2290.23
662.494
5318.92
1425.91
378.124
4883.05
2404.08
752.71
5294.91
1471.66
410.235
4496.58
2235.52
581.677
5057.65
1369.73
312.702
5679.9
3128.06
834.276
4662.67
2524.09
709.387
4446.72
2255.67
649.421
4266.23
2040.9
482.215
4818.57
1219.24
211.878
6280.7
3323.4
1038.21
5308.21
2902.48
958.319
4687.2
2473.89
814.595
4391.18
1831.64
503.822
5047.97
1275
409.467
1679.52
637.705
311.151
27.7669
677.913
270.764
142.241
32.0326
1739.67
685.876
372.527
85.8419
827.193
366.452
238.129
110.626
1988.89
817.062
483.745
160.35
1416.04
716.887
398.741
181.047
1041.98
635.461
288.483
89.5054
1080.12
717.727
399.326
214.009
1653.03
776.992
402.848
52.4697
1566.85
714.986
426.346
-14.8846
2079.6
870.265
523.747
129.551
1857.45
766.591
487.788
-33.4114
1252.68
673.085
341.884
50.8496
1217.44
626.545
380.632
67.336
929.545
580.31
353.101
197.952
848.494
518.982
347.745
192.365
2148.28
781.982
391.074
-38.8073
2230.18
761.824
445.217
-178.047
2136.82
792.127
424.613
-10.0718
2133.12
732.997
443.351
-163.825
2147.87
813.069
490.511
35.8567
1912.68
663.759
439.515
-111.568
1996.21
782.638
534.6
151.703
2110.33
750.939
562.023
-100.777
1547.69
606.909
421.192
57.6117
1832.97
559.803
337.048
-172.027
718.889
199.295
103.713
-37.7174
1802.71
564.965
343.844
-151.187
729.289
208.661
113.371
-25.7039
1700.28
552.034
356.149
-114.271
705.414
211.259
125.5
-9.1277
1435.93
473.873
341.396
-72.6275
623.233
187.382
134.053
12.1477
1261.18
442.722
328.252
-16.222
564.684
190.06
148.047
41.5071
984.303
423.785
257.376
22.7719
518.988
260.487
157.516
80.472
1049.44
387.952
270.566
3.11973
515.175
211.539
149.558
63.9081
872.795
450.241
267.903
66.1118
522.69
304.646
178.219
106.908
679.9
430.329
280.412
162.471
482.315
325.428
210.097
151.039
15.6768
9.54997
5.6672
3.44895
2.47154
8.29155
4.82024
2.8297
1.72381
1.24112
33.5922
20.1287
11.704
7.07913
5.06453
33.074
19.4252