/*--------------------------------*- C++ -*----------------------------------*\
| =========                 |                                                 |
| \\      /  F ield         | OpenFOAM: The Open Source CFD Toolbox           |
|  \\    /   O peration     | Version:  2412                                  |
|   \\  /    A nd           | Website:  www.openfoam.com                      |
|    \\/     M anipulation  |                                                 |
\*---------------------------------------------------------------------------*/
FoamFile
{
    version     2.0;
    format      ascii;
    arch        "LSB;label=32;scalar=64";
    class       volScalarField;
    location    "1.9";
    object      T;
}
// * * * * * * * * * * * * * * * * * * * * * * * * * * * * * * * * * * * * * //

dimensions      [0 0 0 1 0 0 0];

internalField   nonuniform List<scalar> 
5712
(
540.006
556.656
527.076
547.022
509.818
532.833
483.136
508.132
486.667
511.91
511.392
536.276
522.757
545.497
533.437
553.09
500.874
484.625
518.247
493.145
474.684
457.12
490.956
464.42
547.761
554.393
560.849
564.165
537.926
546.627
553.392
558.557
536.785
523.906
511.271
504.095
537.871
548.493
538.255
543.858
501.203
508.316
514.558
520.375
472.431
478.608
549.739
554.726
520.585
530.026
560.116
565.806
559.094
567.183
566.73
570.562
552.072
564.552
561.79
568.753
542.47
560.06
551.606
564.766
558.176
567.042
562.137
568.461
470.957
456.363
478.416
459.599
437.483
424.469
445.249
428.392
505.673
487.661
499.171
484.339
483.54
461.793
486.515
462.957
450.702
430.995
453.807
432.379
510.542
489.907
513.335
491.032
531.178
558.103
515.567
547.358
525.266
554.196
511.545
543.899
535.3
560.042
517.941
549.35
537.494
560.851
518.993
550.572
554.595
544.474
564.154
556.59
546.832
536.671
560.887
552.368
535.523
524.741
555.202
545.463
455.912
417.295
490.25
517.201
546.933
415.975
453.859
485.957
511.446
538.3
415.26
450.787
480.318
506.095
536.941
524.282
505.617
528.197
510.405
519
500.347
526.175
507.981
510.249
492.088
522.555
504.19
408.969
395.911
446.535
433.555
476.44
460.851
499.067
481.933
519.034
500.559
407.774
393.361
442.163
428.394
470.45
455.424
494.526
477.734
516.435
497.327
441.093
430.188
440.23
429.386
406.862
386.581
405.713
383.424
469.875
461.388
470.191
460.768
439.743
428.42
440.419
429.236
405.719
382.187
406.834
383.754
469.407
460.664
470.108
461.459
496.824
488.731
519.891
512.528
496.177
486.865
518.898
509.359
496.482
488.186
520.065
513.179
496.714
488.537
520.04
512.704
483.975
465.979
456.116
487.055
468.31
458.293
479.359
461.033
451.18
484.389
464.921
454.616
470.391
451.597
441.406
480.01
459.455
448.654
379.019
366.696
360.38
415.782
399.384
390.519
441.887
423.243
412.787
460.627
441.431
431.1
474.956
453.111
441.531
375.256
362.322
355.271
412.063
397.068
389.173
437.159
419.877
410.622
455.768
435.836
425.128
469.269
447.286
435.891
412.938
399.583
416.821
403.901
442.288
426.197
450.798
432.463
384.636
364.294
385.88
366.271
385.513
364.792
387.295
367.357
385.412
382.2
384.876
378.415
363.775
367.969
406.676
409.574
436.842
440.718
386.996
389.37
387.418
389.156
370.35
371.96
342.577
323.508
348.112
326.78
344.115
323.255
349.582
326.985
345.232
322.777
351.947
327.659
355.015
329.854
357.118
331.633
378.108
366.372
385.348
371.316
404.985
391.827
413.17
396.866
364.479
351.129
357.092
346.512
389.433
374.264
391.886
375.877
418.041
399.884
420.861
401.422
368.243
353.928
370.344
355.529
346.94
324.98
335.326
319.391
340.434
320.908
331.539
316.696
350.67
327.733
337.794
321.226
352.846
329.655
339.36
322.436
325.19
314.392
316.882
309.876
326.367
316.031
316.621
310.032
327.882
319.586
316.193
310.865
358.141
382.245
341.015
329.743
315.369
380.273
354.688
335.105
323.27
311.305
380.527
356.624
339.031
326.356
313.526
305.794
297.738
302.643
294.882
308.233
300.089
303.641
296.054
312.474
304.73
305.333
298.044
373.458
360.936
347.867
336.817
329.978
321.651
318.168
310.41
307.521
300.638
373.22
360.299
350.194
339.333
333.305
324.27
320.93
312.508
310.22
303.29
353.277
339.858
354.398
339.255
374.623
358.091
375.57
355.929
337.587
325.669
336.374
325.515
355.374
338.841
356.786
340.258
376.889
354.279
378.402
355.757
338.527
325.863
339.746
327.017
323.46
313.935
312.677
303.909
323.13
313.26
311.963
303.69
323.726
314.647
313.08
303.966
325.251
315.396
313.755
305.13
287.914
282.513
280.405
281.548
277.808
276.56
290.842
285.091
282.691
282.754
278.848
277.424
295.536
289.439
286.991
284.633
280.372
278.855
347.178
337.55
332.959
326.193
318.764
315.504
311.976
305.532
302.981
300.612
294.297
291.711
286.452
282.054
280.306
345.582
335.24
330.226
327.375
318.668
314.413
313.56
306.118
302.659
301.264
295.229
292.853
287.629
283.362
281.225
308.26
298.697
292.703
287.994
309.679
299.258
292.974
288.044
308.149
298.724
292.8
288.133
309.906
299.453
293.198
288.249
307.888
298.727
292.957
288.36
310.201
299.728
293.497
288.512
311.359
300.404
293.782
288.62
312.507
301.147
294.113
288.751
309.234
299.501
293.468
288.689
307.13
298.799
293.075
288.818
307.323
298.632
293.04
288.61
305.845
298.166
292.754
288.776
310.68
300.253
293.781
288.746
308.204
299.396
293.365
288.919
311.82
300.931
294.131
288.924
309.105
299.959
293.707
289.145
305.911
297.825
292.326
287.994
303.161
296.84
291.853
288.059
305.762
297.815
292.373
288.103
303.193
296.886
291.894
288.151
305.507
297.788
292.445
288.293
303.477
297.054
292.015
288.321
305.093
297.727
292.494
288.538
303.636
297.179
292.142
288.537
304.587
297.621
292.451
288.732
300.668
296.03
291.304
288.408
299.249
295.642
291.061
288.539
301.058
296.189
291.403
288.486
299.697
295.817
291.158
288.611
301.701
296.466
291.568
288.617
300.449
296.125
291.322
288.736
302.489
296.806
291.815
288.813
301.392
296.52
291.558
288.906
303.501
297.255
292.113
289.021
302.324
296.942
291.802
289.083
304.929
298.121
292.535
289.332
303.62
297.809
292.298
289.458
304.271
297.673
292.318
289.181
303.069
297.385
292.05
289.271
305.531
298.584
292.75
289.469
304.168
298.264
292.537
289.641
306.244
299.1
293.057
289.683
304.882
298.772
292.844
289.872
283.59
280.66
278.588
277.278
276.645
283.603
280.667
278.593
277.28
276.647
283.647
280.687
278.603
277.286
276.651
283.671
280.703
278.612
277.291
276.655
283.708
280.717
278.619
277.295
276.657
283.77
280.757
278.642
277.309
276.667
283.912
280.837
278.687
277.337
276.687
284.048
280.918
278.734
277.365
276.707
283.843
280.79
278.659
277.319
276.674
283.87
280.795
278.66
277.319
276.674
283.774
280.75
278.636
277.305
276.664
283.827
280.77
278.646
277.311
276.668
283.926
280.839
278.687
277.336
276.687
283.95
280.842
278.687
277.336
276.686
284.071
280.927
278.738
277.367
276.709
284.091
280.928
278.737
277.366
276.708
283.578
280.652
278.584
277.275
276.643
283.576
280.648
278.581
277.273
276.642
283.622
280.673
278.594
277.281
276.647
283.615
280.666
278.59
277.278
276.645
283.681
280.699
278.607
277.288
276.652
283.671
280.69
278.602
277.285
276.65
283.746
280.729
278.623
277.297
276.659
283.728
280.717
278.616
277.293
276.655
283.79
280.751
278.635
277.304
276.664
536.9
532.15
536.223
531.44
534.937
530.154
533.401
528.431
532.166
526.874
533.128
530.087
532.555
528.747
533.422
530.55
533.729
530.839
565.369
571.317
572.619
572.915
572.979
559.042
569.614
572.232
572.832
572.959
565.489
571.373
572.635
572.919
572.98
559.011
569.654
572.247
572.837
572.96
565.502
571.415
572.649
572.923
572.981
558.848
569.673
572.26
572.841
572.962
565.551
571.463
572.662
572.926
572.981
558.622
569.669
572.265
572.843
572.962
565.604
571.483
572.665
572.926
572.981
558.432
569.628
572.251
572.838
572.96
564.459
571.061
572.545
572.895
572.972
557.924
569.239
572.117
572.8
572.949
564.907
571.247
572.601
572.91
572.977
558.09
569.418
572.184
572.82
572.955
564.164
570.937
572.506
572.884
572.969
557.833
569.137
572.075
572.787
572.945
564.298
570.959
572.507
572.883
572.968
557.942
569.145
572.069
572.784
572.943
420.309
458.982
455.994
417.964
399.362
401.222
406.588
409.785
419.6
422.873
446.236
453.366
450.649
457.464
428.111
430.698
418.839
421.291
410.226
412.229
360.053
342.307
298.481
293.171
297.03
293.691
298.034
359.384
353.209
335.565
342.287
336.465
315.744
325.609
320.493
310.562
313.614
309.057
353.919
328.446
313.17
310.971
317.249
313.199
305.919
305.971
304.017
301.3
307.916
306.325
354.303
333.52
340.004
323.318
317.123
328.73
306.754
300.689
309.684
344.545
330.146
317.503
303.935
285.383
332.16
321.359
309.961
297.248
281.746
295.904
292.302
287.601
282.096
276.089
291.175
288.353
284.633
280.252
275.464
294.623
291.236
286.795
281.588
275.915
291.64
288.742
284.923
280.43
275.523
295.512
291.976
287.352
281.936
276.034
343.94
328.326
314.973
301.297
284.386
337.554
322.665
309.796
296.751
281.566
326.33
315.988
304.994
293.212
280.074
329.023
315.965
304.331
292.637
280.048
324.714
312.546
301.646
290.744
279.192
310.625
304.066
296.164
287.343
277.874
318.365
309.815
300.236
289.891
278.786
314.229
306.583
297.803
288.279
278.186
306.349
300.745
293.767
285.857
277.358
308.823
302.612
295.065
286.63
277.619
305.082
299.739
293.031
285.398
277.2
340.473
326.262
313.738
300.509
283.932
321.2
312.472
302.594
291.667
279.469
308.608
302.599
295.181
286.773
277.681
306.782
301.185
294.18
286.171
277.478
312.068
305.389
297.304
288.168
278.182
308.732
302.795
295.416
286.971
277.753
302.45
297.707
291.645
284.616
276.947
302.494
297.733
291.642
284.596
276.938
300.777
296.307
290.552
283.896
276.694
298.399
294.362
289.122
283.023
276.401
304.143
299.029
292.554
285.132
277.115
302.79
297.959
291.791
284.675
276.962
340.508
326.761
314.588
301.484
284.298
325.356
316.015
305.667
294.046
280.454
330.962
319.463
308.166
295.673
280.49
317.306
309.679
300.666
290.428
278.958
312.101
305.521
297.483
288.307
278.209
321.65
312.848
302.953
291.908
279.403
303.176
298.296
292.072
284.873
277.033
297.856
293.914
288.795
282.828
276.336
305.699
300.332
293.568
285.797
277.349
502.572
543.274
494.615
533.161
470.562
512.996
477.91
524.264
485.295
474.262
513.061
488.79
460.813
448.432
486.902
461.032
520.354
534.935
551.754
557.705
514.362
529.121
545.188
552.557
530.638
508.147
506.744
493.781
524.321
543.161
536.536
543.492
499.322
507.855
513.048
519.997
470.988
478.23
547.899
554.371
518.742
529.59
558.699
565.587
547.85
563.346
562.856
569.252
541.343
561.039
557.907
567.475
533.861
557.283
547.764
563.486
556.777
566.531
561.859
568.35
467.925
457.039
476.561
459.977
437.145
427.798
444.809
430.172
503.19
487.246
494.825
483.489
482.681
462.044
486.293
463.058
450.51
431.946
453.769
432.703
509.399
489.754
513.03
491.002
528.85
557.247
514.962
547.118
520.962
552.615
510.322
543.425
534.246
559.643
517.683
549.248
537.215
560.741
518.925
550.545
536.28
523.383
558.074
549.29
529.634
517.322
555.57
546.095
521.843
510.287
551.166
541.115
458.612
428.711
486.431
511.166
544.668
428.9
456.723
480.861
503.763
535.557
425.263
453.805
479.19
503.908
536.151
503.651
488.105
519.445
505.488
500.217
484.543
519.149
504.51
496.215
481.066
518.257
503.059
421.644
411.057
449.413
438.332
472.281
459.154
492.907
478.698
516.995
501.307
417.969
404.931
446.332
435.257
470.908
459.275
493.83
480.365
516.362
499.733
444.292
434.798
442.43
432.372
413.162
394.361
409.606
388.33
470.939
463.161
471.378
463.375
440.987
430.058
440.819
429.744
407.727
384.634
407.46
384.504
470.096
461.709
470.34
461.793
497.3
489.723
520.184
513.126
496.484
488.357
519.143
510.352
496.851
488.801
520.286
513.538
496.854
488.752
520.116
512.82
476.4
470.221
492.735
486.777
472.54
465.772
491.225
483.954
468.936
461.837
488.643
479.368
400.122
394.119
427.916
420.654
448.536
440.378
466.517
458.02
484.9
473.574
390.244
385.331
424.916
418.675
448.014
440.234
465.925
455.969
479.618
468.332
404.849
396.891
413.314
403.368
431.92
420.644
447.532
430.471
386.092
367.727
390.585
371.247
384.245
367.668
389.297
371.373
386.352
381.034
386.314
379.569
367.232
371.231
406.731
409.648
436.051
440.517
387.9
389.753
388.451
389.542
372.472
372.75
353.877
335.061
355.946
335.924
354.519
334.052
356.334
335.006
354.625
332.402
357.272
334.035
358.198
333.807
358.207
332.995
383.774
374.835
388.09
376.038
407.868
398.255
414.347
400.31
368.804
356.606
365.314
355.834
390.854
376.756
392.321
376.701
418.632
401.674
421.046
402.015
370.497
356.886
371.037
356.511
352.518
330.544
340.907
324.376
350.233
329.323
340.568
324.164
353.638
330.946
340.897
324.109
353.763
330.694
340.406
323.398
350.201
346.909
332.82
329.277
350.573
347.357
331.604
328.107
350.001
346.972
329.727
326.465
378.18
400.649
360.387
346.89
327.028
401.551
378.879
359.868
345.189
324.967
396.636
373.922
355.116
340.219
323.588
342.951
336.905
323.644
313.933
343.708
338.119
322.995
313.768
343.416
337.766
321.93
313.305
394.841
385.426
373.437
365.735
356.15
350.409
341.494
335.109
321.546
313.733
389.283
376.969
368.189
357.966
350.385
341.74
335.598
327.069
320.796
313.655
363.722
350.358
360.422
345.335
383.949
368.133
380.985
361.918
343.622
331.357
346.64
335.315
358.414
341.806
357.728
341.158
379.578
357.194
379.228
356.64
341.631
328.664
340.723
327.879
328.89
318.772
317.359
307.769
332.292
321.495
319.287
309.985
326.633
317.134
315.667
305.986
326.236
316.203
314.536
305.732
330.494
327.863
296.183
293.542
333.393
330.218
296.893
294.056
331.929
327.426
297.428
294.003
376.297
370.967
358.347
354.09
343.55
339.551
327.261
322.495
297.659
293.577
364.587
360.61
347.52
343.758
331.919
328.32
315.935
313.04
295.82
292.644
316.136
303.612
295.86
289.988
316.59
303.74
295.925
289.933
315.546
303.366
295.787
290.014
316.026
303.461
295.86
289.958
314.523
302.931
295.698
290.108
315.155
303.016
295.703
289.921
314.558
302.576
295.223
289.503
313.642
301.929
294.639
289.085
313.325
302.226
295.319
289.912
310.806
301.282
294.788
290.036
312.992
302.272
295.451
290.185
311.036
301.549
294.983
290.272
313.184
301.965
294.983
289.585
310.408
300.924
294.456
289.74
312.672
301.522
294.546
289.208
309.844
300.478
294.082
289.43
315.166
303.304
295.743
290.144
313.653
302.839
295.468
290.373
314.592
303.089
295.67
290.18
313.194
302.68
295.395
290.398
313.654
302.725
295.553
290.273
312.471
302.398
295.287
290.457
312.256
302.155
295.322
290.384
311.716
302.08
295.167
290.526
311.028
301.682
295.033
290.435
311.864
302.384
295.006
290.983
310.595
302.144
294.832
291.27
311.639
302.286
294.989
290.986
310.409
302.048
294.807
291.26
311.197
302.083
294.922
290.969
310.052
301.857
294.73
291.229
310.76
301.823
294.875
290.967
309.7
301.603
294.653
291.195
310.2
301.47
294.782
290.945
309.177
301.272
294.526
291.136
308.565
300.634
294.224
290.61
307.201
300.342
293.991
290.772
309.465
301.1
294.552
290.825
308.236
300.848
294.3
290.995
307.68
300.124
293.808
290.293
306.255
299.804
293.586
290.465
306.945
299.614
293.414
289.963
305.555
299.281
293.194
290.149
284.682
281.276
278.938
277.488
276.796
284.657
281.266
278.933
277.485
276.794
284.658
281.255
278.924
277.479
276.789
284.614
281.236
278.915
277.474
276.786
284.626
281.231
278.909
277.47
276.783
284.53
281.187
278.886
277.456
276.773
284.388
281.108
278.842
277.429
276.754
284.235
281.025
278.795
277.402
276.734
284.504
281.163
278.871
277.446
276.766
284.529
281.166
278.87
277.446
276.765
284.587
281.205
278.893
277.46
276.775
284.581
281.191
278.884
277.454
276.771
284.404
281.112
278.843
277.43
276.754
284.428
281.116
278.843
277.43
276.754
284.234
281.021
278.792
277.4
276.732
284.261
281.026
278.794
277.4
276.733
284.715
281.287
278.943
277.49
276.798
284.745
281.295
278.946
277.492
276.799
284.703
281.273
278.933
277.484
276.793
284.735
281.283
278.938
277.487
276.795
284.684
281.253
278.92
277.476
276.787
284.719
281.264
278.925
277.479
276.789
284.652
281.228
278.905
277.466
276.78
284.68
281.239
278.91
277.469
276.782
284.617
281.208
278.893
277.459
276.775
532.784
528.764
532.877
528.831
532.826
528.764
532.461
528.172
532.133
527.449
533.38
530.456
532.791
529.257
533.601
530.781
533.791
530.915
564.755
571.216
572.6
572.912
572.978
558.058
569.417
572.195
572.826
572.958
564.994
571.291
572.62
572.916
572.979
558.222
569.492
572.216
572.831
572.959
565.186
571.361
572.638
572.921
572.98
558.365
569.567
572.239
572.837
572.961
565.412
571.437
572.657
572.925
572.981
558.442
569.62
572.253
572.84
572.961
565.596
571.479
572.663
572.926
572.981
558.468
569.621
572.248
572.838
572.96
564.513
571.071
572.547
572.895
572.972
558.033
569.261
572.121
572.801
572.949
564.954
571.254
572.602
572.91
572.977
558.203
569.435
572.186
572.82
572.955
564.204
570.946
572.508
572.884
572.969
557.908
569.154
572.078
572.788
572.945
564.312
570.962
572.508
572.883
572.969
557.968
569.151
572.07
572.784
572.943
420.117
458.555
454.433
416.876
410.162
416.577
407.989
415.845
437.64
454.087
441.601
457.188
278.889
279.435
280.654
282.599
285.3
288.778
279.35
279.892
281.092
282.983
285.597
288.976
278.511
278.323
279.067
278.876
280.321
280.136
282.386
282.273
285.27
285.365
289.051
289.557
292.995
298.341
305.414
315.064
323.274
329.264
293.179
298.342
304.546
311.424
317.394
321.218
278.328
277.522
276.44
275.151
273.732
278.821
277.939
276.757
275.349
273.799
279.921
278.87
277.464
275.79
273.949
281.677
280.355
278.59
276.492
274.187
284.11
282.41
280.147
277.462
274.517
287.237
285.047
282.14
278.703
274.938
278.745
277.875
276.709
275.318
273.789
279.234
278.289
277.023
275.514
273.855
280.317
279.204
277.717
275.947
274.002
282.022
280.646
278.81
276.628
274.234
284.376
282.633
280.314
277.566
274.552
287.412
285.191
282.248
278.77
274.961
277.987
277.233
276.221
275.014
273.685
277.816
277.088
276.111
274.945
273.662
278.489
277.658
276.544
275.215
273.754
278.316
277.512
276.433
275.146
273.73
279.621
278.617
277.272
275.67
273.908
279.454
278.476
277.165
275.603
273.885
281.485
280.193
278.468
276.416
274.161
281.383
280.108
278.403
276.375
274.148
284.084
282.389
280.131
277.452
274.513
284.17
282.462
280.186
277.486
274.525
287.484
285.255
282.297
278.8
274.971
287.939
285.638
282.586
278.979
275.031
291.016
288.221
284.535
280.193
275.444
295.781
292.203
287.533
282.059
276.078
302.021
297.377
291.421
284.491
276.909
310.394
304.235
296.588
287.776
278.047
317.33
309.859
300.886
290.614
279.081
322.291
313.855
303.984
292.725
279.867
291.177
288.353
284.635
280.256
275.466
295.781
292.205
287.538
282.065
276.081
301.276
296.778
290.98
284.218
276.816
307.312
301.77
294.742
286.589
277.633
312.497
306.037
297.975
288.656
278.356
315.794
308.746
300.041
289.996
278.831
278.985
279.732
281.175
283.386
286.399
290.237
279.45
280.197
281.622
283.764
286.655
290.325
278.604
278.414
279.356
279.161
280.837
280.647
283.185
283.074
286.421
286.539
290.673
291.326
294.815
300.47
307.7
317.121
324.725
329.791
294.793
300.141
306.369
313.015
318.491
321.61
278.415
277.596
276.497
275.186
273.744
279.09
278.168
276.932
275.458
273.836
280.395
279.274
277.772
275.983
274.015
282.391
280.964
279.056
276.784
274.287
285.109
283.263
280.8
277.872
274.657
288.566
286.183
283.013
279.252
275.126
278.835
277.952
276.767
275.355
273.801
279.511
278.524
277.203
275.627
273.894
280.797
279.614
278.03
276.144
274.069
282.731
281.25
279.272
276.919
274.333
285.338
283.455
280.944
277.962
274.687
288.64
286.242
283.055
279.278
275.135
278.071
277.304
276.276
275.048
273.697
277.899
277.158
276.165
274.979
273.673
278.751
277.881
276.714
275.322
273.79
278.574
277.731
276.6
275.251
273.766
280.089
279.015
277.576
275.861
273.973
279.917
278.87
277.466
275.792
273.95
282.21
280.812
278.941
276.712
274.263
282.11
280.728
278.877
276.673
274.249
285.13
283.283
280.815
277.882
274.66
285.238
283.374
280.885
277.926
274.675
288.961
286.519
283.269
279.412
275.18
289.551
287.019
283.648
279.649
275.26
292.678
289.646
285.633
280.886
275.681
297.732
293.885
288.834
282.884
276.361
304.131
299.21
292.851
285.405
277.224
312.315
305.927
297.928
288.644
278.348
318.702
311.081
301.867
291.261
279.309
322.794
314.307
304.351
292.971
279.955
292.65
289.618
285.609
280.871
275.676
297.428
293.624
288.634
282.76
276.319
302.952
298.229
292.109
284.936
277.063
308.784
303.054
295.748
287.234
277.856
313.517
306.933
298.681
289.113
278.515
316.16
309.069
300.297
290.162
278.889
360.885
343.042
301.114
295.275
300.307
296.264
301.124
368.189
366.191
344.549
356.976
322.909
334.461
317.066
321.553
315.216
359.758
334.67
319.087
316.033
322.742
317.487
309.042
310.015
309.347
305.784
313.401
311.061
356.888
335.599
344.323
326.32
320.809
333.592
310.435
304.402
314.161
345.426
330.982
318.243
304.505
285.618
332.887
322.031
310.526
297.646
281.893
298.32
294.387
289.217
283.122
276.442
293.096
290.003
285.904
281.055
275.738
297.625
293.824
288.797
282.858
276.351
293.991
290.762
286.48
281.414
275.86
298.346
294.422
289.246
283.139
276.447
353.619
337.717
323.22
307.376
286.896
352.049
336.411
321.695
305.395
285.028
335.426
324.499
312.144
298.144
281.896
345.332
331.005
317.039
301.611
283.55
317.515
310.286
301.193
290.658
279.042
327.244
318.048
307.058
294.504
280.456
312.488
306.203
298.12
288.69
278.346
316.386
309.393
300.515
290.206
278.875
310.883
304.891
297.134
288.064
278.128
346.634
332.181
318.908
304.296
285.489
327.278
318.042
307.185
294.763
280.582
314.209
307.594
299.177
289.381
278.593
311.532
305.386
297.517
288.335
278.231
317.289
310.067
301.069
290.643
279.052
312.755
306.357
298.247
288.81
278.393
305.341
300.229
293.621
285.883
277.384
306.244
301.01
294.214
286.247
277.508
305.701
300.593
293.904
286.042
277.435
302.522
297.931
291.897
284.791
277.009
309.27
303.548
296.127
287.439
277.915
307.192
301.816
294.823
286.625
277.636
343.218
329.299
316.795
303.123
284.98
327.375
317.852
307.183
295.079
280.83
335.28
323.448
311.512
297.983
281.28
320.16
312.234
302.727
291.788
279.432
315.573
308.605
299.946
289.915
278.769
326.369
317.143
306.479
294.273
280.236
306.593
301.284
294.418
286.38
277.554
301.272
296.874
291.097
284.294
276.84
309.881
304.015
296.48
287.68
278.002
279.451
291.831
303.049
312.763
320.546
326.4
483.247
477.927
454.128
459.45
469.887
463.199
446.376
437.449
503.356
521.026
499.256
516.308
493.742
484.492
511.267
472.922
469.054
446.158
450.243
462.394
457.478
439.685
432.745
492.462
506.435
489.838
503.182
485.356
477.724
499.323
458.503
456.126
434.849
437.65
451.371
448.592
429.957
424.836
476.122
490.097
474.513
488.12
471.737
466.522
485.577
443.991
442.409
422.9
425.048
438.908
437.193
418.864
414.434
460.704
474.649
459.646
473.088
457.441
453.104
470.986
433.525
432.162
414.159
416.128
428.781
426.858
410.231
405.255
449.022
461.726
448.273
461.126
446.399
442.295
459.484
426.279
424.965
408.246
410.154
421.621
419.613
404.411
399.532
440.236
453.17
439.52
453
437.977
434.131
451.364
403.577
400.656
427.019
430.806
396.785
389.577
421.328
412.271
380.378
360.972
377.982
360.404
372.871
371.536
359.44
399.373
396.508
421.26
424.538
392.761
385.905
416.086
407.954
375.36
358.743
372.86
358.458
368.3
367.385
357.43
393.174
390.523
412.685
415.336
387.022
380.985
408.308
401.564
373.186
357.181
370.926
356.32
366.676
365.688
354.733
386.228
383.57
403.136
405.478
379.555
373.125
399.015
392.159
369.103
354.447
366.624
352.752
362.086
360.285
350.136
381.158
378.489
396.159
398.413
374.563
368.111
392.081
385.205
365.896
352.994
363.098
350.068
358.158
355.513
346.192
378.049
375.357
391.562
393.784
371.484
365.005
387.54
380.859
364.797
351.543
361.759
347.763
355.966
352.728
343.291
540.649
557.085
527.074
546.993
509.819
532.823
483.142
508.132
486.676
511.912
511.403
536.27
522.775
545.485
534.295
553.67
500.872
484.623
518.241
493.142
474.686
457.121
490.957
464.42
548.219
554.731
561.135
564.374
537.918
546.61
553.361
558.527
536.773
523.898
511.265
504.09
537.859
548.479
538.253
543.858
501.201
508.315
514.558
520.375
472.431
478.608
549.736
554.725
520.582
530.024
560.113
565.805
559.358
567.302
566.894
570.628
552.051
564.547
561.766
568.746
542.458
560.056
551.596
564.762
558.172
567.041
562.136
568.46
470.955
456.362
478.413
459.597
437.483
424.468
445.249
428.391
505.67
487.659
499.167
484.336
483.538
461.791
486.514
462.956
450.702
430.994
453.806
432.379
510.539
489.905
513.333
491.031
531.174
558.101
515.565
547.357
525.26
554.194
511.543
543.897
535.298
560.041
517.939
549.35
537.492
560.851
518.992
550.572
554.852
544.715
564.297
556.747
546.803
536.637
560.879
552.357
535.508
524.728
555.198
545.459
455.91
417.295
490.246
517.194
546.93
415.974
453.857
485.953
511.439
538.298
415.259
450.785
480.315
506.092
536.94
524.487
505.784
528.338
510.513
518.985
500.329
526.186
507.987
510.24
492.08
522.557
504.192
408.968
395.91
446.533
433.554
476.437
460.849
499.062
481.929
519.033
500.559
407.773
393.36
442.161
428.393
470.447
455.423
494.524
477.732
516.434
497.327
441.092
430.187
440.229
429.385
406.861
386.581
405.712
383.424
469.874
461.387
470.189
460.766
439.742
428.419
440.418
429.235
405.719
382.187
406.834
383.754
469.406
460.664
470.107
461.459
496.823
488.73
519.891
512.527
496.175
486.864
518.897
509.359
496.481
488.185
520.064
513.178
496.713
488.536
520.04
512.703
484.145
466.164
456.319
487.169
468.45
458.45
479.348
461.025
451.176
484.393
464.926
454.623
470.386
451.594
441.406
480.012
459.457
448.658
379.019
366.696
360.38
415.781
399.383
390.519
441.885
423.242
412.786
460.625
441.43
431.1
474.956
453.112
441.532
375.256
362.322
355.271
412.063
397.068
389.173
437.158
419.877
410.622
455.767
435.835
425.128
469.269
447.286
435.891
412.946
399.586
416.829
403.904
442.295
426.2
450.803
432.465
384.51
364.24
385.723
366.194
385.499
364.78
387.281
367.347
385.41
382.197
384.877
378.415
363.771
367.965
406.678
409.576
436.844
440.719
386.997
389.372
387.419
389.158
370.349
371.961
342.525
323.5
348.047
326.763
344.114
323.247
349.581
326.98
345.23
322.773
351.945
327.656
355.014
329.853
357.119
331.633
378.11
366.373
385.35
371.317
404.987
391.828
413.171
396.866
364.479
351.13
357.092
346.513
389.434
374.265
391.887
375.878
418.041
399.884
420.862
401.422
368.243
353.929
370.345
355.53
346.94
324.979
335.326
319.391
340.434
320.906
331.539
316.696
350.67
327.733
337.794
321.226
352.847
329.655
339.361
322.437
325.148
314.328
316.874
309.851
326.368
316.035
316.614
310.028
327.882
319.588
316.19
310.865
358.142
382.245
341.016
329.743
315.368
380.274
354.689
335.106
323.271
311.305
380.527
356.625
339.032
326.357
313.527
305.714
297.649
302.618
294.85
308.243
300.1
303.647
296.063
312.478
304.736
305.336
298.049
373.458
360.936
347.868
336.818
329.98
321.653
318.17
310.414
307.522
300.641
373.22
360.299
350.195
339.334
333.306
324.271
320.931
312.51
310.221
303.292
353.278
339.858
354.398
339.255
374.623
358.092
375.57
355.929
337.588
325.669
336.374
325.516
355.375
338.841
356.787
340.258
376.889
354.279
378.402
355.757
338.527
325.864
339.747
327.017
323.461
313.936
312.677
303.91
323.13
313.26
311.964
303.691
323.726
314.648
313.08
303.966
325.251
315.396
313.756
305.131
287.831
282.436
280.33
281.541
277.794
276.544
290.86
285.107
282.705
282.768
278.859
277.433
295.545
289.446
286.997
284.639
280.377
278.86
347.179
337.551
332.96
326.195
318.766
315.506
311.979
305.534
302.983
300.616
294.301
291.715
286.455
282.057
280.308
345.583
335.241
330.227
327.376
318.669
314.414
313.562
306.12
302.66
301.266
295.23
292.855
287.631
283.364
281.226
308.261
298.694
292.697
287.986
309.67
299.25
292.963
288.034
308.146
298.723
292.799
288.133
309.906
299.452
293.198
288.248
307.887
298.726
292.957
288.36
310.2
299.728
293.496
288.512
311.358
300.404
293.782
288.62
312.507
301.148
294.113
288.751
309.233
299.501
293.468
288.688
307.13
298.799
293.075
288.818
307.323
298.631
293.04
288.61
305.845
298.166
292.754
288.776
310.679
300.253
293.781
288.746
308.204
299.397
293.365
288.919
311.82
300.931
294.132
288.924
309.105
299.96
293.707
289.145
305.914
297.825
292.323
287.988
303.156
296.837
291.85
288.055
305.759
297.814
292.372
288.103
303.192
296.886
291.894
288.15
305.506
297.788
292.444
288.293
303.477
297.054
292.015
288.321
305.093
297.727
292.494
288.538
303.637
297.179
292.142
288.537
304.587
297.621
292.451
288.732
300.664
296.027
291.301
288.404
299.238
295.637
291.057
288.536
301.061
296.191
291.403
288.485
299.701
295.818
291.158
288.61
301.702
296.467
291.568
288.617
300.451
296.126
291.322
288.735
302.49
296.807
291.815
288.813
301.393
296.521
291.558
288.905
303.502
297.255
292.113
289.021
302.324
296.942
291.802
289.083
304.93
298.122
292.535
289.332
303.621
297.809
292.298
289.458
304.271
297.674
292.318
289.181
303.07
297.385
292.05
289.271
305.531
298.584
292.75
289.469
304.169
298.264
292.537
289.641
306.244
299.1
293.057
289.683
304.882
298.772
292.844
289.872
283.588
280.659
278.588
277.277
276.645
283.599
280.666
278.592
277.28
276.647
283.647
280.687
278.603
277.286
276.651
283.671
280.703
278.612
277.291
276.655
283.708
280.718
278.619
277.295
276.657
283.77
280.757
278.642
277.309
276.668
283.912
280.837
278.688
277.337
276.687
284.049
280.918
278.734
277.365
276.708
283.843
280.79
278.659
277.319
276.674
283.87
280.795
278.66
277.319
276.675
283.774
280.75
278.636
277.305
276.665
283.827
280.77
278.646
277.311
276.668
283.926
280.839
278.687
277.336
276.687
283.95
280.842
278.687
277.336
276.687
284.071
280.927
278.739
277.367
276.709
284.091
280.928
278.738
277.367
276.708
283.576
280.651
278.583
277.275
276.643
283.574
280.647
278.581
277.273
276.642
283.622
280.673
278.594
277.281
276.647
283.615
280.665
278.59
277.278
276.645
283.681
280.699
278.608
277.288
276.652
283.671
280.69
278.602
277.285
276.65
283.746
280.729
278.623
277.297
276.659
283.728
280.717
278.616
277.293
276.656
283.791
280.751
278.635
277.304
276.664
536.957
532.214
536.239
531.456
534.945
530.161
533.404
528.434
532.167
526.875
533.127
530.087
532.555
528.747
533.422
530.55
533.728
530.839
565.405
571.326
572.621
572.915
572.979
559.068
569.621
572.234
572.833
572.959
565.502
571.378
572.636
572.919
572.98
559.025
569.659
572.249
572.838
572.96
565.507
571.417
572.649
572.923
572.981
558.856
569.677
572.261
572.842
572.962