/*--------------------------------*- C++ -*----------------------------------*\
| =========                 |                                                 |
| \\      /  F ield         | OpenFOAM: The Open Source CFD Toolbox           |
|  \\    /   O peration     | Version:  2412                                  |
|   \\  /    A nd           | Website:  www.openfoam.com                      |
|    \\/     M anipulation  |                                                 |
\*---------------------------------------------------------------------------*/
FoamFile
{
    version     2.0;
    format      ascii;
    arch        "LSB;label=32;scalar=64";
    class       volVectorField;
    location    "1.8";
    object      flux;
}
// * * * * * * * * * * * * * * * * * * * * * * * * * * * * * * * * * * * * * //

dimensions      [0 1 -1 1 0 0 0];

internalField   nonuniform List<vector> 
5712
(
(-0.325128 0.526061 0.300411)
(-0.397498 0.289067 0.912159)
(-0.742264 0.91542 0.228075)
(-1.16061 0.599867 0.997324)
(-1.12217 0.88189 0.124902)
(-2.18958 0.750531 1.05534)
(-0.77473 1.29779 0.212455)
(-2.33167 1.61027 1.66876)
(-0.798982 1.97669 0.346822)
(-1.86939 2.50595 2.09487)
(-0.982727 1.04808 0.355847)
(-1.61679 0.921543 1.488)
(-0.751517 0.645106 0.380068)
(-0.994851 0.444867 1.32328)
(-0.404347 0.426113 0.374762)
(-0.410767 0.242645 1.13758)
(-0.531239 0.871973 0.175974)
(-0.603048 0.78191 0.0966041)
(-0.726469 0.789397 0.531)
(-0.659215 0.778868 0.252327)
(-0.503874 1.00061 0.164085)
(-0.758344 0.956233 0.0757824)
(-0.751018 1.15819 0.571266)
(-0.751492 0.993185 0.230494)
(-0.213746 0.308819 0.230307)
(-0.155752 0.215345 0.170654)
(-0.289687 0.161016 0.6795)
(-0.207913 0.111313 0.498829)
(-0.485438 0.448881 0.154423)
(-0.316993 0.28864 0.122302)
(-0.896511 0.249116 0.683355)
(-0.62697 0.161462 0.519481)
(-0.745934 0.89108 0.347434)
(-0.757673 0.94127 0.126697)
(-0.759758 0.796472 0.264915)
(-0.772256 0.644382 0.0971314)
(-0.177358 0.641792 0.121388)
(-0.156941 0.503523 0.323562)
(-1.73268 0.545339 1.63476)
(-2.14223 0.521144 0.499097)
(-0.922631 0.727328 0.491835)
(-1.23059 0.715556 0.22637)
(-2.22987 1.48614 1.98094)
(-2.74441 1.6376 0.620207)
(-1.03271 1.06127 0.457278)
(-1.27088 1.12349 0.213692)
(-1.2998 0.771034 1.08518)
(-1.69882 0.606971 0.361531)
(-1.03708 0.784464 0.553762)
(-1.43511 0.550283 0.251972)
(-0.597226 0.333346 0.885757)
(-0.755176 0.288174 0.281344)
(-0.123039 0.250622 0.213378)
(-0.0390652 0.3779 0.115474)
(-0.15959 0.124817 0.366395)
(-0.0554182 0.171247 0.148835)
(-0.275493 0.332029 0.191353)
(-0.113456 0.503239 0.120044)
(-0.475778 0.209112 0.384344)
(-0.174918 0.28818 0.145807)
(-0.314145 0.337842 0.254758)
(-0.104319 0.601924 0.16162)
(-0.315101 0.258255 0.242376)
(-0.0893616 0.427155 0.10248)
(-0.618267 0.080365 0.426644)
(-0.180307 0.286262 0.154646)
(-0.809772 0.0137898 0.167677)
(-0.254239 0.20459 0.062158)
(-1.03943 0.741309 0.525727)
(-0.595525 0.8931 0.399007)
(-0.878149 0.781415 0.31704)
(-0.606636 0.886116 0.286311)
(-1.06092 0.934864 0.579326)
(-0.683794 0.950027 0.508936)
(-0.841366 0.956649 0.313512)
(-0.679188 0.929743 0.334852)
(-0.683319 0.699154 0.296792)
(-0.493062 0.845728 0.257578)
(-0.751174 0.696429 0.3922)
(-0.476101 0.832797 0.338573)
(-0.852911 0.784499 0.234567)
(-0.628031 0.880574 0.202988)
(-0.881561 0.770558 0.135016)
(-0.644176 0.875368 0.116562)
(-0.824654 0.965917 0.231355)
(-0.693776 0.917988 0.231048)
(-0.857018 0.967323 0.130976)
(-0.707463 0.911355 0.131381)
(-0.704692 0.657327 0.226315)
(-0.521604 0.847584 0.179527)
(-0.759458 0.599769 0.13117)
(-0.540805 0.84404 0.0935543)
(-0.753613 0.727365 0.256453)
(-0.310375 0.783175 0.144726)
(-0.431344 0.915902 0.259736)
(-0.493512 1.29029 0.284307)
(-0.811528 0.762242 0.345056)
(-0.358757 0.906821 0.262181)
(-0.428988 0.911588 0.374732)
(-0.51788 1.41441 0.489131)
(-0.755274 0.68792 0.18559)
(-0.289135 0.692533 0.0798729)
(-0.451049 0.910387 0.16579)
(-0.485568 1.22275 0.169922)
(-0.78075 0.661073 0.10431)
(-0.290827 0.635396 0.0367287)
(-0.473919 0.908765 0.0757333)
(-0.489439 1.18971 0.065177)
(-0.119047 0.188894 0.249308)
(-0.134178 0.240075 0.499733)
(-0.041972 0.515882 0.180371)
(-0.0839807 0.847192 0.564448)
(-0.343028 0.225843 0.269751)
(-0.4032 0.254195 0.505107)
(-0.141749 0.636199 0.214728)
(-0.271494 0.947458 0.599492)
(-0.557838 0.267792 0.352481)
(-0.662612 0.279396 0.499132)
(-0.254008 0.775603 0.296382)
(-0.456763 1.06301 0.607723)
(-0.711399 1.01506 0.380313)
(-0.373669 1.1183 0.4461)
(-0.727396 0.861356 0.302263)
(-0.879341 0.792972 0.305377)
(-0.445512 1.09135 0.367511)
(-0.271464 1.1385 0.294432)
(-0.434863 0.989488 0.333092)
(-0.507405 0.860673 0.464263)
(-0.893532 0.730867 0.545636)
(-0.57717 1.23994 0.795604)
(-0.412039 1.04319 0.399293)
(-0.542817 0.965388 0.330868)
(-0.604821 0.814426 0.321018)
(-0.589349 0.844507 0.406544)
(-0.737406 1.60393 0.639958)
(-0.131291 0.0672285 0.623715)
(-0.134332 0.0886698 0.60532)
(-0.0817046 0.182806 0.72885)
(-0.0870605 0.380071 0.736843)
(-0.389069 0.095059 0.607303)
(-0.36926 0.132648 0.609214)
(-0.252566 0.241128 0.729677)
(-0.255831 0.440904 0.728897)
(-0.582937 0.142556 0.557531)
(-0.530551 0.137681 0.579903)
(-0.374049 0.321737 0.697464)
(-0.374672 0.521093 0.706965)
(-0.391236 1.1078 0.370527)
(-0.436561 1.10068 0.394248)
(-0.618038 0.922431 0.371148)
(-0.655838 0.879189 0.393576)
(-0.697384 0.782571 0.453041)
(-0.655667 0.692466 0.457917)
(-0.832709 0.573208 0.533775)
(-0.762438 0.505564 0.523801)
(-0.581654 0.449032 0.677325)
(-0.579308 0.671304 0.689038)
(-0.529472 0.980103 0.337344)
(-0.571302 0.882175 0.372611)
(-0.683869 0.908098 0.387212)
(-0.620304 0.849186 0.419473)
(-0.646693 0.769777 0.437243)
(-0.536795 0.708801 0.479325)
(-0.582041 0.667377 0.507717)
(-0.462103 0.587639 0.564005)
(-0.652329 0.532828 0.670137)
(-0.516513 0.731569 0.735934)
(-0.575072 0.935255 0.395584)
(-0.303305 0.99463 0.270363)
(-0.452168 0.968817 0.319583)
(-0.436965 1.0626 0.320127)
(-0.633652 0.939993 0.438194)
(-0.733215 0.867037 0.494695)
(-0.647117 0.954621 0.356016)
(-0.840231 0.913954 0.467157)
(-0.382193 0.849416 0.296456)
(-0.373914 0.857975 0.299345)
(-0.522126 0.837211 0.378012)
(-0.230374 0.830883 0.272153)
(-0.43771 0.985546 0.136623)
(-0.68724 1.08846 0.230781)
(-0.453332 0.978259 0.0554565)
(-0.734906 1.07787 0.0857606)
(-0.657072 0.967357 0.220342)
(-1.03124 0.952309 0.345542)
(-0.679685 0.956325 0.0856386)
(-1.05659 0.945229 0.128866)
(-0.371803 0.841224 0.11667)
(-0.605578 0.851121 0.204501)
(-0.385452 0.851735 0.0436234)
(-0.657513 0.857366 0.0746002)
(-0.458839 0.73223 0.284244)
(-0.338511 0.722843 0.242085)
(-0.591132 0.504395 0.292051)
(-0.263483 0.602465 0.184092)
(-0.495787 0.739035 0.401157)
(-0.178386 0.7121 0.287564)
(-0.559028 0.520297 0.458324)
(-0.128458 0.625528 0.308504)
(-0.47751 0.711449 0.134385)
(-0.487965 0.711944 0.154223)
(-0.619503 0.497656 0.16654)
(-0.317707 0.601927 0.0956824)
(-0.431414 0.717471 0.102079)
(-0.563738 0.703738 0.110306)
(-0.569514 0.492498 0.11336)
(-0.405028 0.58693 0.0859772)
(-0.125089 0.0756697 0.528078)
(-0.115841 0.061136 0.348826)
(-0.0989777 0.0447911 0.114725)
(-0.0809455 0.0415847 0.571879)
(-0.0788734 0.0354076 0.361145)
(-0.0685296 0.0349018 0.125099)
(-0.337358 0.113803 0.518979)
(-0.288523 0.0795176 0.340738)
(-0.24962 0.0615443 0.116605)
(-0.221619 0.0971636 0.56971)
(-0.1837 0.086222 0.359744)
(-0.153662 0.0740607 0.12232)
(-0.439848 0.119846 0.49407)
(-0.369022 0.114199 0.319656)
(-0.334779 0.120438 0.107378)
(-0.319453 0.175603 0.558032)
(-0.254156 0.151274 0.35351)
(-0.227682 0.137446 0.121808)
(-0.389524 1.04174 0.284935)
(-0.311618 0.918076 0.164739)
(-0.293361 0.833791 0.0440451)
(-0.609518 0.871362 0.344695)
(-0.447256 0.809702 0.235832)
(-0.359595 0.760439 0.0769095)
(-0.553671 0.597282 0.40056)
(-0.399935 0.566746 0.281924)
(-0.306308 0.550205 0.0953028)
(-0.618725 0.427112 0.446216)
(-0.478511 0.400862 0.292014)
(-0.398489 0.388548 0.096129)
(-0.486367 0.285897 0.538325)
(-0.326595 0.208186 0.340658)
(-0.239985 0.168144 0.120527)
(-0.728673 0.823829 0.311689)
(-0.58556 0.751834 0.172794)
(-0.514839 0.70135 0.0572206)
(-0.537961 0.825942 0.312283)
(-0.42003 0.761724 0.203598)
(-0.343453 0.724325 0.0713764)
(-0.478884 0.617462 0.355414)
(-0.354346 0.543179 0.235584)
(-0.274286 0.502969 0.0813212)
(-0.431678 0.447278 0.422722)
(-0.317355 0.390127 0.272522)
(-0.247388 0.363973 0.0936557)
(-0.471911 0.299762 0.511345)
(-0.278991 0.218255 0.300654)
(-0.170239 0.176526 0.104634)
(-0.463786 1.15299 -0.0201525)
(-0.755119 1.19195 0.0396045)
(-0.394198 1.2291 0.0175223)
(-0.563851 1.12621 0.10605)
(-0.37908 1.12839 0.0731523)
(-0.779428 1.12473 0.0734452)
(-0.318001 1.34861 0.18819)
(-0.639779 1.15832 0.164206)
(-0.00683609 0.734137 0.0242458)
(-0.0688608 0.804946 0.0386499)
(0.0104606 0.732501 0.0256866)
(-0.0405924 0.720383 0.0405373)
(-0.142359 0.974432 0.0136391)
(-0.26893 0.854213 0.0374442)
(-0.0896038 0.954572 0.0250575)
(-0.163336 0.752397 0.0548807)
(-0.0740757 1.0531 0.074904)
(-0.156956 1.09663 0.0452172)
(-0.442561 0.899624 0.152297)
(-0.658164 1.00715 0.108258)
(-0.350035 1.17563 0.0692347)
(-0.262279 1.03571 0.113498)
(-0.472597 1.17284 0.1176)
(-0.413344 1.21867 0.0308501)
(-0.636973 1.2445 0.240266)
(-0.682318 1.33509 0.0745477)
(0.0229418 1.00922 -0.171334)
(0.224229 1.03565 -0.0288218)
(-0.338158 0.875521 0.0240632)
(-0.236791 0.863158 0.0248566)
(-0.265459 1.00041 -0.00253779)
(-0.152785 0.966607 0.00278513)
(-0.063247 0.672115 0.409199)
(-0.0404267 0.385989 0.175393)
(-0.0512671 0.629886 0.108294)
(-0.0315794 0.426578 0.0628321)
(-0.155486 0.652548 0.402885)
(-0.0492198 0.378195 0.177583)
(-0.0777492 0.60694 0.118047)
(-0.00961582 0.413457 0.0742423)
(-0.39944 0.596231 0.388322)
(-0.118383 0.349964 0.193408)
(-0.301904 0.563622 0.157796)
(-0.0931431 0.392837 0.109403)
(-0.343963 0.554076 0.121307)
(-0.103493 0.407905 0.0773773)
(-0.389649 0.532327 0.0657557)
(-0.128137 0.407336 0.0587687)
(-0.49562 0.914141 0.528011)
(-0.489061 0.718724 0.460864)
(-0.385784 0.897291 0.230446)
(-0.48464 0.724637 0.294688)
(-0.756017 1.02312 0.59983)
(-0.679947 0.913114 0.559803)
(-0.618878 1.02787 0.291626)
(-0.64621 0.899393 0.349443)
(-0.28415 0.827156 0.206495)
(-0.371235 0.56977 0.249195)
(-0.331457 0.857898 0.442799)
(-0.342825 0.550052 0.36367)
(-0.361464 0.915382 0.145699)
(-0.481648 0.727731 0.191521)
(-0.380322 0.940437 0.0825165)
(-0.486223 0.726627 0.110253)
(-0.591038 1.05344 0.194158)
(-0.633508 0.894583 0.226932)
(-0.612772 1.07202 0.110696)
(-0.638145 0.891135 0.128767)
(-0.251343 0.805634 0.116069)
(-0.376484 0.577383 0.163701)
(-0.243475 0.800171 0.0636397)
(-0.381255 0.577637 0.0987381)
(-0.028917 0.49248 0.181815)
(-0.0544628 0.342306 0.126114)
(-0.295431 0.433177 0.205544)
(-0.161273 0.28046 0.134363)
(-0.0278375 0.454191 0.314433)
(-0.0449925 0.306498 0.181979)
(-0.258485 0.404877 0.276851)
(-0.135962 0.257185 0.176316)
(-0.0291063 0.504091 0.106902)
(-0.0491547 0.362706 0.0859013)
(-0.312067 0.445742 0.142241)
(-0.177885 0.293657 0.092022)
(-0.0415252 0.507297 0.0585826)
(-0.0540367 0.376056 0.0534552)
(-0.315303 0.449094 0.0895755)
(-0.187792 0.301485 0.0567814)
(0.0077179 0.109316 0.473763)
(0.0135909 0.0595036 0.307513)
(-0.0188249 0.206197 0.22658)
(-0.0124156 0.119401 0.230308)
(0.0357498 0.112842 0.469408)
(0.0569499 0.0682556 0.306791)
(-0.0298938 0.20898 0.223415)
(-0.0186203 0.13102 0.225528)
(-0.0439464 0.122391 0.473943)
(-0.001699 0.0904209 0.295347)
(-0.0993436 0.206875 0.22661)
(-0.0852314 0.149607 0.209436)
(0.305764 0.541941 0.531936)
(0.15502 0.908661 0.521122)
(0.180717 0.352443 0.489839)
(0.12223 0.319661 0.371471)
(0.00153441 0.231893 0.207722)
(0.283449 0.929115 0.316758)
(0.413513 0.596077 0.375066)
(0.196205 0.334633 0.389523)
(0.199996 0.297655 0.359351)
(0.00251991 0.18179 0.243595)
(-0.38013 0.89652 0.451181)
(-0.27587 0.647235 0.397938)
(-0.223395 0.473777 0.324637)
(-0.227426 0.347472 0.257656)
(-0.129801 0.220148 0.162568)
(0.0215825 0.0420564 0.25541)
(0.0175371 0.0399232 0.247026)
(-0.00679872 0.0838089 0.251899)
(-0.0104398 0.0773899 0.298515)
(0.0607814 0.0520096 0.255263)
(0.0662375 0.0405861 0.240413)
(-0.0186579 0.100283 0.246504)
(-0.0253567 0.0906378 0.292761)
(0.0529375 0.0728976 0.245242)
(0.0752122 0.0630024 0.229611)
(-0.053428 0.120348 0.234901)
(-0.0633032 0.107798 0.281184)
(0.12207 0.940581 0.355554)
(0.0605598 0.892048 0.336508)
(0.318914 0.596717 0.324259)
(0.222752 0.539295 0.277816)
(0.170845 0.373694 0.236775)
(0.120953 0.353566 0.235125)
(0.156569 0.286324 0.22295)
(0.128806 0.269409 0.229432)
(-0.0077949 0.167819 0.205337)
(-0.0355904 0.151334 0.266056)
(-0.201159 0.820095 0.262024)
(-0.140229 0.698978 0.296882)
(0.0177787 0.595318 0.214772)
(0.08457 0.506748 0.243469)
(0.0274878 0.443527 0.186188)
(0.0762718 0.397843 0.211628)
(-0.0125426 0.314812 0.17719)
(0.0295172 0.296522 0.210468)
(-0.0280177 0.203685 0.154941)
(-0.0415405 0.22161 0.244398)
(-0.162854 0.563763 0.190779)
(-0.179626 0.440615 0.153077)
(-0.386477 0.569821 0.130761)
(-0.244789 0.415621 0.0715722)
(-0.347986 0.723406 0.297312)
(-0.336867 0.531679 0.22577)
(-0.521498 0.735299 0.240084)
(-0.40619 0.523584 0.153005)
(-0.292333 0.462268 0.0967714)
(-0.178476 0.366392 0.0559041)
(-0.0981105 0.45728 0.143262)
(-0.125704 0.390754 0.128734)
(-0.457275 0.589194 0.168655)
(-0.19345 0.396519 0.0743238)
(-0.490534 0.594468 0.0777478)
(-0.178803 0.401225 0.0429404)
(-0.598778 0.771997 0.222712)
(-0.391895 0.538063 0.128332)
(-0.637686 0.770417 0.0906906)
(-0.377354 0.542483 0.0625777)
(-0.352496 0.465532 0.134405)
(-0.129653 0.34428 0.0572837)
(-0.383115 0.473344 0.0679153)
(-0.111978 0.358639 0.0339503)
(-0.21568 0.331034 0.0782224)
(-0.173497 0.296906 0.0925734)
(-0.158458 0.223925 0.0941932)
(-0.280405 0.289287 0.158157)
(-0.104255 0.335465 0.118425)
(-0.139333 0.310942 0.143138)
(-0.10235 0.227747 0.112589)
(-0.234762 0.285109 0.204576)
(-0.237857 0.329706 0.0958043)
(-0.161146 0.28859 0.0681965)
(-0.193257 0.218067 0.0696833)
(-0.322194 0.301663 0.114096)
(-0.288733 0.346704 0.0423223)
(-0.151573 0.291439 0.0161561)
(-0.230376 0.226643 0.0134613)
(-0.318172 0.298435 0.0275143)
(0.0220686 0.0870304 0.193434)
(0.0278656 0.0690239 0.0889033)
(0.0321698 0.0538001 0.0256829)
(-0.00661885 0.319714 0.205292)
(0.00537675 0.157555 0.0550074)
(0.00724135 0.120599 0.0146153)
(0.0788607 0.0807642 0.189825)
(0.0925723 0.0745701 0.0934453)
(0.0987038 0.0630154 0.029271)
(-0.00900159 0.336565 0.204596)
(0.0221598 0.184207 0.0569024)
(0.0265335 0.148044 0.015878)
(0.0958811 0.100228 0.17556)
(0.132215 0.104895 0.0874307)
(0.147557 0.104369 0.0228118)
(-0.0331876 0.356546 0.195729)
(0.0387852 0.227964 0.0531493)
(0.0535119 0.198675 0.012178)
(0.0301825 0.78993 0.228775)
(0.0522942 0.704455 0.126381)
(0.0467717 0.646578 0.0338676)
(0.167444 0.497634 0.186336)
(0.178366 0.458908 0.101216)
(0.164663 0.43478 0.0285481)
(0.130865 0.355435 0.176095)
(0.151456 0.334551 0.0896593)
(0.145861 0.323645 0.0259015)
(0.140193 0.306549 0.167401)
(0.172111 0.28444 0.0803559)
(0.176713 0.274521 0.0191146)
(-0.0174434 0.412724 0.186827)
(0.0563252 0.298622 0.047485)
(0.0532149 0.265502 0.00833412)
(-0.164985 0.586006 0.252604)
(-0.0823517 0.517007 0.133994)
(-0.0481146 0.472478 0.0420002)
(0.0472487 0.438583 0.212071)
(0.0931702 0.392276 0.116103)
(0.107976 0.365876 0.0383772)
(0.0585353 0.379701 0.185819)
(0.10682 0.335208 0.0982686)
(0.118939 0.305352 0.0323865)
(0.0363157 0.356942 0.172513)
(0.0943482 0.312579 0.0723527)
(0.106317 0.289096 0.0200084)
(-0.0641817 0.533849 0.196175)
(0.0379461 0.372171 0.0498323)
(0.0446428 0.33655 0.0160427)
(-0.0029109 0.210425 0.0663648)
(0.00019176 0.125317 0.0251486)
(0.00124419 0.0871555 0.0123894)
(0.00252807 0.073535 0.00138782)
(0.00396588 0.234626 0.0269358)
(0.00376153 0.134481 0.0107383)
(0.00439809 0.0904518 0.00568506)
(0.00416509 0.0755189 0.00136613)
(-0.00782652 0.204556 0.0684302)
(0.000103353 0.123581 0.0268538)
(0.00343862 0.0869825 0.0146248)
(0.00674021 0.0743816 0.00349918)
(0.00906066 0.233039 0.0324879)
(0.00861588 0.134884 0.0142995)
(0.00946553 0.0915606 0.00928537)
(0.00934621 0.0763761 0.00429758)
(-0.0154346 0.194067 0.0781553)
(-0.00212187 0.12121 0.0319522)
(0.00343028 0.0882462 0.0189575)
(0.0104059 0.073922 0.00636514)
(0.0013966 0.22671 0.0554758)
(0.00698389 0.136185 0.0278767)
(0.00783076 0.0944653 0.0153652)
(0.0102915 0.0759763 0.00692229)
(0.00166179 0.237356 0.0406381)
(0.00455088 0.141422 0.0245752)
(0.00285079 0.0945852 0.0109024)
(0.00319668 0.079295 0.00332497)
(-0.00612991 0.243751 0.0419714)
(-0.000544636 0.147057 0.0276512)
(0.00146529 0.0979427 0.0151282)
(0.00360375 0.0818061 0.00800276)
(-0.0392573 0.206133 0.0647375)
(-0.0119447 0.128188 0.0302495)
(-0.00549507 0.0916969 0.0156203)
(0.00523993 0.0752548 0.00213965)
(-0.0581265 0.17008 0.0612642)
(-0.0186782 0.11425 0.0278092)
(-0.0127253 0.086277 0.0165985)
(0.00729935 0.070524 -0.000357093)
(-0.03253 0.180296 0.0815584)
(-0.00900378 0.1169 0.0339896)
(-0.00265182 0.0879413 0.0205179)
(0.00983001 0.0697446 0.00519561)
(-0.0472161 0.154 0.0727289)
(-0.0149205 0.106713 0.0299079)
(-0.0110649 0.0828342 0.0191399)
(0.00748424 0.0672831 -0.00100914)
(-0.0362866 0.221523 0.0489229)
(-0.0115024 0.136505 0.0260877)
(-0.00514385 0.0946079 0.0131175)
(0.00436085 0.07848 0.00201334)
(-0.0641675 0.180201 0.0475016)
(-0.020708 0.120218 0.0242721)
(-0.0135579 0.0888137 0.0146814)
(0.00918788 0.0725162 0.00265428)
(-0.0385721 0.230363 0.0361614)
(-0.0133956 0.142522 0.0223783)
(-0.0048991 0.0974988 0.013446)
(0.00616773 0.0801492 0.00745316)
(-0.0674168 0.186114 0.0330073)
(-0.0219272 0.124723 0.0200054)
(-0.0142039 0.0912785 0.0132792)
(0.0101089 0.073514 0.00726257)
(-0.00279718 0.161672 0.0844145)
(-0.000203739 0.109981 0.0306793)
(0.000365695 0.0822054 0.0155275)
(0.00219695 0.0695766 -0.00104277)
(-0.00232763 0.111194 0.0872658)
(-8.65089e-05 0.0919739 0.0298234)
(-0.000182873 0.0757946 0.0177167)
(0.00233014 0.0641168 -0.0062515)
(-0.00758277 0.157092 0.0840209)
(-0.000745979 0.108477 0.0310654)
(0.0010974 0.0822254 0.0167798)
(0.00589156 0.0696191 -3.05404e-05)
(-0.00386443 0.110629 0.083745)
(0.000644276 0.091815 0.0287743)
(7.81185e-05 0.0757759 0.0176503)
(0.00638086 0.0644341 -0.00579114)
(-0.0265989 0.150102 0.0843844)
(-0.00697376 0.106257 0.031853)
(-0.00226536 0.0826487 0.0193638)
(0.00882518 0.0694046 0.00172701)
(-0.0203135 0.113452 0.0750296)
(-0.00437917 0.0931094 0.026027)
(-0.0023252 0.0761168 0.0174685)
(0.0102009 0.0655223 -0.00385055)
(-0.0124339 0.14303 0.0783747)
(-0.00129528 0.102858 0.0306139)
(0.000986325 0.0814542 0.0210217)
(0.0103978 0.0691186 0.00608644)
(-0.00828952 0.114632 0.0827389)
(-0.000259376 0.093569 0.0294019)
(-0.000723216 0.077622 0.0222771)
(0.01008 0.0658045 -0.0033601)
(-0.0396578 0.133143 0.0606614)
(-0.0115557 0.099336 0.0237124)
(-0.00849192 0.0784901 0.0165493)
(0.0111274 0.0647338 0.00239958)
(0.00141116 0.0574526 0.0713663)
(0.00112325 0.0751496 0.0218356)
(0.00068819 0.0614201 0.0134033)
(0.00193491 0.0191762 -0.00611629)
(0.0048547 -0.00382001 0.0278718)
(0.00213605 0.0660484 0.00774886)
(0.001202 0.0545132 0.00412328)
(0.00122897 0.0182267 -0.00129206)
(0.00107883 0.0637556 0.0706257)
(0.00217534 0.077549 0.0221717)
(0.00112524 0.0625248 0.0137138)
(0.00502679 0.0202081 -0.00539064)
(0.0119195 0.0055054 0.0284837)
(0.00552972 0.0688279 0.00817326)
(0.00292833 0.0553966 0.00451777)
(0.00322023 0.0185479 -0.000851042)
(-0.00281531 0.0739592 0.0666139)
(0.00158007 0.0811955 0.0216357)
(0.000952328 0.0635099 0.0141519)
(0.00785051 0.0201008 -0.00402533)
(0.016307 0.0200507 0.0275917)
(0.00797667 0.0733399 0.00827696)
(0.0043755 0.0564359 0.00498265)
(0.0049071 0.0186485 -0.00022853)
(-0.00348812 0.0884897 0.0562661)
(0.00209012 0.085815 0.0185565)
(0.00119497 0.0652103 0.013542)
(0.010372 0.021414 -0.00247579)
(0.0173112 0.037382 0.024388)
(0.00940116 0.0789916 0.00733813)
(0.00488775 0.0582476 0.00531167)
(0.00572254 0.0193472 0.000570625)
(-0.0114199 0.109253 0.0494123)
(0.000412695 0.0921159 0.0173126)
(-0.00183739 0.0682013 0.0129635)
(0.00976118 0.0239402 -0.000378084)
(0.0100266 0.0558807 0.0221257)
(0.00840595 0.084509 0.00743335)
(0.00347032 0.0600378 0.00582855)
(0.00516262 0.0199199 0.00165982)
(-0.0400783 0.123768 0.0384308)
(-0.00517519 0.0997227 0.0164744)
(-0.00648106 0.0700588 0.0100015)
(0.00872499 0.0225629 0.00095675)
(-0.0115525 0.0544727 0.0202975)
(0.0025893 0.0910719 0.010113)
(0.000420567 0.0638514 0.00605335)
(0.00347894 0.0207557 0.00305285)
(-0.0257052 0.121437 0.0410188)
(-0.00149537 0.0963403 0.0151367)
(-0.00465389 0.0685272 0.0106377)
(0.00902775 0.0226398 0.000279602)
(-0.00302151 0.0563736 0.0201843)
(0.00557571 0.0885279 0.00824943)
(0.00180474 0.0617937 0.00582476)
(0.004336 0.0202258 0.00247174)
(-0.0523545 0.123381 0.0340044)
(-0.0101436 0.102217 0.0174224)
(-0.00872093 0.0713041 0.0102911)
(0.00933686 0.0212988 0.0025435)
(-0.0172312 0.0507855 0.0203638)
(-0.00050329 0.0933595 0.0117666)
(-0.00091395 0.0653368 0.00677781)
(0.00301685 0.0207697 0.0040157)
(-0.0610617 0.122881 0.026418)
(-0.0153836 0.105294 0.0165703)
(-0.0111881 0.0739003 0.010678)
(0.00912171 0.0218755 0.00611544)
(-0.0224383 0.0565293 0.0187274)
(-0.00425942 0.0964988 0.0125148)
(-0.00253186 0.0674166 0.0079627)
(0.00245818 0.0212972 0.00565845)
(0.000985864 0.0641498 0.000662836)
(0.000459919 0.0467168 0.000377007)
(0.000232763 0.0312418 0.000217564)
(0.000129464 0.017804 0.000130298)
(8.8899e-05 0.00577003 9.24607e-05)
(0.00137927 0.0644375 0.000346287)
(0.000702393 0.0468008 0.000191651)
(0.000370734 0.0312866 0.00011023)
(0.000211041 0.0178266 6.64871e-05)
(0.000146195 0.00577683 4.76325e-05)
(0.00209417 0.0653012 0.00129706)
(0.00097749 0.0471112 0.000748873)
(0.000492976 0.031419 0.00042662)
(0.000275032 0.0178826 0.000253619)
(0.000190536 0.00579236 0.000179085)
(0.0036278 0.0654376 0.00125018)
(0.0019131 0.0472635 0.000718666)
(0.00102648 0.0315134 0.000402783)
(0.000591834 0.0179307 0.000237529)
(0.000413141 0.00580694 0.000167245)
(0.00300528 0.0659656 0.00282818)
(0.00141549 0.0475308 0.00167284)
(0.000724451 0.0316156 0.000950401)
(0.000409164 0.0179702 0.000566173)
(0.000285602 0.00581727 0.000400776)
(0.00523645 0.0657435 0.00535404)
(0.00272695 0.0479146 0.00305646)
(0.00147556 0.0318569 0.0017233)
(0.000858403 0.0180927 0.00102163)
(0.000602377 0.00585454 0.000720795)
(0.00175809 0.0680378 0.00544373)
(0.000892459 0.0488241 0.00320392)
(0.000484866 0.0323487 0.00183393)
(0.000283753 0.0183337 0.00109533)
(0.000199668 0.0059267 0.000776426)
(0.000960322 0.0692492 0.00580664)
(0.000479299 0.0496699 0.00334398)
(0.000256205 0.0328399 0.00189874)
(0.000149267 0.0185794 0.00113116)
(0.000104676 0.00600069 0.000802318)
(0.00267084 0.0678139 0.00365067)
(0.00118174 0.0484351 0.0022155)
(0.000608066 0.0320705 0.00128014)
(0.000347125 0.0181857 0.000767399)
(0.000241625 0.00588108 0.000542098)
(0.000582468 0.0693558 0.00285879)
(0.000172205 0.0486632 0.00174082)
(7.1148e-05 0.0321114 0.00100901)
(3.60965e-05 0.0181943 0.000607439)
(2.38647e-05 0.00588245 0.000430091)
(0.00402046 0.0664784 0.00381641)
(0.00196068 0.0479872 0.00222496)
(0.00104172 0.0318243 0.0012625)
(0.000602712 0.0180638 0.000754419)
(0.000422447 0.00584407 0.00053384)
(0.00109074 0.0687995 0.00290111)
(0.000434724 0.0483857 0.00157062)
(0.000214565 0.0319616 0.000879124)
(0.00011982 0.0181202 0.000524701)
(8.21576e-05 0.00585993 0.000369898)
(0.00087879 0.0687594 0.00402408)
(0.000245975 0.0489523 0.0025739)
(9.56525e-05 0.0323672 0.0015079)
(4.74642e-05 0.0183346 0.000908578)
(3.13005e-05 0.00592616 0.00064512)
(0.000599967 0.0701831 0.00384128)
(0.00019258 0.0491653 0.00237393)
(8.52813e-05 0.0323985 0.00137966)
(4.58562e-05 0.0183383 0.00083025)
(3.13019e-05 0.00592618 0.000589073)
(0.000810837 0.0696045 0.00517974)
(0.000218725 0.0498362 0.00305274)
(8.24623e-05 0.0328991 0.00174202)
(4.06416e-05 0.0186026 0.00103941)
(2.60125e-05 0.00600717 0.00073709)
(0.000401568 0.0711563 0.00496267)
(6.12546e-05 0.0500202 0.00294125)
(9.7304e-06 0.0329154 0.00168181)
(8.64562e-07 0.0186001 0.00100403)
(-1.03933e-06 0.00600571 0.000711051)
(0.00079497 0.0638182 0.000415245)
(0.000346212 0.0466352 0.000306242)
(0.000167673 0.0311944 0.000181713)
(9.04147e-05 0.0177796 0.000109412)
(6.11325e-05 0.00576263 7.78285e-05)
(0.000760621 0.0644779 9.1693e-05)
(0.000329465 0.0466309 0.000116225)
(0.000159212 0.0311681 7.17057e-05)
(8.56923e-05 0.017765 4.40087e-05)
(5.78858e-05 0.00575813 3.1868e-05)
(0.00183723 0.0645657 0.000785971)
(0.000787228 0.0469505 0.000508996)
(0.000381649 0.0313294 0.000295917)
(0.000206666 0.0178373 0.000177452)
(0.000140726 0.00577864 0.000126431)
(0.00177153 0.0651732 0.000166297)
(0.000748656 0.0469169 0.000161952)
(0.000362655 0.0312875 9.80487e-05)
(0.000195987 0.0178153 5.97434e-05)
(0.00013269 0.00577207 4.33798e-05)
(0.00239098 0.0656757 0.00114965)
(0.000963012 0.0473715 0.000764183)
(0.000462662 0.0315051 0.000443745)
(0.000249662 0.0179125 0.000267444)
(0.000170119 0.00579955 0.000191767)
(0.00215399 0.0665988 0.000635876)
(0.000922397 0.0473278 0.000396777)
(0.000455783 0.0314517 0.000221303)
(0.000248547 0.0178846 0.000129852)
(0.000170241 0.00579124 9.29056e-05)
(0.00292655 0.0673165 0.00321391)
(0.0013909 0.0478408 0.00184758)
(0.000730194 0.0317017 0.00103549)
(0.000418208 0.0179986 0.000619388)
(0.000292917 0.00582376 0.000441411)
(0.00146165 0.0680855 0.00160902)
(0.000678072 0.0477282 0.000919279)
(0.00034701 0.0316291 0.000509262)
(0.000192803 0.0179629 0.000302954)
(0.000134292 0.00581291 0.000216382)
(0.00169746 0.0682958 0.00396191)
(0.000840805 0.048146 0.00202059)
(0.00045039 0.0318423 0.00110158)
(0.00026197 0.018063 0.000650016)
(0.000184033 0.00584251 0.000458226)
(-0.0203337 0.369229 0.106679)
(-0.0249022 0.573101 0.185266)
(-0.0561276 0.387778 0.100891)
(-0.0709324 0.587084 0.179924)
(-0.0860002 0.418546 0.0944095)
(-0.113739 0.609886 0.167663)
(-0.104089 0.455286 0.0924167)
(-0.150518 0.651824 0.161452)
(-0.102434 0.494675 0.100263)
(-0.148152 0.724499 0.18328)
(-0.092828 0.450256 0.0593917)
(-0.124764 0.555274 0.0850351)
(-0.0843774 0.465008 0.0814991)
(-0.102904 0.599243 0.127281)
(-0.108006 0.446421 0.039691)
(-0.147587 0.546443 0.051195)
(-0.113302 0.440488 0.0158668)
(-0.155055 0.543923 0.0207225)
(-0.0213227 0.297295 0.315208)
(-0.00468703 0.0533328 0.0760595)
(-0.00102298 0.0117608 0.0174817)
(-0.00021762 0.00264965 0.0038817)
(-5.29908e-05 0.000467926 0.000974861)
(-0.00872421 0.35401 0.0841544)
(-0.00321327 0.0979558 0.0223509)
(-0.000344421 0.0239041 0.00599376)
(-9.96836e-05 0.00543433 0.0013454)
(-4.0707e-05 0.00095131 0.000300893)
(-0.0688806 0.303505 0.312254)
(-0.0152494 0.0525307 0.074305)
(-0.0033478 0.0113725 0.0169541)
(-0.000717728 0.00253908 0.00373738)
(-0.000176058 0.000445899 0.000934336)
(-0.0225441 0.360339 0.0869966)
(-0.00479729 0.0982877 0.0253437)
(-0.000971957 0.0236804 0.00624029)
(-0.000189296 0.00531451 0.00144962)
(-4.03406e-05 0.000927184 0.000363995)
(-0.121093 0.314762 0.300244)
(-0.0269637 0.0524658 0.0702284)
(-0.00595458 0.0110781 0.0158523)
(-0.00128834 0.00244124 0.00346795)
(-0.000318858 0.000425895 0.000862181)
(-0.0396526 0.372711 0.0844655)
(-0.00944988 0.0994905 0.0245028)
(-0.00209272 0.0235422 0.00598535)
(-0.00045777 0.00522202 0.00137604)
(-0.000110971 0.000904687 0.000342229)
(-0.173012 0.328124 0.280351)
(-0.0387423 0.0521229 0.0642877)
(-0.00864082 0.0107311 0.0143798)
(-0.00189136 0.00234213 0.00313407)
(-0.00047402 0.000407443 0.000778608)
(-0.0557355 0.388592 0.081153)
(-0.014546 0.100971 0.0229971)
(-0.00345287 0.0235272 0.00550458)
(-0.000795485 0.00518144 0.00124515)
(-0.000202591 0.000895097 0.000305347)
(-0.240039 0.338381 0.244465)
(-0.0553032 0.0516517 0.0552058)
(-0.0126015 0.0105662 0.0123357)
(-0.0028096 0.00231817 0.00269887)
(-0.000716567 0.000405824 0.000674997)
(-0.0744291 0.402372 0.0752647)
(-0.0220428 0.10205 0.0203595)
(-0.00555292 0.0237476 0.0047635)
(-0.00132135 0.00525847 0.00106411)
(-0.00034559 0.000913626 0.00025859)
(-0.320468 0.324761 0.136118)
(-0.0806433 0.0589441 0.0328254)
(-0.0194107 0.0133871 0.00759748)
(-0.00450748 0.00312198 0.00170121)
(-0.00118621 0.000566198 0.000433009)
(-0.086792 0.365223 0.038491)
(-0.0271835 0.104621 0.00979895)
(-0.00706689 0.0263153 0.00213961)
(-0.00171143 0.00616537 0.000443687)
(-0.000455096 0.00111238 0.000101753)
(-0.293301 0.332208 0.190625)
(-0.0715188 0.0561736 0.044678)
(-0.0167946 0.0121538 0.0101548)
(-0.00382304 0.0027475 0.00224547)
(-0.000990189 0.000489039 0.000566815)
(-0.0837308 0.381034 0.0534832)
(-0.0265607 0.103993 0.0139882)
(-0.00690087 0.0251551 0.00320542)
(-0.00166796 0.00571628 0.000707271)
(-0.000439781 0.00101041 0.000170974)
(-0.333062 0.320585 0.0851803)
(-0.0849348 0.0607391 0.0210697)
(-0.0207009 0.0141932 0.00494841)
(-0.00486123 0.00337816 0.00111914)
(-0.00129083 0.000620839 0.00028654)
(-0.0890377 0.35964 0.0247239)
(-0.0270356 0.104982 0.00644694)
(-0.00691298 0.0269729 0.00138864)
(-0.00165443 0.00644377 0.000275355)
(-0.000438523 0.00117972 6.04938e-05)
(-0.342585 0.317867 0.0313774)
(-0.0870932 0.0597352 0.00785736)
(-0.0213197 0.0140185 0.00186124)
(-0.00503474 0.00336395 0.000424123)
(-0.00134395 0.00062236 0.000109244)
(-0.0892866 0.356565 0.012037)
(-0.027152 0.103914 0.00288173)
(-0.00693284 0.0268813 0.000590166)
(-0.00154034 0.00647236 0.000158386)
(-0.000432607 0.00119157 2.39844e-05)
(-0.0100908 1.45023 -0.0543742)
(-0.268223 2.02384 0.023542)
(-0.263343 1.81049 0.170932)
(-0.147972 1.36267 -0.147091)
(0.150957 0.760288 0.0396621)
(0.207522 0.798621 0.0423093)
(0.417665 1.21142 0.106209)
(0.549397 1.216 0.129631)
(0.237629 0.818761 0.0881017)
(0.479428 0.875245 0.142088)
(0.0903716 1.3063 0.117651)
(0.287753 1.74259 0.177711)
(0.23353 1.93223 0.112643)
(0.388743 2.62594 0.147069)
(0.427983 0.984455 0.0538265)
(0.59079 1.08217 0.078396)
(0.515255 0.794793 0.058407)
(0.586673 0.775573 0.0680299)
(0.294213 0.550797 0.0407141)
(0.333084 0.56649 0.0421885)
(-0.759858 0.164142 0.115809)
(-0.565605 0.115056 0.0902908)