/*--------------------------------*- C++ -*----------------------------------*\
| =========                 |                                                 |
| \\      /  F ield         | OpenFOAM: The Open Source CFD Toolbox           |
|  \\    /   O peration     | Version:  2412                                  |
|   \\  /    A nd           | Website:  www.openfoam.com                      |
|    \\/     M anipulation  |                                                 |
\*---------------------------------------------------------------------------*/
FoamFile
{
    version     2.0;
    format      ascii;
    arch        "LSB;label=32;scalar=64";
    class       volScalarField;
    location    "1.8";
    object      gradTz;
}
// * * * * * * * * * * * * * * * * * * * * * * * * * * * * * * * * * * * * * //

dimensions      [0 -1 0 1 0 0 0];

internalField   nonuniform List<scalar> 
5712
(
7510.27
22804
5701.88
24933.1
3122.55
26383.6
5311.38
41719
8670.54
52371.7
8896.18
37200.1
9501.71
33082.1
9369.05
28439.4
4399.36
2415.1
13275
6308.18
4102.12
1894.56
14281.6
5762.34
5757.68
4266.35
16987.5
12470.7
3860.57
3057.56
17083.9
12987
8685.85
3167.44
6622.87
2428.29
3034.69
8089.05
40868.9
12477.4
12295.9
5659.26
49523.4
15505.2
11431.9
5342.3
27129.5
9038.26
13844
6299.31
22143.9
7033.59
5334.45
2886.86
9159.89
3720.87
4783.83
3001.09
9608.61
3645.16
6368.96
4040.5
6059.4
2562.01
10666.1
3866.15
4191.93
1553.95
13143.2
9975.19
7926
7157.77
14483.1
12723.4
7837.79
8371.3
7419.8
6439.45
9805
8464.33
5864.17
5074.69
3375.4
2914.04
5783.87
5776.19
3274.4
3284.53
5657.87
4488.17
3279.26
2338.86
6411.33
3618.16
6493.39
7107.68
8626.39
6554.53
9368.3
12228.3
4639.76
1996.82
4144.75
4248.06
2607.74
918.218
1893.33
1629.43
6232.7
12493.3
4509.29
14111.2
6743.78
12627.7
5368.2
14987.3
8812.02
12478.3
7409.55
15193.1
9507.83
11152.5
7556.57
7634.42
9187.78
7360.81
8327.29
11606.6
13640.9
19890.1
9982.34
8271.69
8025.44
10163.6
15999
15592.9
15133
18221.2
18421.1
15182.6
15230.3
18241.9
18222.4
13938.3
14497.6
17436.6
17674.1
9263.18
9856.21
9278.71
9839.39
11326
11447.9
13344.4
13095
16933.1
17225.9
8433.61
9315.27
9680.29
10486.8
10931.1
11983.1
12692.9
14100.1
16753.4
18398.4
9889.6
6759.07
7989.57
8003.17
10954.9
12367.4
8900.39
11678.9
7411.4
7483.62
9450.31
6803.83
3415.56
5769.52
1386.41
2144.01
5508.55
8638.56
2140.97
3221.66
2916.75
5112.52
1090.59
1865.01
7106.1
6052.13
7301.27
4602.29
10028.9
7189.11
11458.1
7712.61
3359.62
3855.56
4163.51
2392.06
2551.97
2757.65
2834
2149.43
13202
8720.65
2868.12
14297
9028.62
3127.48
12974.5
8518.44
2915.13
14242.7
8993.61
3057.99
12351.8
7991.39
2684.46
13950.8
8837.75
3045.21
7123.37
4118.48
1101.13
8617.38
5895.81
1922.74
10014
7048.11
2382.57
11155.4
7300.34
2403.23
13458.1
8516.45
3013.17
7792.24
4319.86
1430.51
7807.09
5089.95
1784.41
8885.36
5889.6
2033.03
10568.1
6813.05
2341.39
12783.6
7516.35
2615.84
-503.812
990.113
438.056
2651.26
1828.81
1836.13
4704.74
4105.16
606.146
966.247
642.164
1013.43
340.977
936.106
626.437
1372.02
1872.6
1130.43
3807.42
2706.45
1730.87
2837.45
2940.01
771.252
6006.64
1863.69
-4283.36
-720.546
601.579
621.416
-63.4446
69.6284
10230
4384.83
2707.34
1570.8
10072.1
4439.57
2951.17
1856.06
9708.04
4835.2
3944.89
2735.08
3032.66
1934.43
1643.89
1469.22
13200.3
11521.6
5761.15
7367.2
14995.7
13995.1
7290.66
8736.07
5162.37
6229.87
11070
9091.75
3642.47
4788.02
2062.91
2756.32
4853.96
5673.31
2767.39
3219.18
2901.72
4092.53
1590.99
2468.45
4545.38
3152.86
5138.61
3359.08
7860.84
4549.48
6921.27
4407.89
2672.55
2147.53
3556.02
2300.55
1464.56
1336.38
2239.39
1419.54
11844.1
7687.82
5664.51
5757.69
11735.2
7669.78
5585.37
5638.21
11848.6
7383.67
5665.25
5235.89
13298.4
13028
12246
9286.77
5193.04
7918.96
9376.64
9738.08
8983.77
6089.87
11279.5
9948.44
8115.91
6441.41
4064.19
6385.26
6175.64
6297.47
7462.86
6381.58
6010.33
6162.6
7319.04
6131.05
5740.28
5872.52
7029.61
8888.85
8412.69
8106.47
6945.4
5919.38
5878.12
5573.75
5735.8
5133.42
6651.41
6550.59
7422.05
5369.3
6086.73
4654.7
5290.7
4429.76
5261.71
3873.51
6109.96
4769.49
3826.93
3269.03
1789.3
7432.81
5644.25
6002.09
3825.13
2419.28
1397.6
3581.55
3218.35
4216.37
1858.09
1943.69
1073.51
5567.79
3208.3
2267.26
1564.44
3360.12
1432.09
1697.88
848.759
1955.56
2314.33
2354.83
3953.93
2960.62
3578.46
2814.72
5114.41
2395.11
1704.91
1742.08
2852.4
1058.06
403.903
336.533
687.858
4835.84
2222.58
642.072
5132.31
1375.19
365.381
4745.63
2336.13
731.774
5114.91
1422.56
396.949
4389
2185.77
570.294
4893.23
1328.73
304.45
5719.37
3159.52
846.69
4658.41
2530.4
713.704
4402.37
2241.48
647.537
4185.02
2008.9
477.866
4670.67
1187.12
208.353
6315.11
3349.86
1050.01
5301.76
2902.58
959.431
4645.47
2456.72
809.662
4312.83
1808.82
500.21
4904.38
1245.81
401.068
1659.12
628.715
309.735
34.6955
673.394
268.456
142.127
34.1533
1710.75
671.345
365.621
87.4796
812.197
357.487
232.134
107.44
1953.88
798.805
473.939
159.128
1386.9
696.918
384.13
173.057
1015.95
614.38
272.56
83.1243
1049.28
691.281
378.206
200.069
1618.44
756.237
390.507
53.4912
1531.6
695.231
414.963
-8.92731
2038.96
849.739
512.946
129.89
1818.22
747.697
478.497
-25.2285
1223.07
652.192
327.936
50.3335
1187.54
606.803
367.036
66.3571
904.036
559.456
336.15
186.329
825.182
500.136
331.98
181.564
2110.36
766.981
388.189
-26.0691
2181.65
745.585
442.917
-156.288
2100.52
776.636
419.495
-0.763511
2093.63
719.358
441.257
-144.778
2109.61
796.324
484.095
43.1752
1875.74
650.676
436.713
-96.2637
1959.37
765.349
525.543
152.161
2068.47
735.048
556.929
-84.0026
1516.54
592.811
413.732
59.9896
1784.16
545.889
335.084
-152.907
696.794
193.721
103.082
-32.3016
1765.64
554.293
342.844
-134.766
712.094
204.332
112.944
-21.276
1665.35
540.893
353.798
-100.633
689.793
206.924
124.566
-5.71325
1406.65
463.911
338.55
-61.8947
609.699
183.453
132.792
14.2656
1235.31
432.815
324.088
-9.45211
553.142
185.834
145.714
41.4956
960.77
411.861
250.038
23.9187
507.437
252.824
151.334
76.3213
1025.47
378.418
265.942
6.99004
504.607
206.236
145.619
61.7935
850.111
435.559
257.277
63.5876
509.095
294.165
169.445
100.392
660.451
414.258
266.95
152.886
468.185
312.869
199.068
141.461
16.5709
9.42518
5.43909
3.25746
2.31152
8.65718
4.79128
2.75575
1.66218
1.19081
32.4265
18.7218
10.6655
6.34047
4.47712
31.2546
17.9667
10.0696
5.93822
4.18112
70.7044
41.8211
23.76
14.1543
10.0194
133.851
76.4115
43.0825
25.5408
18.0199
136.093
80.0979
45.8483
27.3832
19.4107
145.166
83.5994
47.4685
28.279
20.058
91.2667
55.3875
32.0036
19.185
13.5525
71.4697
43.5206
25.2252
15.186
10.7523
95.4102
55.6241
31.5625
18.8605
13.346
72.5277
39.2655
21.9781
13.1175
9.24744
100.602
64.3475
37.6975
22.7145
16.128
96.0321
59.3482
34.4915
20.7563
14.7268
129.493
76.3186
43.5506
25.9854
18.4272
124.067
73.5312
42.0454
25.1008
17.7763
10.3811
7.65604
4.54283
2.7353
1.94571
2.29232
2.90563
1.79264
1.10022
0.796699
19.6493
12.7249
7.39793
4.4363
3.16078
4.15742
4.0488
2.45122
1.49358
1.0845
28.7411
19.1046
11.0936
6.6861
4.79417
15.8969
9.91943
5.53257
3.24631
2.32264
80.3477
46.1894
25.8872
15.4847
11.0353
40.2255
22.982
12.7315
7.57386
5.40954
99.0477
50.5147
27.5394
16.2504
11.4557
2666.98
4631.65
2522.28
4498.1
2360.24
4191.56
2310.42
4036.31
2506.58
4582.01
1484.79
2125.88
2037.48
3182.02
992.275
1279.88
396.671
518.062
7880.2
1901.49
437.043
97.0426
24.3715
2103.86
558.773
149.844
33.6351
7.52233
7806.34
1857.62
423.852
93.4345
23.3584
2174.92
633.592
156.007
36.2404
9.09988
7506.09
1755.71
396.308
86.6987
21.5545
2111.64
612.57
149.634
34.4009
8.55572
7008.79
1607.19
359.495
78.3517
19.4652
2028.83
574.929
137.615
31.1287
7.63368
6111.62
1380.14
308.392
67.4717
16.8749
1881.62
508.988
119.087
26.6027
6.46476
3402.96
820.636
189.937
42.5303
10.8252
962.275
244.974
53.4903
11.0922
2.54384
4765.62
1116.95
253.871
56.1367
14.1704
1337.08
349.706
80.1355
17.6818
4.27434
2129.51
526.742
123.71
27.9785
7.1635
618.098
161.173
34.7161
6.88386
1.51235
784.436
196.434
46.5311
10.6031
2.73109
300.926
72.0433
14.7541
3.95966
0.59961
-1359.36
588.551
4273.31
-3677.28
991.552
1057.73
2655.23
3240.77
2202.54
3552.2
2941.28
4442.78
2816.08
3676.72
1345.66
1959.9
1460.18
1700.75
1017.85
1054.71
2895.22
2257.27
-268.852
-814.32
-889.444
-1195.6
-589.751
12222.5
3371
4240.83
3457.18
433.4
65.9601
3380.45
-876.872
-333.943
-718.453
-236.048
6025.51
3159.37
1505.9
841.648
3335.78
1594.91
282.511
474.004
-1003.92
-971.058
925.644
805.616
9392.47
4598.44
4579.27
2638.54
3439.64
3289.67
91.7734
-945.785
399.654
2017.54
1763.96
1531.74
1406.82
1051.48
1801.79
1452.54
1171.76
858.861
338.335
-242.914
-203.31
-149.507
-89.2574
-29.3738
-726.499
-606.468
-454.181
-280.624
-94.8504
-793.981
-662.862
-495.784
-305.67
-103.207
-1068.05
-892.753
-668.95
-413.244
-139.682
-521.315
-429.443
-315.733
-191.419
-64.0374
9018.02
8182.51
6907.91
6356.13
5808.07
3071.51
2475.85
2205.84
1820.63
813.816
3447.19
2734.23
2263.58
1764.94
804.192
2670.61
2076.41
1691.87
1251.94
471.02
360.523
253.39
248.012
194.669
98.669
118.804
154.571
159.343
124.097
47.1434
2799.62
2228.65
1719.63
1180.7
445.24
-544.913
-282.777
-138.537
-60.4648
-19.5123
-264.114
-184.22
-106.739
-47.1428
-11.5142
-515.635
-329.114
-190.221
-95.2179
-29.2185
-222.646
-190.915
-139.982
-81.7186
-25.954
4135.49
4017.58
3460.1
3357.89
3302.13
2600.08
2037.74
1678.93
1266.68
493.875
1362.84
1174.04
944.65
643.239
232.897
737.032
616.33
486.613
327.842
117.82
2788.37
2217.44
1680.79
1110.08
401.036
1421.81
1188.15
919.948
594.698
196.751
243.048
201.543
161.581
111.336
39.7787
425.106
362.231
285.957
188.661
65.7647
-870.574
-702.901
-508.8
-305.653
-101.751
-855.539
-702.085
-514.338
-310.833
-103.697
815.459
682.056
527.691
344.373
121.553
709.008
592.135
457.837
298.351
104.789
6195.74
4968.02
4347.94
4137.31
3378.14
3590.32
2832.83
2257.32
1656.03
681.593
3620.78
3037.36
2533.55
2057.32
863.861
2103.33
1727.21
1377.6
991.344
437.927
2943.25
2389.73
1820.82
1187.21
416.755
2742.13
1972.98
1595.36
1161.77
226.688
82.7111
75.5071
71.7192
56.9788
21.1813
-840.032
-695.593
-513.748
-312.325
-104.543
364.276
316.52
261.577
181.033
62.8078
-29770.3
-46510.1
-22543.5
-39523.4
-23927.4
-55424.6
-31462.4
-67398
-16866
-11338.1
-18697.9
-10087.2
-15713.5
-10337.7
-18826.9
-8973.66
-24554
-17299.5
-33961.7
-24531.2
-19344.2
-14195.3
-29234.3
-21933.1
-14822.9
-15096.2
-10393.9
-10067.9
-12648.8
-13336.5
-44374.7
-13638.5
-14209.8
-6764.94
-52139.9
-16564.2
-12892.5
-6221.32
-31082
-10241.1
-15788.8
-7369.14
-26138.2
-7968.78
-11813.7
-5029.11
-16159.4
-6081.2
-10289.3
-4604.02
-14944.2
-5338.17
-10719
-5189.38
-9142.73
-3499.98
-12903.5
-4591.7
-5051.49
-1872.65
-10628.2
-7699.95
-8670.72
-6485.91
-9194.47
-7859.44
-7691.86
-6738.43
-8678.51
-6376.59
-10052
-7937.16
-6501.26
-4786.26
-3850.36
-2737.98
-5876.17
-4939.21
-3370.89
-2703.07
-6561.58
-4529.31
-3917.86
-2399.89
-7754.53
-4110.59
-6650.39
-7138.07
-10091
-7089.29
-9450.79
-12149.7
-5513.48
-2320.29
-4288.06
-4297.24
-3199.11
-1145.14
-2019.02
-1678.19
-10394.5
-13265.3
-5958.29
-15004.2
-10308.2
-12940.8
-6515.13
-15521.4
-11414.9
-12499
-8106.67
-15204.6
-6386.51
-3953.11
-8198.05
-9525.42
-9778.59
-5807.49
-8094.23
-12137.1
-13928.1
-19742.1
-5257.19
-6029.26
-7351.56
-9989.04
-15770.7
-14030.7
-11548.1
-17450.4
-14477.2
-13619.1
-11845.1
-17466.1
-14591.5
-12451.3
-11030.7
-16508.8
-14493.4
-8469.81
-7927.28
-8526.15
-7701.5
-9810.83
-8745.11
-11317.7
-10033.4
-15835
-14539.3
-6976.5
-7638.72
-7831.08
-7682.9
-9018.72
-8818.97
-10981
-10940
-15752.2
-15520.1
-8265.63
-5630.23
-6933.55
-7038.48
-8600.68
-10728.9
-7259.39
-10181.8
-6825.67
-6853.57
-8474.38
-5981.31
-2698.29
-5039.17
-776.086
-1540.69
-4324.93
-7547.22
-1176.51
-2341.22
-2522.76
-4644.33
-739.843
-1469.61
-6804.47
-5666.53
-7126.85
-4370.3
-9452.3
-6570.12
-11113.9
-7197.96
-3152.49
-3579.88
-4030.34
-2231.42
-2348.52
-2507.98
-2705.34
-1996.7
-8417.5
-3250.51
-9011.59
-3136.78
-8617.34
-3231.94
-9452.74
-3483.33
-8259.74
-3046.31
-10218.1
-4036.86
-4480.05
-1073.59
-5379.18
-1930.89
-6263.02
-2440.77
-7599.38
-2878.7
-10180.8
-3948.5
-5423.29
-915.481
-4769.63
-1612.6
-5522.49
-2039.48
-7169.56
-2659.53
-9254.36
-3039.21
-6380.51
-6188.38
-4169.7
-4006.03
-10199.2
-8092.81
-7916.72
-6251.05
-5455.32
-5009.56
-2101.85
-1712.12
-5109.31
-4915.89
-1807.86
-1708.2
-2560.23
-5798.49
-3796.61
-7010.65
-4772.06
-2084.78
-3218.75
-768.69
-6816.98
-2368.37
4074.68
1211.5
-223.51
-44.2211
1013.33
1192.75
-2612.07
-1365.23
-1041.28
-398.284
-2615.42
-1516.36
-1144.19
-388.337
-2869.28
-1814.86
-1271.19
-240.88
-1108.78
270.132
260.228
944.548
-5164.17
-5074.37
-3817.09
-4329.05
-7510.72
-7243.14
-6120.64
-6115.33
-2550.15
-3228.71
-4109.49
-3911.65
-2595.75
-2927.98
-1244.56
-1293.02
-4347.48
-4223.03
-2419.3
-2154.11
-1314.98
-2039.9
-305.221
-745.29
-1606.5
-918.395
-2516.12
-1404.78
-2685
-1897.81
-3095.23
-2141.43
-666.886
-195.744
-1550.08
-559.974
224.036
511.979
-437.09
240.735
-2902.83
-2882.7
-2368.84
-3727.58
-2996.72
-3046.06
-2497.11
-3823.35
-3552.87
-3183.29
-2834.7
-3752.5
-2273.33
-2762
-2804.88
-2677.18
-2362.86
-4507.39
-3564.37
-3277.05
-3963.38
-4110.59
-4621.94
-3487.03
-2914.44
-2648.67
-1953.84
-3828.51
-4833.44
-6454.73
-11176
-3667.33
-4091.66
-6052.05
-10372.1
-3739.1
-4520.48
-5553.05
-9261.05
-7662.54
-6602.73
-6076.29
-5305.9
-4188.81
-4598.58
-4321.3
-5211.77
-4765.31
-8276.71
-5186.99
-6000.16
-3724.32
-4780.27
-3005.98
-4184.3
-3133.17
-4644.54
-2770.34
-6516.87
-2329.47
-2472.62
-1283.92
-346.781
-4799.9
-4215.28
-4021.17
-2358.32
-597.116
-82.7197
-1548.33
-2053.76
-2568.42
-666.948
-508.769
-23.1185
-4015.61
-2006.92
-992.816
-534.211
-1777.42
-347.902
-233.496
143.822
-482.997
-1354.02
-1302.77
-3519.89
-1438.86
-2829.34
-1906.64
-5099.54
-1023.35
-824.061
-545.992
-2211.07
321.162
492.023
898.602
63.0324
-4052.82
-1331.83
-8169.47
-1127.09
-3499.86
-1462.7
-7702.47
-1115.68
-3155.11
-943.407
-6357.31
-542.326
-3585.9
-791.093
-3071.96
-735.736
-3395.57
-1020.85
-3127.7
-514.233
-5703.97
-465.434
-4353.77
-572.677
-3788.54
-574.29
-3714.27
-728.631
-3702.25
-370.372
-5691.44
-568.664
-623.791
-193.76
-93.0774
109.492
-194.737
-52.7821
-33.6232
27.9024
-601.258
-161.147
-91.8421
103.521
-81.4793
21.632
-15.5702
31.1457
-649.49
-137.655
-78.0398
159.238
166.574
226.143
250.883
322.315
632.793
453.86
458.525
430.1
921.074
638.343
504.967
349.549
-265.717
61.1561
162.402
365.404
-252.53
102.367
103.436
401.906
-741.236
-135.328
-52.4388
282.258
-575.472
-33.5932
-43.5605
401.071
173.301
259.767
288.96
385.556
84.9429
240.203
212.055
359.384
544.689
425.681
352.439
293.17
443.696
373.539
283.954
273.263
-1017.91
-320.297
-185.057
198.672
-1383.45
-388.886
-326.092
339.729
-992.675
-293.277
-190.515
195.518
-1342.94
-368.857
-321.101
328.384
-988.152
-261.241
-222.113
180.557
-1213.66
-321.195
-312.945
283.854
-674.001
-103.116
-155.775
205.705
-1139.36
-250.414
-341.089
357.867
-492.221
-37.0186
-63.7617
342.887
-1359.99
-301.286
-265.4
296.841
-595.456
-110.858
-71.8357
79.317
-1218.31
-257.701
-247.972
285.581
-550.987
-97.5262
-69.5188
75.4288
-988.471
-179.536
-228.881
251.757
-458.924
-68.7074
-63.5856
70.879
-771.287
-119.215
-202.336
212.707
-387.234
-52.1752
-64.4541
61.4431
-511.994
-42.1032
-125.417
206.645
-212.029
-0.190851
-35.4006
66.0514
-180.009
91.414
91.1153
278.379
139.838
161.061
122.812
152.792
-429.06
-24.1421
-39.2311
226.573
-17.6421
76.3717
36.087
101.455
113.657
226.412
191.946
295.34
250.563
236.48
188.211
185.143
389.158
335.939
241.861
238.232
349.391
288.906
207.107
175.793
34.2229
12.6131
5.78758
3.18469
2.20833
14.8722
5.87145
2.76377
1.52065
1.04517
50.5059
21.5281
10.8159
6.1808
4.34893
39.1112
18.7313
10.0115
5.85733
4.15151
96.1367
44.0052
23.0419
13.3171
9.38489
147.248
76.9085
42.0038
24.6641
17.495
154.512
82.2703
44.9987
26.3607
18.6348
153.336
84.461
47.1029
27.829
19.7044
124.393
59.6664
31.5585
18.2927
12.9622
102.362
47.0321
24.6023
14.1758
10.0236
120.744
56.177
29.6726
17.1444
12.1019
78.1301
37.647
20.0794
11.6056
8.22868
142.271
70.5117
37.6489
21.8576
15.4356
128.031
63.7213
34.1601
19.8611
14.0558
142.969
77.9468
43.3094
25.5442
18.0764
138.356
75.539
41.905
24.6906
17.4805
36.9378
11.2785
4.88741
2.64228
1.82087
17.3012
4.41386
1.79855
0.940359
0.631095
43.7309
15.7368
7.45081
4.16216
2.88861
19.015
5.48599
2.41554
1.30821
0.883312
56.4166
21.4683
10.5458
5.93424
4.10329
26.463
10.5934
5.46531
3.17593
2.20547
98.6111
43.8308
23.0031
13.181
9.20402
47.0489
21.0632
11.1957
6.45116
4.49015
86.906
45.1892
24.7346
14.4469
10.2285
-2974.69
-4509.45
-2843.83
-4416.85
-2628.25
-4115.84
-2492.21
-3927.47
-2504.76
-4280.59
-1425.9
-2016.37
-1994.68
-3011.28
-906.403
-1183.2
-295.498
-421.397
-8392.26
-1999.25
-455.196
-100.321
-25.0285
-2215.61
-586.525
-156.36
-34.8477
-7.73373
-8232.93
-1939.22
-439.144
-96.214
-23.9189
-2298.37
-665.948
-162.695
-37.5246
-9.3614
-7776.07
-1809.19
-406.666
-88.6286
-21.9507
-2223.51
-640.336
-155.296
-35.4794
-8.77497
-7118.32
-1631.37
-364.609
-79.3632
-19.6815
-2102.94
-593.498
-141.475
-31.8734
-7.78727
-6106.71
-1383
-309.489
-67.7434
-16.9398
-1903
-516.681
-120.909
-26.9773
-6.54561
-3366.74
-813.585
-188.652
-42.3028
-10.7795
-938.981
-241.268
-52.9575
-11.0172
-2.53236
-4725.17
-1110.7
-252.986
-56.015
-14.1513
-1324.93
-349.733
-80.4383
-17.7717
-4.29787
-2100.5
-520.568
-122.461
-27.7364
-7.11098
-588.438
-154.802
-33.4685
-6.6503
-1.46356
-759.888
-190.99
-45.3588
-10.3635
-2.67652
-267.904
-64.2432
-13.0687
-3.61889
-0.52425
623.439
-1645.61
-5666.24
1744.44
-6801.39
-2993.41
-6668.75
-3046.22
-11372.3
-6197.28
-13317.9
-7275.5
-112.265
-438.871
-679.921
-785.972
-689.334
-354.687
-178.963
-672.505
-1022.32
-1136.7
-930.159
-335.962
-87.9682
-85.1045
-316.906
-296.213
-407.09
-392.411
-283.501
-295.056
-177.655
-218.731
-308.049
-241.295
492.76
1726.86
3366.19
2689.99
2441.74
1170.56
723.625
2150.99
3590.99
3987.53
3404.09
1559.18
-101.191
-85.485
-64.7344
-40.3161
-13.6851
-396.125
-335.233
-254.338
-158.646
-53.8974
-613.607
-519.183
-393.834
-245.636
-83.4505
-708.958
-599.516
-454.518
-283.366
-96.2465
-621.455
-525.146
-397.797
-247.809
-84.1279
-320.527
-271.274
-205.389
-127.66
-43.2439
-161.213
-136.093
-102.99
-64.1126
-21.7582
-606.651
-513.045
-389
-242.541
-82.3833
-921.925
-779.411
-590.816
-368.333
-125.111
-1024.29
-865.249
-655.445
-408.466
-138.723
-837.405
-706.682
-534.891
-333.18
-113.134
-303.268
-256.491
-194.292
-120.944
-41.0293
-79.3455
-67.0924
-50.8538
-31.6934
-10.7614
-76.813
-65.0002
-49.3065
-30.7488
-10.4446
-286.152
-242.289
-183.912
-114.756
-38.9913
-267.532
-226.58
-172.032
-107.365
-36.4839
-367.52
-311.123
-236.116
-147.308
-50.0474
-354.28
-299.916
-227.613
-142.006
-48.2476
-255.978
-216.735
-164.489
-102.608
-34.8529
-266.23
-225.227
-170.812
-106.509
-36.1741
-160.392
-135.725
-102.853
-64.0296
-21.7146
-196.978
-166.243
-125.759
-78.2502
-26.5439
-277.288
-233.675
-176.231
-109.235
-36.9505
-216.856
-182.494
-137.568
-85.3161
-28.8835
437.188
364.509
274.817
171.946
58.7261
1526.64
1269.1
956.214
599.317
205.065
2941.29
2426.61
1833.61
1163.44
402.629
2336.65
1947.59
1490.49
964.305
350.205
2133.15
1780.1
1362.96
877.142
306.163
1053.31
895.103
690.342
440.551
150.444
643.464
537.063
404.335
252.135
85.875
1907.42
1588.94
1196.42
747.626
255.188
3165.96
2627.66
1980.36
1244.04
427.025
3500.58
2903.08
2194.46
1387.87
480.939
2984.06
2474.69
1875.59
1191.13
412.917
1379.8
1154.94
881.944
562.203
194.822
243.449
569.713
809.192
911.707
810.316
489.226
362.29
853.285
1194.3
1287.93
1047.16
415.931
186.497
163.642
410.696
372.161
488.045
459.401
339.243
339.44
224.948
210.612
433.573
275.46
-336.696
-1504.81
-2967.69
-2167.99
-1802.89
-460.048
-665.221
-2058.57
-3372.49
-3591.65
-2819.61
-851.859
220.137
186.721
141.999
88.7433
30.1806
514.854
436.352
331.57
207.086
70.4067
731.003
619.288
470.392
293.704
99.8406
823.333
697.245
529.422
330.481
112.329
731.771
619.678
470.474
293.643
99.7967
443.364
376.694
286.57
178.929
60.7885
327.51
277.7
211.122
131.914
44.8581
770.761
652.894
495.878
309.607
105.247
1078.2
912.766
692.882
432.458
146.985
1161.94
982.948
745.727
465.294
158.128
944.117
798.156
605.241
377.56
128.308
376.227
319.042
242.406
151.301
51.4111
168.664
143.086
108.831
68.0204
23.1334
147.998
125.553
95.4943
59.6833
20.2973
371.227
314.719
239.21
149.427
50.8043
336.418
285.226
216.804
135.435
46.048
441.017
373.772
284.01
177.369
60.2956
415.115
351.79
267.284
166.914
56.7405
306.658
260.015
197.64
123.449
41.9645
306.624
259.766
197.304
123.182
41.867
203.656
172.954
131.602
82.2249
27.9469
190.209
161.098
122.317
76.3374
25.9381
392.19
332.626
252.72
157.702
53.5676
248.742
210.589
159.79
99.6553
33.8494
-295.034
-242.779
-181.296
-113.013
-38.5954
-1324.91
-1096.95
-824.519
-516.699
-176.911
-2577.48
-2114.18
-1593.27
-1012.24
-351.012
-1848.65
-1517.8
-1150.49
-744.771
-275.17
-1528.87
-1242.46
-931.739
-593.009
-205.853
-378.373
-291.178
-202.412
-116.122
-35.2756
-590.672
-492.339
-370.386
-230.965
-78.6824
-1824.47
-1519.28
-1144.09
-715.341
-244.295
-2967.7
-2458.78
-1851.52
-1163.49
-399.663
-3136.06
-2587.19
-1948.74
-1231.43
-427.33
-2441.34
-1999.91
-1502.13
-950.415
-329.444
-720.46
-575.378
-423.502
-264.979
-91.3495
-1992.62
-1434.49
666.024
1148.54
1215.65
1686.91
1088.47
-10194.4
-1667.87
-3124.06
-1372.3
616.697
-4042.43
930.147
2331.38
795.152
-5023.91
-2076.78
-610.929
-320.267
-2952.1
-801.525
150.66
103.151
1769.86
1692.08
-500.304
-321.029
-8438.25
-3862.76
-3631.43
-1869.93
-2910.49
-2281.34
588.704
1699.98
256.719
-1076.73
-881.256
-764.11
-838.497
-816.967
-999.017
-719.337
-564.155
-441.014
-185.527
607.77
518.888
394.545
245.092
82.9155
1033.24
871.539
659.867
411.394
139.762
1094.65
923.92
699.301
435.559
147.934
1517.93
1280.44
969.022
603.71
205.069
981.713
829.897
628.55
391.458
133.02
-7275.74
-6867.24
-6075.29
-6140.81
-6394.01
-1152.8
-719.565
-778.996
-858.841
-410.472
-2354.13
-1761.06
-1493.97
-1277.03
-641.63
-924.965
-635.989
-599.057
-535.41
-178.92
548.147
454.103
336.007
204.606
69.4779
-3337.53
-2658.36
-2056.4
-1416.81
-534.572
831.41
695.016
519.728
319.93
107.628
2020.23
1648.23
1234.51
780.757
272.41
716.911
604.333
454.179
279.661
93.7646
-3205.94
-3208.57
-2852.69
-3062.45
-3444.6
-1534.83
-1060.94
-885.743
-745.157
-309.627
-486.803
-377.848
-301.025
-220.18
-83.6347
-242.867
-176.672
-137.448
-102.286
-39.5347
-2454.9
-1944.88
-1486.32
-1000.93
-368.265
-667.965
-513.434
-378.85
-240.134
-71.0721
159.054
150.464
114.838
65.966
21.5376
113.021
110.529
86.5312
51.1236
17.3532
1578.99
1320.71
993.979
618.419
210.39
1520.38
1279.97
966.138
600.442
203.804
-417.325
-331.421
-251.256
-166.44
-59.9397
-257.748
-196.648
-147.425
-99.4353
-36.1195
-5307.36
-4192.92
-3744.31
-3797.21
-3372.01
-2897.59
-2216.86
-1765.96
-1338.03
-573.17
-2681.46
-2206.34
-1853.46
-1611.05
-691.472
-1378.34
-1082.45
-863.503
-659.228
-328.465
-2451.71
-1960.39
-1484.82
-972.693
-341.901
-1788.92
-1098.43
-892.426
-703.316
-45.5717
550.561
480.09
365.594
224.255
76.2288
1531.42
1292.57
977.178
607.483
206.133
257.936
239.079
182.674
108.509
38.6027
-87.0391
-186.385
-231.176
-291.597
-428.699
-599.185
-20958.8
-17267.8
-16178.6
-19371.4
-14780.2
-11360
-13536
-10300.7
-18538.2
-14773
-15610.8
-13301.8
-13435.2
-10254.9
-12719.1
-17686.4
-15506.3
-13743.3
-15608.1
-13156.1
-10219.4
-11670.3
-8770.8
-17166.3
-14499.3
-15473.2
-13572.7
-13379.9
-11168.8
-12989.8
-13805.5
-12652
-11038.1
-12019.5
-11016.5
-9117.31
-9807.69
-8394.03
-14260
-13075
-13532.7
-12619.2
-12339.5
-10695.6
-12072.7
-9500.69
-9111.32
-7860.95
-8181.47
-8434
-7898.97
-7486.09
-7444.28
-10305.5
-11417.9
-9978.35
-10963.6
-9526.87
-8687.03
-10411.4
-6115.44
-6018.84
-5060.67
-5147.01
-5934.06
-6006
-4989.35
-5149.47
-7201.35
-8795.83
-7078.71
-8211.55
-6973.34
-6766.19
-7825.22
-2233.42
-2218.33
-1821.62
-1840.73
-2232
-2341.98
-1792.29
-1782.93
-2939.13
-3695.31
-2871.68
-3263.54
-2857.81
-2835.01
-3112.33
-7745.84
-7783.21
-11006.3
-12133.9
-7790.75
-7360.18
-10225.2
-8508.92
-7206.4
-4568.37
-7333.27
-4493.67
-7408.42
-7454.01
-4585.69
-7358.31
-7181.85
-10148.4
-10973.7
-6925.19
-6080.87
-9218.28
-7544.43
-5055.89
-1791.65
-4995.27
-2031.33
-4234.27
-4046.69
-2380.44
-6181.3
-6058.28
-8546.31
-9023.84
-6068.78
-5567.73
-7990.66
-7143.3
-2656.02
-1692.28
-2614.78
-2292.43
-2531.99
-2805.08
-2971
-4547.08
-4548.88
-6268.48
-6423.29
-4666.63
-4578.7
-6148.07
-6021.39
-2738.62
-1568.46
-2933.69
-2505.84
-3187.72
-3742.8
-3416.79
-2826.9
-2834.84
-3995.53
-4039.81
-2768.29
-2759.88
-3959.41
-3896.73
-1535.21
-1159.5
-1725.15
-1981.46
-2180.55
-2668.26
-2675.15
-955.927
-961.797
-1414.57
-1425.03
-955.649
-997.167
-1396.44
-1351.37
-276.091
-485.055
-437.361
-902.361
-746.524
-970.301
-1123.59
7422.26
22335.2
5691.61
24945.5
3118.18
26388.5
5309.19
41717.5
8666.89
52367.2
8888.2
37197.4
9487.81
33078.1
9244.67
27776.9
4397.4
2414.72
13276.3
6308.47
4100.79
1894.14
14280.7
5761.99
5687.33
4213.87
16670.8
12239.2
3851.49
3053.63
17098.7
13004.8
8691.24
3165.75
6624.11
2428.08
3034.61
8096.76
40872
12477.7
12296.6
5659.16
49523
15504.7
11431.9
5341.98
27136.6
9039.6
13845.8
6299.68
22154.1
7035.31
5293.01
2850.61
8977.65
3640.88
4787.62
3001.11
9624.89
3648.94
6371.38
4040.93
6064.67
2563.65
10672.1
3868.13
4193.4
1554.49
13143.1
9975.23
7926.11
7157.83
14483.3
12723.5
7837.69
8371.3
7420.34
6439.63
9805.06
8464.45
5864.39
5074.75
3375.26
2913.96
5783.81
5776.18
3274.23
3284.47
5658.51
4488.35
3279.3
2338.83
6412.51
3618.65
6493.66
7107.81
8627.14
6554.76
9368.54
12228.3
4640.85
1997.27
4144.99
4248.19
2608.01
918.349
1893.36
1629.46
6239.88
12523.4
4491.33
14139.4
6749.37
12619.3
5370.48
14978.9
8812.79
12475.2
7409.31
15190
9507.88
11152.8
7556.69
7635.33
9187.61
7360.87
8327.19
11606.1
13639.9
19888.6
9982.48
8271.73
8025.47
10163.7
15998.8
15619.5
15145.6
18254
18401.2
15175.7
15227.4
18235
18225.6
13935.5
14496
17434.3
17674.5
9263.15
9856.07
9278.46
9839.1
11325.3
11447.4
13342.7
13094.1
16932.1
17225.9
8433.55
9315.16
9680.08
10486.6
10930.7
11982.8
12692.4
14099.8
16753.3
18398.3
9889.49
6759.02
7989.54
8003.14
10954.8
12367.3
8900.37
11678.9
7411.4
7483.64
9450.18
6803.81
3415.58
5769.51
1386.4
2144.01
5508.55
8638.52
2140.96
3221.66
2916.79
5112.54
1090.57
1865
7106.15
6052.17
7301.33
4602.31
10028.9
7189.14
11458.1
7712.62
3359.67
3855.6
4163.55
2392.07
2551.99
2757.66
2834.01
2149.43
13200.3
8712.52
2870.57
14283.3
9015.27
3121.74
12970.9
8516.16
2913.81
14243.4
8992.85
3057.23
12350.4
7990.42
2684.02
13951
8837.39
3044.91
7123.22
4118.37
1101.09
8617.11
5895.61
1922.66
10013.6
7047.78
2382.44
11154.8
7299.91
2403.06
13458.1
8516.23
3013.02
7792.11
4319.77
1430.47
7806.89
5089.79
1784.34
8885.1
5889.4
2032.94
10567.8
6812.85
2341.3
12783.5
7516.15
2615.71
-505.741
989.461
433.318
2650.35
1827.39
1835.53
4701.9
4104.36
596.016
962.8
630.1
1005.94
343.503
938.113
629.201
1373.79
1875.66
1132.01
3807.84
2706.69
1732.68
2840.62
2939.6
771.499
6006.24
1863.55
-4282.05
-719.197
601.91
622.188
-61.2558
71.2914
10215.2
4381.45
2702.04
1565.96
10070.6
4441.01
2950.8
1857.87
9707.15
4835.48
3945.5
2736.39
3033.84
1935.59
1645.29
1470.16
13200.5
11521.7
5760.99
7367.2
14996
13995.3
7290.46
8736.04
5162.45
6229.87
11069.8
9091.57
3642.45
4788.08
2063.18
2756.5
4853.81
5673.29
2767.39
3219.22
2902.02
4092.68
1591.51
2468.73
4545.53
3153.19
5138.6
3359.11
7860.33
4549.25
6920.95
4407.59
2673.03
2148.03
3556.2
2300.74
1465.22
1336.89
2239.7
1419.81
11844.3
7700.48
5669.75
5766.47
11732.9
7666.22
5583.8
5631.72
11846.6
7381.61
5663.85
5233.05
13298.7
13028.5
12245.5
9285.66
5192.22
7919.09
9376.63
9737.45
8982.34
6088.21
11279.7
9948.48
8115.64
6440.9
4063.68
6393.34
6177.11
6301.75
7456.82
6378.75
6007.67
6156.03
7316.03
6129.4
5739.18
5869.76
7028.32
8888.89
8412.62
8106.39
6945.26
5919.02
5877.81
5572.97
5735.24
5132.11
6650.76
6550.62
7422
5369.3
6086.64
4654.54
5290.54
4429.42
5261.45
3872.91
6109.61
4769.54
3826.93
3269.05
1789.31
7432.9
5644.24
6002.11
3825.12
2419.26
1397.58
3581.46
3218.3
4216.41
1858.12
1943.78
1073.56
5567.8
3208.31
2267.3
1564.47
3360.17
1432.12
1698
848.815
1955.5
2314.29
2354.77
3953.89
2960.43
3578.35
2814.48
5114.28
2395.16
1704.93
1742.15
2852.43
1058.19
403.967
336.669
687.934
4832.81
2220.21
642.757
5131.16
1377.49
365.794
4743.82
2337.59
732.465
5113.91
1424
397.66
4388.46
2186.16
570.536
4892.79
1328.99
304.63
5719.28
3159.46
846.665
4658.31
2530.36
713.688
4402.22
2241.49
647.553
4184.7
2008.9
477.861
4670.45
1187.19
208.391
6315.04
3349.8
1049.98
5301.68
2902.52
959.406
4645.37
2456.66
809.641
4312.67
1808.73
500.161
4904.27
1245.81
401.086
1653.84
625.277
306.321
32.2868
667.533
265.241
139.611
32.6658
1711.51
671.638
365.858
87.6252
812.982
357.806
232.398
107.596
1954.02
798.868
474.025
159.205
1387.25
697.067
384.281
173.124
1016.29
614.53
272.683
83.1774
1049.7
691.489
378.326
200.117
1618.59
756.315
390.577
53.5401
1531.64
695.272
415.009
-8.87919
2038.87
849.722
512.986
129.956
1818.08
747.663
478.518
-25.1735
1223.3
652.31
328.014
50.3779
1187.67
606.89
367.1
66.4042
904.308
559.605
336.239
186.374
825.368
500.255
332.057
181.612
2112.27
766.961
386.802
-27.8484
2186.21
746.829
442.852
-157.443
2099.84
776.375
419.407
-0.776505
2090.76
718.389
440.8
-144.678
2108.99
796.109
484.044
43.2372
1874.45
650.224
436.548
-96.1853
1958.98
765.217
525.547
152.242
2067.74
734.79
556.868
-83.9275
1516.3
592.737
413.747
60.0629
1791.12
548.325
336.315
-153.824
701.139
195.133
103.679
-32.5731
1762.47
553.275
342.41
-134.625
711.747
204.279
112.978
-21.2323
1663.91
540.429
353.674
-100.53
689.334
206.795
124.557
-5.65576
1406.01
463.694
338.503
-61.8418
609.425
183.365
132.779
14.3007
1235.01
432.716
324.078
-9.4102
552.998
185.787
145.711
41.5226
960.757
411.874
250.064
23.9572
507.422
252.834
151.355
76.3508
1025.36
378.386
265.948
7.02624
504.533
206.217
145.627
61.8205
850.177
435.616
257.324
63.6291
509.138
294.208
169.481
100.426
660.579
414.351
267.011
152.929
468.278
312.943
199.116
141.497
15.8547
9.01602
5.18868
3.0928
2.18362
8.22309
4.53171
2.58841
1.54574
1.09696
32.4796
18.7535
10.6781