/*--------------------------------*- C++ -*----------------------------------*\
| =========                 |                                                 |
| \\      /  F ield         | OpenFOAM: The Open Source CFD Toolbox           |
|  \\    /   O peration     | Version:  2412                                  |
|   \\  /    A nd           | Website:  www.openfoam.com                      |
|    \\/     M anipulation  |                                                 |
\*---------------------------------------------------------------------------*/
FoamFile
{
    version     2.0;
    format      ascii;
    arch        "LSB;label=32;scalar=64";
    class       volScalarField;
    location    "1.8";
    object      gradTx;
}
// * * * * * * * * * * * * * * * * * * * * * * * * * * * * * * * * * * * * * //

dimensions      [0 -1 0 1 0 0 0];

internalField   nonuniform List<scalar> 
5712
(
-8128.2
-9937.45
-18556.6
-29015.3
-28054.3
-54739.4
-19368.3
-58291.7
-19974.5
-46734.7
-24568.2
-40419.7
-18787.9
-24871.3
-10108.7
-10269.2
-13281
-15076.2
-18161.7
-16480.4
-12596.8
-18958.6
-18775.4
-18787.3
-5343.66
-3893.79
-7242.17
-5197.81
-12136
-7924.81
-22412.8
-15674.2
-18648.4
-18941.8
-18993.9
-19306.4
-4433.96
-3923.53
-43317
-53555.8
-23065.8
-30764.7
-55746.9
-68610.4
-25817.8
-31771.9
-32495.1
-42470.4
-25927
-35877.8
-14930.6
-18879.4
-3075.97
-976.629
-3989.76
-1385.46
-6887.33
-2836.39
-11894.4
-4372.95
-7853.62
-2607.99
-7877.52
-2234.04
-15456.7
-4507.67
-20244.3
-6355.97
-25985.8
-14888.1
-21953.7
-15165.9
-26522.9
-17094.8
-21034.2
-16979.7
-17083
-12326.6
-18779.3
-11902.5
-21322.8
-15700.8
-22039
-16104.4
-20616.4
-17344.4
-21425.4
-17686.6
-17617.3
-13040.1
-18986.5
-13520.1
-18840.3
-7759.37
-10783.6
-12337.8
-20288.2
-8968.93
-10724.7
-12947
-18881.8
-7228.39
-11276.2
-12139.2
-19518.8
-7270.67
-11848
-12236
-2976.16
-3354.46
-1049.3
-2099.52
-8575.7
-10080
-3543.72
-6787.35
-13945.9
-16565.3
-6350.21
-11419.1
-17785
-9341.71
-18184.9
-21983.5
-11137.8
-6786.6
-10871.6
-12685.1
-22338.3
-14429.2
-10301
-13570.4
-15120.5
-14733.7
-18435.2
-3282.29
-3358.29
-2042.62
-2176.51
-9726.72
-9231.49
-6314.14
-6395.77
-14573.4
-13263.8
-9351.22
-9366.79
-9780.9
-10914
-15450.9
-16395.9
-17434.6
-16391.7
-20817.7
-19060.9
-14541.4
-14482.7
-13236.8
-14282.6
-17096.7
-15507.6
-16167.3
-13419.9
-14551
-11552.6
-16308.2
-12912.8
-14376.8
-7582.63
-11304.2
-10924.1
-15841.3
-18330.4
-16177.9
-21005.8
-9554.82
-9347.84
-13053.2
-5759.35
-10942.8
-17181
-11333.3
-18372.7
-16426.8
-25780.9
-16992.1
-26414.9
-9295.07
-15139.5
-9636.3
-16437.8
-11471
-8462.78
-14778.3
-6587.08
-12394.7
-4459.64
-13975.7
-3211.46
-11937.8
-12199.1
-15487.6
-7942.67
-10785.4
-14093.4
-14237.9
-10125.7
-3127.22
-2896.02
-2474.44
-2023.64
-1971.84
-1713.24
-8433.96
-7213.07
-6240.5
-5540.46
-4592.51
-3841.56
-10996.2
-9225.55
-8369.48
-7986.34
-6353.89
-5692.05
-9738.09
-7790.45
-7334.03
-15237.9
-11181.4
-8989.88
-13841.8
-9998.38
-7657.69
-15468.1
-11962.8
-9962.22
-12159.2
-8164.86
-5999.62
-18216.8
-14639
-12871
-13449
-10500.8
-8586.32
-11972.1
-8858.64
-6857.15
-10791.9
-7933.86
-6184.69
-11797.8
-6974.78
-4255.98
-11594.7
-18878
-9854.95
-14096.3
-9477
-19485.7
-7950.02
-15994.5
-170.902
-1721.52
261.515
-1014.81
-3558.98
-6723.26
-2240.09
-4083.39
-1851.89
-3923.9
-11064
-16454.1
-8750.88
-6556.97
-11814.9
-10333.6
-15924.3
-17058
573.544
5605.72
-8453.96
-5919.78
-6636.48
-3819.63
-1581.17
-1010.67
-1281.68
-789.486
-3887.15
-1230.5
-1943.73
-240.396
-9986
-2959.57
-7547.6
-2328.58
-8599.08
-2587.32
-9741.22
-3203.43
-12390.5
-12226.5
-9644.59
-12116
-18900.4
-16998.7
-15472
-16155.2
-7103.76
-9280.88
-8286.42
-8570.64
-9036.59
-12041.2
-9508.05
-12155.6
-14775.9
-15837.7
-15319.3
-15953.6
-6283.57
-9412.11
-6086.89
-9531.38
-722.926
-1361.57
-7385.78
-4031.83
-695.937
-1124.81
-6462.14
-3399.06
-727.657
-1228.87
-7801.68
-4447.12
-1038.13
-1350.92
-7882.58
-4694.79
192.948
339.773
-470.623
-310.39
893.746
1423.75
-747.345
-465.508
-1098.66
-42.475
-2483.59
-2130.79
7644.11
3875.49
4517.93
3055.74
38.3601
7086.23
10337.8
4905.11
4999.89
62.9978
-9503.25
-6896.74
-5584.88
-5685.65
-3245.02
539.562
438.427
-169.968
-260.994
1519.54
1655.94
-466.447
-633.917
1323.44
1880.31
-1335.7
-1582.58
3051.74
1514
7972.84
5568.81
4271.13
3023.83
3914.21
3220.14
-194.873
-889.759
-5028.98
-3505.72
444.468
2114.25
687.195
1906.79
-313.565
737.929
-700.443
-1038.51
-4071.34
-4490.64
-9661.91
-6119.71
-8699.65
-8421.68
-13037.5
-10154.8
-7308.31
-4461.89
-2452.76
-3142.6
-11431.9
-4836.24
-12263.4
-4470.08
-14969.4
-9797.37
-15942.2
-9433.85
-8812.41
-3241.31
-9577.86
-2799.45
-5391.99
-4337.43
-3961.45
-7010.12
-2606.38
-3483.33
-2558.75
-5869.05
-5946.43
-4028.64
-4831.43
-8054.85
-7218.33
-3789.33
-5759.4
-7954.29
551.715
696.641
804.244
-165.471
134.419
181.034
1971.52
2314.31
2467.6
-225.04
553.995
663.338
2397.03
3305.37
3688.93
-829.689
969.63
1337.8
754.562
1307.36
1169.29
4186.09
4459.15
4116.57
3271.62
3786.4
3646.51
3504.81
4302.77
4417.82
-436.085
1408.13
1330.37
-4124.63
-2058.79
-1202.87
1181.22
2329.26
2699.41
1463.38
2670.51
2973.47
907.891
2358.71
2657.92
-1604.54
948.652
1116.07
-72.7726
4.794
31.1047
63.2017
99.1469
94.0384
109.952
104.127
-195.663
2.58381
85.9655
168.505
226.516
215.397
236.638
233.655
-385.865
-53.0467
85.7571
260.147
34.9151
174.597
195.769
257.288
41.5447
113.772
71.2698
79.9169
-153.248
-13.6159
36.6321
90.0937
-981.432
-298.618
-137.377
130.998
-1453.16
-466.954
-318.132
182.484
-813.25
-225.094
-66.2954
245.75
-1180.4
-373.011
-276.623
187.106
-907.165
-287.56
-128.596
109.021
-1604.19
-517.701
-338.948
229.697
-964.303
-334.89
-122.477
154.193
-1685.42
-548.18
-355.097
252.723
-69.9296
-5.09348
9.14237
54.9238
-58.1907
-2.16272
-4.57182
58.2536
-189.569
-18.6495
27.435
147.289
-96.6106
16.1069
1.95296
159.521
-664.972
-174.344
-56.634
220.63
-507.837
-109.479
-58.13
255.022
-310.847
-32.3821
24.6581
259.944
-207.238
-6.48439
-18.0804
252
-991.444
-288.893
-212.298
278.185
35.2789
28.0812
17.2048
48.3727
121.368
53.4014
30.0499
30.7242
26.9707
54.3834
28.131
125.67
297.988
138.243
73.2083
80.5058
-70.3826
39.5019
23.8082
196.263
407.675
199.417
109.387
122.678
-87.203
52.2531
29.8742
259.301
432.78
235.029
122.194
143.064
-285.498
10.3174
-45.9347
244.029
250.666
210.149
86.7579
129.066
-1001.96
-129.38
-162.027
218.125
-288.812
64.7324
10.5142
86.9736
-642.63
-37.3842
-116.347
225.694
-75.5377
139.393
45.1186
108.4
-1308.86
-253.589
-218.023
233.421
-430.781
-12.5823
-22.8487
75.4212
-1526.54
-384.59
-279.701
228.043
-560.958
-106.486
-63.2966
61.4546
24.6466
11.498
5.81907
3.23659
2.22248
34.4819
17.5598
9.26835
5.27602
3.65487
52.3544
24.4373
12.3244
6.87579
4.76341
90.6951
47.8276
25.662
14.7958
10.3285
75.132
35.3873
18.1113
10.2291
7.14004
130.911
68.1736
36.889
21.4601
15.0594
43.9522
22.3115
12.1217
7.09384
4.9917
24.0081
11.9825
6.40514
3.73168
2.61691
66.771
29.5436
15.2017
8.67813
6.04061
14.5617
4.30514
1.7787
0.902413
0.596617
100.512
49.017
26.043
15.0678
10.5612
27.2684
10.8681
5.36413
2.99549
2.05394
21.9698
6.14936
2.39131
1.1866
0.782513
14.9992
4.8145
2.13203
1.1464
0.782548
20.2709
5.46812
2.06156
1.01604
0.650311
10.0392
1.53137
0.24326
0.0216141
-0.0259834
19.8742
8.65531
4.19182
2.26037
1.52831
19.0155
8.23662
3.98029
2.14231
1.44714
45.9307
19.6807
9.54124
5.16666
3.51816
44.2882
18.7164
9.06636
4.89968
3.31726
59.7744
24.0753
11.5665
6.24154
4.25297
53.8496
23.0599
11.3946
6.21367
4.25603
73.1638
34.7724
18.2549
10.4552
7.32291
36.5413
16.9518
8.67524
4.82008
3.3573
42.4366
21.0201
11.2597
6.54926
4.60083
-508.342
-622.554
-1403.19
-1773.31
-2150.01
-2843.48
-2602.23
-3762.94
-2560.85
-3703.8
-2320.7
-3119.09
-2109.43
-2572.59
-2700.15
-3689.69
-2832.56
-3876.38
-533.067
-117.176
-25.5745
-5.4405
-1.32477
-218.105
-80.3318
-8.61054
-2.49209
-1.01767
-1722.01
-381.236
-83.6951
-17.9432
-4.40145
-563.601
-119.932
-24.2989
-4.73239
-1.00852
-3027.32
-674.092
-148.865
-32.2086
-7.97145
-991.315
-236.247
-52.3179
-11.4443
-2.77427
-4325.29
-968.558
-216.021
-47.2841
-11.8505
-1393.39
-363.651
-86.3218
-19.8871
-5.06478
-6000.98
-1382.58
-315.038
-70.24
-17.9142
-1860.73
-551.069
-138.823
-33.0337
-8.63975
-8011.69
-2016.08
-485.267
-112.687
-29.6552
-2169.8
-679.586
-176.672
-42.7858
-11.3774
-7332.53
-1787.97
-419.866
-95.576
-24.7547
-2093.27
-664.018
-172.522
-41.699
-10.9945
-8326.56
-2123.37
-517.521
-121.531
-32.2707
-2225.94
-675.889
-172.825
-41.3606
-10.9631
-8564.63
-2177.33
-532.992
-125.869
-33.5988
-2232.17
-678.799
-173.321
-38.5084
-10.8152
-252.27
-6705.57
-6583.59
-3699.31
3773.92
5188.06
10441.6
13734.9
5940.73
11985.7
2259.29
7193.81
5838.25
9718.57
10699.6
14769.8
12881.4
14666.8
7355.32
8327.09
-18996.5
-14140.1
-4215.13
-3228.71
-2503.71
-4013.23
-2839.83
-12337.6
-11968
-10298.9
-10776.6
-8779
-6071.77
-8435.7
-5102.82
-3906.17
-4818.46
-3079.16
-20398.6
-10047.4
-2932.03
-4937.72
-7560.5
-5098.91
-5953.73
-4474.06
-2153.48
-3635.42
-3225.3
-3766.06
-19047.6
-11784.1
-11812.2
-7465.19
-7893.77
-7969.56
-3871.44
-4902.65
-5158.09
-12761.5
-12042.2
-10173.7
-9898.61
-8826.37
-10051.2
-7429.13
-6092.35
-4983.47
-2239.01
-3723.06
-3083.24
-2307.42
-1434.32
-487.197
-2882.35
-2411.15
-1813.05
-1125.81
-381.876
-2220.31
-1842.86
-1374.87
-848.546
-286.98
-3585.03
-2999.34
-2253
-1396.44
-473.089
-2518.91
-2092.5
-1564.21
-967.896
-327.895
-8147.83
-6869.65
-5429.52
-4972.11
-5277.65
-6531.2
-5126.19
-3594.14
-2878.88
-2369.86
-7131.31
-4857.23
-3638.67
-2687.71
-1171.78
-5823.61
-4327.46
-2968.67
-2281.96
-1570.28
-4451.66
-3085.57
-2030.76
-1630.85
-956.015
-4829.89
-3626.12
-2567.81
-1590.08
-560.634
-6048.41
-4187.44
-2957.85
-1932.88
-764.858
-3579.83
-2361.28
-1592.3
-997.526
-376.107
-3224.18
-2495.18
-1780.87
-1087.12
-372.001
-3881.28
-2926.25
-2050.05
-1239.4
-423.836
-2570.87
-2008.09
-1436.03
-871.556
-295.418
-13798.2
-11306.7
-9278.51
-8466.6
-7749.3
-7705.8
-5725.88
-4334.4
-3074.64
-1286.76
-2436.8
-1902.94
-1374.06
-849.548
-293.246
-4177.85
-3327.2
-2448.04
-1536.66
-533.948
-6225
-4860.69
-3609.58
-2349.39
-849.952
-4347.78
-3489.34
-2589.37
-1634.93
-565.194
-5169
-4210.35
-3134.33
-1959.7
-666.8
-3893.98
-3178
-2355.1
-1460.22
-497.311
-1855.24
-1494.4
-1089.89
-665.325
-224.621
-3193.29
-2625.5
-1946.56
-1199.23
-405.861
-2739.98
-2180.68
-1584.45
-972.341
-331.038
-3253.81
-2635.95
-1942.52
-1201.55
-409.682
-12717
-11273.2
-9524.34
-9015.52
-7817.25
-8704.41
-6475.15
-5185.25
-4030.66
-1787.93
-9433.76
-7603.68
-5986.65
-4629.9
-2036.02
-6088.13
-4587.92
-3486.15
-2374.95
-757.879
-6636.5
-5232.73
-3911.17
-2525.4
-853.252
-6473.78
-4847.85
-3668.27
-2492.25
-774.034
-3334.38
-2695.29
-1993.07
-1242.47
-425.032
-4310.16
-3550.57
-2642.74
-1636.12
-555.261
-4436.84
-3585.54
-2656.45
-1661.64
-569.951
-6471.81
-14221.7
-11357.2
-37028.2
-10689.1
-48257.4
-7177.51
-18992.8
-9329.81
-7861.38
-18368.9
-14340.1
-9466.78
-11373.4
-20056.5
-16620.6
-4068.75
-2775.69
-9379.32
-6597.01
-7125.55
-3723.98
-25832.6
-18229.9
-15588.9
-10822
-16202.1
-10547.1
1786.47
-1537.29
-44386.2
-53964.1
-22375.5
-30659.2
-56504.1
-68913.3
-24988.3
-31573.1
-33215
-42883.4
-25256
-35857.3
-16036.4
-19324.3
-2193.72
-419.638
-4792.27
-1544.18
-4150.62
-1961.9
-13412.7
-4793.58
-2087.13
-994.589
-5871.52
-1628.09
-15504.9
-4467.65
-20426.8
-6398.14
-18925.8
-11628.4
-19561.9
-13526.3
-18317.8
-13065.2
-18295.4
-15037.3
-15453.3
-11092.7
-14171.2
-9560.24
-20365
-14940.6
-21801.9
-15886.9
-19491.9
-16476.8
-21114.7
-17436.4
-17020
-12453.9
-18851.5
-13350.5
-17912.7
-7527.89
-9900.36
-11959.9
-17461.9
-8227.74
-8984.14
-12238.9
-18610.3
-7155.47
-10859.6
-11948.9
-19483.4
-7261.29
-11725.3
-12180.8
-672.128
-506.383
111.918
-705.558
-2508.34
-3113.2
-1780.56
-4643.75
-3759.55
-5042.58
-3929.56
-8536.47
-17108.2
-16314.1
-13741.9
-16199.1
-9813.64
-10909.9
-8731.52
-7630.49
-16028.7
-13221.3
-12812.4
-12248.3
-11712.1
-11088.2
-16913
-727.832
-924.354
-474.97
-704.862
-3118.41
-2791.2
-3544.5
-3508.46
-3028.45
-1608.53
-5881.13
-5599.02
-11871.2
-12721.5
-11154.6
-11109.6
-10195.9
-8491.39
-13796.7
-11862.3
-12350.1
-11675.7
-15348
-15752.6
-14534
-12990.5
-11985.4
-9833.95
-10831.8
-8460.62
-14596.2
-10811.5
-13331.5
-7878.99
-10923
-11004.6
-16313.7
-19241.3
-16267.5
-21325
-8955.21
-9242.5
-11476.7
-5687.27
-10800.6
-17146.7
-11287.9
-18350.4
-16497.6
-26037.3
-16993.6
-26432.2
-9053.39
-15011.9
-9566.64
-16397
-10935.8
-8350.84
-14495.1
-6567.74
-11070
-4442.92
-13392.8
-3420.51
-11714.2
-12092
-15354.4
-7913.27
-10721
-14056.2
-14203.5
-10105.6
-1121.78
-859.055
-641.653
-790.934
-2141.67
-1046.49
-2934.64
-2925.74
-499.856
-334.949
-5189.97
-5032.86
-13694.7
-11744.9
-10893.2
-8372.08
-7130.17
-4826.62
-9494.05
-7202.34
-10124.9
-6787.77
-19982.5
-16950
-10527.7
-8469.65
-8222.34
-6012.31
-7194.13
-4943.21
-8134.18
-4114.56
-5892.61
-11250.9
-5429.17
-11016.7
-7438.43
-12125.7
-8779.13
-13632.2
-1655.25
-1564.46
-1474.81
-1487.73
-4640.13
-4869.14
-4335.86
-4504.26
-1881.55
-2235.31
-9139.07
-10006.8
-5598.62
-6323.62
-10660.1
-10068.4
-14832.1
-16751.6
643.577
5472.92
-7808.87
-5827.7
-6374.22
-3830.23
-1384.53
-1310.69
-1511.05
-1287.22
-3100.61
-2053.91
-2441.17
-1480.15
-8274.33
-4031.34
-7768.5
-3694.74
-8651.68
-3358.75
-9789.63
-3516.72
-6707.47
-9705.41
-7599.17
-10731
-11544.2
-13085.3
-12876.1
-14225.6
-5958.54
-8632.1
-5155.38
-7672.18
-8183.96
-11443
-9254.48
-11983.6
-13665.3
-15000.2
-14991.3
-15712.3
-5820.62
-9135.31
-5950.47
-9453.26
-830.911
-1807.59
-7382.37
-4286.68
-977.461
-1906.51
-6655.14
-3789.47
-889.739
-1587.34
-7815.02
-4630.61
-1109.28
-1499.97
-7873.23
-4777.42
-1267.35
-1434.11
-1322.08
-1490.84
-3085.67
-3416.41
-2298.66
-2627.64
-7517.43
-8097.19
-4266.93
-4659.78
-4174.22
-9540.69
-2759.14
-426.541
-1463.57
-4166.92
-1170.56
-1939.7
1825.04
-948.047
-13893.2
-10083.2
-7712.94
-7466.41
-4091.05
-1721.11
-1864.72
-1739.57
-2102.91
-4034.99
-4303.87
-3105.1
-3847.8
-8580.34
-9596.98
-4699.33
-5899.75
-6183.18
-7498.28
-2149.18
-4170.41
-3413.78
-4698.84
-942.374
-1807.26
-1895
-2969.73
-11361.2
-8845.14
-6200.14
-4274.32
-4595.69
-3149.85
-4364.77
-2959.75
-2447.24
-3032.27
-7428.91
-7926.34
-11199.6
-7623.58
-11253.5
-11196.7
-14002
-11376.6
-9145.95
-5999.15
-5724.12
-6418.2
-12172.5
-5692.69
-12463.1
-4668.84
-15402.4
-10517.7
-16040.7
-9580.75
-9749.14
-4114.89
-9846.59
-3023.25
-7187.48
-5785.67
-5555.5
-8701.44
-5459.31
-6352.34
-4607.85
-8568.55
-6908.21
-4892.75
-5792.51
-9069.45
-7514.77
-4050.54
-6067.58
-8219.71
-1550.32
-1624.28
-1490.24
-1201.38
-4657.32
-5261.29
-2370.89
-1373.62
-10283.2
-8529.45
-3498.75
-425.741
-9348.55
-8066.16
-5988.89
-4973.39
-5002.08
-3987.13
-1861.95
-901.59
-2097.35
619.688
-8472.55
-6996.1
-4194.12
-2961.63
-2815.79
-1460.63
-2213.45
-714.671
-3680.91
396.858
-291.883
-120.058
-39.3688
25.8054
-309.626
-150.532
-35.139
18.2013
-749.638
-312.98
-84.1661
90.2264
-706.47
-351.379
-116.079
-1.04677
-1119.22
-475.162
-163.708
127.35
-1096.33
-533.178
-293.218
-107.632
-649.488
-333.578
-216.926
-80.0573
-452.104
-213.163
-92.6703
14.7591
-1383.44
-551.439
-325.631
-7.7069
-1585.59
-525.182
-375.288
182.436
-1392.41
-551.929
-311.45
29.6051
-1352.15
-449.039
-349.7
186.507
-1215.72
-486.831
-250.719
65.0831
-1706.04
-564.544
-390.422
205.315
-1096.87
-422.619
-178.526
127.634
-1730.19
-570.428
-375.25
246.359
-275.332
-102.793
-41.1481
37.0016
-275.596
-90.2015
-54.4801
42.4385
-710.639
-270.483
-103.609
101.291
-698.623
-237.718
-136.856
120.562
-1241.82
-467.082
-225.405
176.479
-1200.51
-419.31
-246.134
205.658
-1224.6
-497.049
-264.543
81.3571
-903.496
-334.177
-198.906
213.014
-1369.07
-467.494
-360.708
235.424
-204.059
-65.848
-27.9685
28.2758
-122.389
-46.5337
-15.2725
3.33551
-559.39
-182.943
-93.405
71.5937
-338.013
-131.884
-54.5925
3.9783
-775.104
-266.285
-145.769
114.891
-469.396
-204.514
-86.3017
5.91908
-906.754
-335.758
-192.646
145.864
-599.959
-274.867
-124.603
0.521238
-1078.55
-376.298
-281.506
113.647
-808.762
-320.042
-181.755
-30.6187
-1865.33
-612.478
-453.844
59.5282
-998.751
-347.518
-216.323
-46.4245
-1605.93
-530.308
-414.835
62.493
-1035.6
-361.017
-221.467
-51.715
-1867.31
-587.962
-420.742
126.234
-860.415
-285.059
-175.004
-9.62421
-1712.99
-500.943
-350.364
191.473
-698.323
-198.571
-115.213
32.9003
-5.79384
-7.81832
-5.3699
-3.44334
-2.51562
-20.017
-14.3538
-8.84613
-5.47997
-3.96469
-13.164
-16.4958
-11.2562
-7.17401
-5.19527
-63.8637
-41.0791
-24.4785
-14.9192
-10.7119
-30.0513
-26.382
-16.8372
-10.4863
-7.52393
-97.7829
-60.1188
-34.9141
-21.0022
-14.9922
-32.8296
-19.9229
-11.4696
-6.8612
-4.8889
-15.8147
-10.0908
-5.9831
-3.61924
-2.60306
-27.8147
-22.6526
-13.8923
-8.50642
-6.11781
4.41571
-1.5075
-1.49272
-1.03319
-0.77323
-66.648
-41.9462
-24.3555
-14.6411
-10.4442
-6.02067
-7.66966
-4.93088
-3.07272
-2.23561
6.92785
-1.28987
-1.71086
-1.23802
-0.937631
1.36953
-2.23548
-1.75926
-1.15053
-0.845627
8.11554
-0.843652
-1.46705
-1.09808
-0.878883
8.81752
1.1163
0.0222434
-0.121561
-0.146386
-0.778507
-5.21021
-3.93192
-2.60203
-1.92219
-2.35999
-5.22434
-3.78232
-2.4827
-1.83057
-4.39264
-12.6747
-9.15259
-5.97191
-4.37545
-7.10851
-12.7293
-8.87909
-5.75521
-4.2263
-4.80926
-16.3738
-11.5114
-7.45392
-5.44198
-18.2837
-18.4675
-11.8472
-7.50979
-5.44628
-47.6861
-30.3168
-17.6007
-10.6373
-7.57904
-23.4187
-15.5565
-9.21605
-5.69732
-4.07015
-34.2782
-18.8458
-10.5395
-6.25359
-4.44197
-184.96
-313.916
-626.045
-1009.35
-1230.42
-1898.05
-1815.9
-2888.85
-2051.56
-3140.28
-2305.93
-3118.25
-1958.2
-2508.52
-2713.33
-3693.3
-2840.37
-3879.16
-519.144
-116.326
-25.5531
-5.44756
-1.32751
-155.303
-72.6976
-6.97848
-2.26265
-0.996367
-1695.68
-380.697
-83.9552
-18.0219
-4.42129
-406.912
-94.1898
-20.1085
-4.05521
-0.884914
-2988.15
-672.591
-149.118
-32.3078
-7.99832
-801.514
-204.625
-47.1037
-10.5983
-2.61924
-4262.61
-962.564
-215.486
-47.2482
-11.851
-1226.78
-334.746
-81.3548
-19.0482
-4.90579
-5916.48
-1370.86
-313.289
-69.967
-17.8638
-1759.15
-530.504
-134.929
-32.329
-8.49923
-7950.52
-2002.28
-482.395
-112.122
-29.5316
-2161.41
-675.574
-175.585
-42.5419
-11.3205
-7251.38
-1772.62
-417.039
-95.0641
-24.6497
-2055.65
-652.929
-170.053
-41.2056
-10.8896
-8288.61
-2114.18
-515.491
-121.115
-32.1764
-2225.1
-674.867
-172.493
-41.2814
-10.9436
-8552.09
-2174.23
-532.286
-125.722
-33.5651
-2232.56
-678.712
-173.276
-38.5017
-10.8126
-137.124
-6563.47
-6079.48
-2916.6
-1498.96
-863.595
-3191.24
-2469.43
-5562.76
-6058.44
-3186.82
-2994.23
-355.522
-544.565
-923.814
-1442.53
-2058.72
-2683.44
-246.58
-517.795
-1058.19
-1808.91
-2687.17
-3589.2
-275.954
-119.927
-489.878
-303.083
-913.999
-679.021
-1474.08
-1265.53
-2041.34
-2013.14
-2538.7
-2763.57
-3344.35
-4055.85
-4937.4
-7013.74
-7435.72
-9027.04
-4412.73
-5000.22
-5167.88
-4986.71
-4148.01
-3734.87
-321.152
-272.034
-206.583
-128.956
-43.829
-491.585
-416.074
-315.725
-196.971
-66.9251
-833.277
-704.638
-534.242
-333.099
-113.146
-1299.7
-1097.71
-831.367
-517.999
-175.898
-1851.78
-1561.23
-1180.76
-735.119
-249.554
-2407.15
-2023.93
-1527.73
-950.386
-322.59
-222.618
-188.48
-143.066
-89.2711
-30.3317
-467.166
-395.182
-299.713
-186.908
-63.4916
-954.021
-806.341
-611.096
-380.918
-129.373
-1629
-1375.18
-1041.18
-648.646
-220.258
-2415.76
-2035.76
-1539.3
-958.389
-325.392
-3218.21
-2705.1
-2042.05
-1270.84
-431.535
-249.388
-211.306
-160.509
-100.22
-34.0723
-108.389
-91.8437
-69.7681
-43.5632
-14.811
-442.409
-374.598
-284.354
-177.448
-60.3056
-273.759
-231.844
-176.023
-109.859
-37.3374
-824.807
-697.799
-529.269
-330.087
-112.141
-612.895
-518.656
-393.483
-245.438
-83.3879
-1328.68
-1122.64
-850.496
-529.985
-179.975
-1140.84
-964.038
-730.38
-455.126
-154.548
-1836.68
-1548.86
-1171.45
-729.224
-247.515
-1811.15
-1527.03
-1154.56
-718.433
-243.789
-2276.89
-1913.67
-1443.7
-897.577
-304.541
-2477.67
-2081.04
-1568.32
-973.94
-330.212
-2986.4
-2500.13
-1882.45
-1170.72
-397.581
-3592.61
-2986.15
-2242.03
-1396.92
-475.555
-4308.15
-3536.49
-2649.9
-1664.84
-571.05
-5960.06
-4791.95
-3604.66
-2324.14
-811.778
-6001.64
-4700.55
-3608.59
-2485.88
-949.409
-6994.01
-5380.38
-4218.85
-3072.17
-1230.26
-3941.17
-3301.03
-2487.39
-1548.31
-526.192
-4440.14
-3700.87
-2784.07
-1736.04
-591.368
-4548.51
-3765.03
-2829.67
-1773.32
-607.302
-4321.94
-3537.37
-2661.48
-1689.45
-585.675
-3491.95
-2809.54
-2130.79
-1397.2
-503.37
-3037.38
-2397.24
-1840.97
-1258.51
-472.097
-375.801
-607.042
-1032.52
-1599.52
-2264.6
-2923.39
-272.592
-598.046
-1196.68
-2005.48
-2929.85
-3846.62
-296.798
-135.678
-554.905
-353.393
-1030.53
-773.229
-1649.63
-1421.22
-2285.01
-2291.73
-2831.49
-3255.15
-3606.37
-4331.2
-5217.66
-7214.46
-7569.76
-9077.65
-4639.75
-5150.72
-5217.6
-4941.73
-4075.56
-3701.99
-339.565
-287.731
-218.584
-136.488
-46.3969
-548.352
-464.5
-352.776
-220.242
-74.8623
-932.141
-789.095
-598.959
-373.798
-127.036
-1442.74
-1220.19
-925.458
-577.295
-196.16
-2039.91
-1722.88
-1305.4
-813.909
-276.526
-2627.52
-2214.45
-1675.58
-1044.36
-354.862
-246.247
-208.621
-158.461
-98.9336
-33.6267
-540.065
-457.357
-347.274
-216.774
-73.6765
-1079.96
-913.924
-693.528
-432.755
-147.064
-1808.12
-1528.57
-1159.02
-722.911
-245.636
-2637.56
-2226.42
-1686.37
-1051.4
-357.236
-3454.73
-2909.71
-2200.96
-1371.92
-466.256
-268.292
-227.409
-172.811
-107.936
-36.7017
-122.674
-104.005
-79.0524
-49.3844
-16.795
-501.459
-424.937
-322.84
-201.607
-68.5433
-319.418
-270.744
-205.744
-128.505
-43.6932
-930.759
-788.269
-598.558
-373.644
-127.004
-698.523
-591.748
-449.443
-280.605
-95.3858
-1488.64
-1259.59
-955.686
-596.269
-202.625
-1282.79
-1085.67
-823.885
-514.088
-174.703
-2059.29
-1740.06
-1318.82
-822.366
-279.397
-2065.83
-1745.98
-1323.49
-825.294
-280.388
-2545.65
-2145.96
-1623.91
-1012.1
-343.853
-2928.05
-2469.4
-1868.98
-1164.71
-395.66
-3229.24
-2712.33
-2048.99
-1277.6
-434.48
-3851.87
-3216.78
-2426.4
-1517.13
-517.421
-4579.63
-3785.01
-2854.48
-1801.77
-619.39
-6172.54
-5001.41
-3790.15
-2457.14
-859.96
-6156.07
-4859.27
-3756.78
-2600.88
-995.626
-7057.2
-5448.06
-4285.37
-3127.66
-1252.97
-4151.88
-3485.52
-2632.48
-1641.59
-558.431
-4583.31
-3829.74
-2888.33
-1804.68
-615.414
-4601.83
-3818.82
-2877.92
-1807.78
-619.901
-4290.64
-3519.96
-2656.39
-1691.51
-587.453
-3434.43
-2767.87
-2106
-1387.04
-501.457
-3011.34
-2378.32
-1829.88
-1254.44
-471.503
-18925.3
-14202.2
-4621.97
-3633.92
-3073.72
-4705.33
-3354.39
-13153.4
-14206.3
-11801.9
-13576.9
-7194.22
-11337.8
-5224.26
-5497.4
-3853.18
-21189.3
-10965.6
-3493.04
-5595.74
-8224.63
-5504.46
-6633.08
-5052.81
-2466.02
-4375.4
-3898.17
-4309.31
-18955.9
-12019.4
-12368
-7869.1
-8284.02
-8448.58
-4553.8
-5612.44
-5630.61
-12747.6
-12087.3
-10268.4
-10063.7
-8991.94
-10146.7
-7535.2
-6204.17
-5089.98
-2285.42
-4108.2
-3427.69
-2584.17
-1615.47
-550.423
-3257.04
-2737.77
-2068.73
-1289.54
-438.326
-2750.64
-2308.52
-1742.39
-1085.7
-369.196
-4224.44
-3556.16
-2688.51
-1675.13
-569.171
-2998.64
-2514.49
-1897.66
-1183.16
-402.513
-9679.34
-8690.88
-7317.15
-6739.01
-6756.32
-9983.73
-9131.53
-7492
-6268.37
-4718.39
-9102.22
-6855.69
-5478.47
-4136.76
-1804.32
-9891.61
-8508.63
-6772.2
-5474.15
-3393.27
-6104.63
-4897.72
-3686.11
-2388.28
-863.544
-9168.11
-7031.61
-5370.13
-3687.34
-1482.95
-4526.69
-3695.37
-2773.13
-1758.57
-614.477
-4745.38
-3861.53
-2897.33
-1842.62
-646.612
-3361.63
-2759.74
-2070.56
-1305.22
-452.1
-15158.2
-12898.9
-10932.9
-10020.7
-8971.14
-8796.64
-6846.39
-5366.46
-3865.89
-1615.83
-3021.04
-2464.45
-1853.68
-1181.31
-414.519
-4850.13
-3969.46
-2996.21
-1915.68
-671.979
-6949.39
-5584.14
-4255.64
-2819.12
-1029.08
-4766.84
-3894.33
-2939.51
-1879.79
-654.586
-5825.09
-4808.28
-3624.09
-2286.02
-781.68
-4460.17
-3700.81
-2787.42
-1749.91
-600.052
-2179
-1808.4
-1359.33
-850.378
-291.163
-3894.68
-3253.52
-2451.59
-1530.17
-521.666
-3413.9
-2813.01
-2113.96
-1331.55
-459.934
-3793.7
-3141.1
-2364.82
-1487.08
-511.642
-12820.1
-11531.3
-9894
-9500.55
-8338.73
-9013.01
-6797.29
-5499.72
-4298.98
-1909.53
-10199
-8437.57
-6814.59
-5331.6
-2362.56
-6532.55
-5028.93
-3882.59
-2667.67
-854.978
-7064.47
-5659.75
-4294.73
-2804.04
-954.181
-7022.18
-5393.03
-4166.11
-2864.21
-904.184
-3994.24
-3297.34
-2486.21
-1571.13
-541.29
-4985.1
-4156.96
-3131.86
-1957.27
-667.7
-4915.35
-4041.03
-3044.18
-1928.34
-666.128
-446.203
-1226.4
-1882.91
-2499.11
-3126.07
-3700.71
-2422.88
-6243.63
-5848.97
-2424.86
-7122.43
-6437.2
-7606.13
-10176.1
-1371.29
-170.422
-2591.36
1292.51
-10131.7
-8471.62
2014.59
-1764.45
-4931.42
-4721.91
-1861.51
-5417.03
-3036.57
-6044
-6209.84
-604.21
944.647
-1109.67
3505.32
-7108.17
-4600.94
3913.96
-1085.25
-3344.49
-3435.44
-1273.95
-3360.97
-488.056
-4481.92
-4479.63
-164.771
1136.84
107.464
3668.57
-4331.29
-434.12
4448.08
-720.482
-2375.18
-2754.17
-972.284
-1788.06
872.005
-3756.39
-4198.11
43.2128
821.24
454.86
3067.02
-3261.06
1601.29
4234.08
-618.929
-2223.24
-2622.71
-887.897
-1656.72
584.095
-3979.52
-5429.95
121.256
622.092
561.135
2649.37
-3114.02
1596.43
2921.31
-595.614
-2186.8
-2551.71
-858.961
-2057.11
-201.388
-3899.82
-5339.88
167.117
969.494
457.51
2735.76
-3642.9
658.017
2156.57
-1322.52
-3138.54
-4230.45
-1725.92
-6458.36
-11564.5
-7040.61
-12450.1
-1617.43
-1438.46
-5211.34
-4387.11
-2295.84
-9432.18
-4726.93
-1292.27
-3051.56
-3769.75
-1491.3
-6101.09
-9859.71
-6311.37
-9087.89
-1682.5
-1329.89
-5069.87
-4185.59
-1662.77
-8709.47
-4606.23
-1191.07
-2834.69
-3128.56
-1201.44
-5499.88
-8556.07
-5293.82
-8010.92
-1440.56
-1698.76
-4443.43
-4947.57
-1958.46
-7702.48
-5155.2
-1188.36
-3071.49
-2870.17
-1055.9
-5795.28
-8322.39
-5187.82
-7811.27
-1494.79
-2076.27
-4552.33
-6013.44
-2486.64
-8398.12
-6178.02
-1191.06
-3034.02
-2807.8
-1013.03
-5675.03
-8900.55
-5175.56
-8555.63
-1609.18
-2630.59
-4859.59
-7578
-3527.69
-9873.58
-7928.96
-1200.76
-3020.01
-2765.95
-997.293
-5747.23
-9106.54
-5047.65
-8438.25
-1801.7
-3265.02
-5339.62
-8626.61
-4695.53
-10862.7
-8840.99
7455.33
9033.42
18553
28966.5
28057.7
54723.1
19371.2
58287.2
19978.4
46729.7
24581.3
40414.6
18820.3
24859
8714.32
8828.61
13283.1
15076.6
18157
16478.9
12599.4
18960.1
18775.6
18787.8
4924.67
3604.76
6641
4771.01
12142.8
7920.95
22377.6
15645.4
18633.9
18940.1
18988.1
19303.3
4430.06
3908.21
43318
53556.8
23065.6
30765
55746.9
68610.5
25818.1
31772.2
32496
42471.9
25925.9
35878.3
14933.3
18881.2
2884.61
924.171
3682.13
1285.86
6871.64
2837.83
11869.4
4367.59
7845.57
2605.61
7866.37
2230.65
15456.9
4507.58
20245.6
6356.38
25984.9
14887.7
21952.7
15165.5
26523.3
17095.1
21034.2
16979.8
17081.3
12325.8
18777.6
11901.6
21322.4
15700.5
22038.9
16104.2
20616.4
17344.4
21425.5
17686.5
17616.8
13039.7
18986.4
13519.9
18837.3
7758.59
10782.6
12337.5
20284.3
8967.95
10723.2
12946.5
18881.2
7228.25
11275.8
12139.1
19518.9
7270.78
11847.7
12236
2789.25
3130.5
990.671
1959.47
8547.37
10035.2
3542.99
6767.9
13933.5
16549.8
6346.59
11412.7
17784
9341.38
18183.2
21978
11136.6
6786.26
10870.9
12683.8
22332
14427.7
10301
13569.9
15119.2
14730.9
18434
3027.99
3096.34
1861.84
2014.73
9716.59
9206.25
6334.42
6400.14
14566.5
13255.9
9354.08
9368.61
9780.61
10913.8
15450.2
16395.4
17433.2
16390.7
20814.2
19058.1
14542.4
14484.2
13236.6
14282.3
17096
15507.1
16166.2
13419.2
14549.4
11551.8
16308.5
12913.5
14376.3
7582.42
11303.9
10923.9
15841.2
18330.2
16177.9
21005.6
9554.35
9347.66
13052.4
5759.09
10942.6
17180.8
11333.1
18372.5
16426.7
25780.7
16992
26414.7
9294.79
15139.3
9636.1
16437.7
11470.6
8462.69
14778.3
6587.16
12394
4459.46
13975.8
3211.64
11937.6
12199.1
15487.7
7942.73
10785.2
14093.4
14237.9
10125.8
2850.02
2636.48
2263.33
1878.12
1831.4
1595.02
8423.58
7203.3
6236.08
5544.64
4595.98
3847.23
10992
9222.84
8368.56
7987.81
6355.33
5694.42
9737.92
7790.37
7333.99
15237.6
11181.2
8989.8
13841.2
9998.12
7657.64
15466.5
11961.9
9962.01
12160.2
8165.66
6000.66
18216.6
14638.9
12870.9
13448.8
10500.6
8586.26
11971.8
8858.51
6857.13
10791.6
7933.71
6184.71
11798.1
6975.07
4256.35
11603.8
18881.6
9867.05
14099.5
9481.85
19488.5
7955.28
15996.5
188.979
1594.44
-211.937
933.881
3520.33
6707.9
2199.13
4072.99
1843.75
3916.56
11062.1
16451.5
8743.85
6550.6
11816
10334.1
15925.3
17058.5
-574.306
-5605.86
8453.54
5919.96
6635.94
3819.58
1438.66
936.485
1160
722.705
3892.62
1223.57
1947.08
238.203
9984.61
2956.57
7546.43
2326.69
8598.56
2586.75
9741.29
3203.3
12391.8
12227.1
9645.44
12116.4
18901.9
16999.3
15472.8
16155.6
7103.53
9280.91
8285.97
8570.6
9037.08
12041.5
9508.46
12155.9
14776.5
15838
15319.6
15953.8
6283.59
9412.23
6087.09
9531.61
722.052
1360.7
7385.62
4031.5
694.812
1123.34
6461.86
3398.5
727.217
1228.44
7801.67
4446.98
1038.09
1350.76
7882.72
4694.78
-182.966
-315.242
442.065
291.916
-890.042
-1421.08
740.098
456.769
1098.77
42.9687
2479.94
2127.65
-7643.91
-3875.35
-4517.89
-3055.91
-39.8185
-7086.15
-10337.7
-4904.98
-4999.54
-64.2314
9503.43
6896.94
5584.81
5685.39
3244.12
-510.882
-408.906
143
226.84
-1511.4
-1653.15
470.823
637.419
-1320.78
-1877.39
1336.59
1584.88
-3051.59
-1513.84
-7972.49
-5568.37
-4270.7
-3023.19
-3912.89
-3218.27
194.942
890.806
5029.12
3505.84
-444.169
-2113.88
-686.862
-1906.27
314.024
-737.181
700.429
1039.09
4071.65
4490.88
9662.13
6119.85
8699.87
8421.77
13037.6
10154.8
7308.45
4462.03
2452.99
3142.89
11432
4836.36
12263.5
4470.21
14969.5
9797.41
15942.2
9433.89
8812.52
3241.42
9578.03
2799.58
5392.04
4337.54
3961.37
7010.19
2606.54
3483.65
2558.71
5869.33
5946.47
4028.72
4831.38
8054.89
7218.44
3789.44
5759.45
7954.38
-525.902
-652.518
-751.729
130.039
-141.018
-181.174
-1958.62
-2304.19
-2460.55
237.319
-546.495
-658.568
-2391.71
-3300.92
-3685.74
833.739
-966.495
-1335.59
-754.402
-1307.18
-1169.12
-4185.58
-4458.67
-4116.16
-3270.75
-3785.59
-3645.87
-3502.19
-4300.36
-4415.93
437.66
-1406.67
-1329.19
4124.74
2058.94
1203.03
-1180.82
-2328.85
-2699.02
-1462.75
-2669.89
-2972.91
-906.934
-2357.73
-2657.04
1605.37
-947.874
-1115.45
69.488
-3.51844
-27.7711
-57.755
-92.6497
-87.4955
-101.773
-95.9612
194.339
-2.98066
-86.4608
-168.746
-225.214
-214.858
-236.388
-233.361
384.926
52.6685
-86.1218
-260.327
-35.0329
-174.657