/*--------------------------------*- C++ -*----------------------------------*\
| =========                 |                                                 |
| \\      /  F ield         | OpenFOAM: The Open Source CFD Toolbox           |
|  \\    /   O peration     | Version:  2412                                  |
|   \\  /    A nd           | Website:  www.openfoam.com                      |
|    \\/     M anipulation  |                                                 |
\*---------------------------------------------------------------------------*/
FoamFile
{
    version     2.0;
    format      ascii;
    arch        "LSB;label=32;scalar=64";
    class       volScalarField;
    location    "1.8";
    object      gradTy;
}
// * * * * * * * * * * * * * * * * * * * * * * * * * * * * * * * * * * * * * //

dimensions      [0 -1 0 1 0 0 0];

internalField   nonuniform List<scalar> 
5712
(
13151.5
7226.68
22885.5
14996.7
22047.3
18763.3
32444.9
40256.7
49417.2
62648.7
26201.9
23038.6
16127.7
11121.7
10652.8
6066.14
21799.3
19547.8
19734.9
19471.7
25015.1
23905.8
28954.7
24829.6
7720.48
5383.62
4025.4
2782.82
11222
7216.01
6227.89
4036.55
22277
23531.7
19911.8
16109.6
16044.8
12588.1
13633.5
13028.6
18183.2
17888.9
37153.5
40939.9
26531.6
28087.2
19275.9
15174.3
19611.6
13757.1
8333.66
7204.34
6265.54
9447.5
3120.44
4281.17
8300.72
12581
5227.8
7204.49
8446.06
15048.1
6456.37
10678.9
2009.12
7156.55
344.745
5114.75
18532.7
22327.5
19535.4
22152.9
23371.6
23750.7
23916.2
23243.6
17478.8
21143.2
17410.7
20819.9
19612.5
22014.3
19264
21884.2
24147.9
22949.7
24183.1
22783.9
16433.2
21189.6
14994.2
21101
18184.1
19579.4
22897.6
32257.3
19056.1
22670.5
22789.7
35360.3
17198
17313.3
22759.7
30568.7
16526.8
15884.9
22719.1
29742.7
4722.35
6001.86
12897.1
21179.8
5646.07
6354.88
15905
23686.4
6694.8
6984.89
19390.1
26575.2
25376.5
27957.5
21533.9
19824.3
27283.8
28462.6
24737.2
21516.8
18271.7
30998.4
26079.8
24134.7
20360.6
21112.7
40098.2
1680.71
2216.74
4570.15
9501.77
2376.47
3316.21
6028.2
11022.6
3563.89
3442.03
8043.42
13027.3
27695.1
27517
23060.8
21979.7
19564.3
17311.6
14330.2
12639.1
11225.8
16782.6
24502.6
22054.4
22702.5
21229.7
19244.4
17720
16684.4
14691
13320.7
18289.2
23381.4
24865.7
24220.4
26565.1
23499.8
21675.9
23865.5
22848.8
21235.4
21449.4
20930.3
20772.1
24638.6
27211.4
24456.5
26946.8
24183.9
23807.7
23908.1
23630.7
21030.6
21278
21293.4
21434.1
18305.7
18071.1
12609.9
15061.6
18475.9
17802.5
13007.4
15638.2
17786.2
17798.6
12441.4
15048.2
17936.8
17593.5
12312.4
14673.2
1891.74
1528.4
1119.78
1039.62
885.191
872.545
2845.07
1987.94
1538.61
2429.09
2155.55
1851.52
2996.14
2854.97
3010.96
4390.08
3781.85
3436.16
26043.5
22951.9
20844.8
21784.1
20242.5
19011
14932.1
14168.7
13755.1
10677.8
10021.6
9713.71
7147.42
5204.65
4203.59
20595.7
18795.8
17533.7
20648.6
19043.1
18108.1
15436.5
13579.5
12574.2
11181.9
9753.18
9099.31
7494.06
5456.37
4413.16
28824.7
29798.7
30727.6
28155.2
28209.6
28118.2
33715.3
28958.1
18353.4
20123.6
18312.5
18009.6
24360.8
21355.3
23864.3
18809.9
26327.5
27415.8
22490.6
25178.6
29390.8
25892.6
29320.9
30466.7
31112.6
33377.3
25230.6
25891.3
21888
21579
25010.3
24165.2
16802.9
9649.74
15747.1
10664.4
16313.7
9454.86
15173.5
10336.4
14905.8
8749.1
14090.5
9820.93
13851.9
10197.6
13308.2
10183.4
22853.5
17968.1
22432.3
18115.9
25578
22827.8
25696.8
22484.8
20678.9
14244.2
21447.5
13751.3
22884.6
18193.3
23510.9
18165.7
26336.1
22364.6
26800.4
22278.4
20140.8
14434.6
20004.3
14440.9
12312
8557.66
10829.4
7011.51
11354.8
7662.45
10121.9
6429.63
12602.3
9067.65
11143.6
7341.43
12682.4
9401.39
11227.3
7537.12
2732.89
1487.59
5154.93
2985.02
2821.04
1706.39
5224.5
3275.51
3059.79
2260.52
5171.87
3740.18
13548.5
22716.5
8811.06
7991.52
5797.33
23227.9
14901.9
8365.82
7441.38
4544.76
22413
16180.9
11844.4
8686.79
5503.69
1051.41
998.081
2095.22
1934.75
1300.24
1014.65
2507.08
2265.94
1822.44
1575.06
3008.71
2694.95
23514.5
22301.2
14917.9
13482.4
9342.34
8839.16
7158.09
6735.23
4195.49
3783.36
20502.4
17474.5
14883
12668.7
11088.2
9946.08
7870.3
7413.05
5092.13
5540.25
14094.1
11015.4
14245.5
10390.5
18085.1
13292
18382.5
13089.6
11556.7
9159.81
11432
9768.86
14729.9
9912.97
14861.7
10030.6
19299.9
13451.6
19260.4
13562.1
11638.3
8607.01
11833.6
8965.98
8275.85
7422.66
5598.12
7232.17
8386.62
7773.55
5693.68
7127.72
8242.65
7214.75
5451.68
7541.58
8667.61
7285.97
5666.06
7460.87
2175.76
1725.6
1345
7992.84
3938.89
3014.97
2019.1
1864.25
1575.39
8414.11
4605.18
3701.11
2505.69
2622.38
2609.22
8913.66
5699.11
4966.88
19748.3
17611.4
16164.4
12440.9
11472.7
10869.5
8885.87
8363.77
8091.13
7663.73
7111
6863.01
10318.1
7465.55
6637.55
14650.2
12925.2
11811.9
10964.6
9806.89
9146.9
9492.51
8380.19
7633.81
8923.54
7814.48
7227.39
13346.2
9304.26
8413.75
5260.63
3132.93
2178.89
1838.37
5865.66
3362.02
2261.3
1887.97
5113.89
3089.53
2174.56
1859.54
5825.98
3372.09
2289.02
1909.4
4851.68
3030.26
2206.16
1848.05
5667.74
3404.62
2361.63
1899.41
5933.9
3535.54
2364.63
1982.38
6093.77
3676.42
2448.57
2045.15
5153.33
3204.71
2292.42
1881.37
4251.99
2856.26
2156.93
1763.1
4507.39
2922.49
2198.53
1743.62
3849.99
2667.82
2070.85
1682.08
5538.07
3412.63
2365.2
1962
4505.01
3005.45
2220.34
1812.9
5759.08
3563.06
2437.47
2003.73
4652.85
3118.08
2281.96
1837.85
4041.79
2749.52
2055.14
1739.42
2779.84
2299.35
1894.86
1602.92
3927.3
2711.93
2055.64
1740.48
2765.73
2295.38
1894.4
1610.85
3752.56
2656.43
2066.22
1735.11
2836.3
2327.73
1902.92
1638.06
3575.74
2571.44
2036.36
1727.96
2865.81
2339.23
1940.55
1645.11
3328.58
2483.4
1962.25
1618.35
1436.32
1878.74
1535.5
479.406
-95.5002
1651.21
1362.83
455.669
1593.89
1938.73
1563.12
505.202
137.635
1720.7
1384.92
463.698
1848.98
2029.89
1587.75
502.521
501.266
1833.5
1410.9
466.212
2212.24
2145.37
1630.26
535.351
934.55
1974.79
1456.19
483.681
2731.33
2302.9
1705.03
598.505
1397.02
2112.73
1500.94
497.997
3094.19
2493.07
1751.47
564.072
1361.82
2276.8
1596.28
518.892
3035.92
2408.51
1713.18
565.995
1409.34
2213.2
1544.84
505.645
3084.52
2555.43
1782.6
532.469
1269.64
2333.99
1633.42
519.242
3072.03
2632.35
1847.51
546.887
1413.23
2412.47
1685.42
532.43
1603.74
1167.92
781.046
445.101
144.251
1610.94
1170.02
782.166
445.664
144.421
1632.53
1177.78
785.475
447.065
144.809
1635.94
1181.59
787.836
448.267
145.174
1649.14
1188.27
790.389
449.255
145.432
1643.59
1197.87
796.424
452.318
146.363
1700.94
1220.6
808.717
458.343
148.168
1731.23
1241.75
820.998
464.484
150.017
1695.35
1210.88
801.762
454.643
147.027
1733.9
1216.58
802.786
454.857
147.061
1661.96
1199.68
795.607
451.594
146.102
1719.99
1209.64
799.039
453.006
146.498
1718.98
1223.81
809.18
458.365
148.154
1754.58
1229.13
809.964
458.458
148.154
1740.11
1245.9
822.477
465.064
150.179
1778.91
1250.51
822.885
465.004
150.143
1595.45
1165.88
779.859
444.491
144.066
1611.95
1165.77
779.202
444.124
143.953
1614.14
1173.76
783.234
445.933
144.466
1629.33
1172.92
782.188
445.382
144.302
1641.89
1184.29
787.628
447.812
144.989
1664.97
1183.19
786.292
447.115
144.781
1682.91
1196.02
792.542
449.964
145.594
1702.14
1193.2
790.728
449.072
145.323
1707.4
1203.65
796.057
451.574
146.063
9230.74
14327.5
9694.44
14677.1
10463.7
15247.1
11382.1
16295.6
12366.9
18112.5
11256.4
13881.9
11625.2
14981.1
11160.5
13661.1
11012.2
13598.1
7432.38
1333.32
294.021
66.2412
11.6982
8850.24
2448.89
597.602
135.858
23.7827
7587.62
1313.27
284.312
63.477
11.1475
9008.47
2457.19
592.009
132.863
23.1796
7869.04
1311.64
276.952
61.0309
10.6474
9317.77
2487.26
588.554
130.55
22.6172
8203.09
1303.07
268.279
58.5531
10.1861
9714.81
2524.27
588.18
129.536
22.3774
8459.52
1291.29
264.156
57.9542
10.1456
10059.3
2551.24
593.689
131.462
22.8406
8119.02
1473.6
334.676
78.0496
14.155
9130.58
2615.53
657.882
154.134
27.8094
8305.19
1404.34
303.846
68.6874
12.226
9525.85
2599.84
628.876
142.907
25.2601
8014.62
1518.48
354.831
84.454
15.521
8991
2624.54
674.323
161.094
29.4929
7946.67
1493.38
350.463
84.0989
15.559
8914.13
2597.85
672.031
161.809
29.7891
36255.8
50596
45262.3
34066.7
19007.2
19965.5
30285.4
30400
20469
21881.1
32657.4
43564.7
48305.8
65648.5
24611.4
27054.2
19869.8
19389.3
13769.9
14162.2
4103.54
2876.4
707.651
544.321
658.291
558.777
691.333
4053.81
4090.85
2598.68
3455.9
3092.44
1423.14
2025
1742.96
1165.77
1328.05
1097.97
3534.16
2036.37
1267.36
1162.71
1446.06
1244.05
960.873
961.556
891.335
796.902
1042.71
976.356
3645.72
2306.58
2455.42
1688.19
1403.75
1991.93
990.711
778.643
1105.61
8610.2
8892.75
9047.28
11023.1
18910.5
6432.85
7291.16
7881.96
9187.34
10715.6
1860.15
2654.1
3257.06
3669.2
3881.71
1440.73
2076.73
2568.71
2904.87
3076.39
1737.4
2492.65
3068.45
3456.61
3652.93
1479.06
2131.69
2635.14
2977.25
3150.85
1820.54
2603.91
3199.16
3602.33
3807.85
8917.81
9531.27
9381.58
10527.6
17002.5
8705.47
9008.1
8887.47
9556.22
11388.8
5981.53
6964.11
7404.26
8074.47
8824.7
7484.33
7972.98
7926.4
8219.7
9010.13
6790.98
7397.02
7369.93
7567.51
8055.67
3544.53
4670.01
5386.35
5879.33
6170.55
4804.71
5882.65
6443.46
6919.17
7305.05
4217.73
5308.16
5898.73
6307.96
6572.79
2971.45
4048.29
4779.58
5259.27
5512.8
3331.92
4432.75
5136.98
5597.32
5849.25
2816.36
3871.27
4597.77
5067.9
5308.97
7956.05
8806.9
8923.32
10274.8
16736.7
4887.82
6065.59
6756.66
7487.97
8125.28
3209.81
4333.97
5095.77
5623.98
5924.91
2971.11
4065.28
4831.52
5365.29
5663.8
3614.29
4784.29
5563.67
6163.75
6552.18
3167.54
4307.6
5105.39
5686.85
6022.32
2490.4
3479.55
4206.27
4714.92
4988.3
2494.35
3489.28
4215.35
4711.34
4973.22
2324.22
3274.17
3967.45
4424.54
4655.43
2088.81
2966.07
3619.69
4056.19
4277.47
2688
3724.24
4457.53
4944.45
5198.5
2530.28
3533.86
4259.52
4747.68
5002.78
7943.01
8542.89
8736.04
10430.5
17375.6
5372.6
6446.41
7161.75
8192.23
9241.02
6125.83
7459.95
7957.38
9173.54
10517.6
4179.08
5422.27
6250.23
7029.21
7561.35
3543.48
4744.77
5570.1
6222.27
6615.23
4871.33
6102.37
6807.45
7632.62
8188.83
2564.29
3575.52
4312.63
4823.79
5097.87
2040.78
2898.38
3540.61
3974.26
4196.46
2839.08
3912.28
4676.06
5208.72
5501.68
19518.3
12725.6
20677.4
15629.7
24939.5
35402.3
26617.5
36923.5
21603.3
21113.8
19094.7
19775
22735.5
22541.5
28000
23952.3
15031.4
13235.8
6724.74
5331.89
17518.8
13994.8
9319.33
6246.44
22571.7
24840.2
20656
18374.8
21585.1
14417.7
13517.3
13044.4
18277.4
17919.3
37119.4
40984.5
26159.3
27999.7
19761.9
15308.4
20187.6
13875.9
8794.83
7293.41
13946.5
16720.9
5641.98
6831.19
14940.1
18688.1
7586.05
9584.78
13029.2
18979.9
8140.15
12508.8
2294.6
7806.56
365.505
5241.62
19096
20957.3
19377.5
21422.1
21973.9
21841.6
23025.4
22200.4
18049.1
20849.5
19355.7
20257.9
19487.2
21642.8
19216.9
21763.3
23702.4
22421
24057.9
22614.2
16606.3
21033.3
15019.8
21047.6
18771.9
20645.3
23023
32553.6
20056.6
24656.4
23053.7
35988.4
17467.9
17800.3
22805.3
30697.4
16597.8
16016.1
22727.9
29779.1
18646.5
21270.8
24568.5
34684.8
17783.1
19201
25355
34416.9
15510.2
16017.7
25528.5
33009
19287.5
21114.8
19809.4
20363.2
30106.2
20710.3
18174.9
20857
18854.3
34317.8
20922.1
20012
18668.2
21548
41290.8
13362.6
12788.1
11135.7
13976.9
13008.1
12582
11367.5
14478.8
11957.3
10888.8
11241.1
14568.9
20260.7
19635.4
17625.8
16808.1
18943.8
17391.1
15030.1
13365.9
12468.8
16604.5
20137.3
18805.5
19284.5
18773.2
17693.7
16477.1
16737.4
14444.6
13421.8
17157.3
21538.6
23182.1
23179
25521.6
21368.3
20075.6
22711.5
21939.1
20604.1
20743.4
19861.7
19663.1
24142.7
26736.6
24308.7
26806.5
23641.9
23408.6
23748.4
23513.2
20713.7
20922.1
21197.8
21331.3
18033.4
17666.8
12534.8
14835.8
18134.7
17233.1
12984.4
15269.8
17628.8
17573.5
12379.3
14914.1
17882.7
17521.2
12287
14626.1
12362.7
13370.9
4769.39
4894.74
12041.7
12135.7
5476.64
5696.75
9713.92
9449.56
5983.66
5814.8
19056.8
18053
17232.1
16976.7
15485.5
14957.5
11436.7
10483.1
7564.64
5860.25
18588.9
17748
19435.1
18430.2
14867.9
13529.7
11194.8
9991.46
6851.55
5298.57
24089.8
24007.2
28497.7
25458.7
25579
24665.6
33545.4
27492
19630.7
15402.3
21049.3
16526.5
20510.4
15443.2
21921.9
16488.9
22762.4
21011.1
19942.5
19311.7
21176.9
22518.3
28002.8
30072.5
30336.5
33143.3
23542.4
25365.6
20756.3
21258.6
23243.3
23639.5
12911.3
10367.4
13940.6
10754.3
12556
10089.8
13588.4
10434.8
11905.5
9296.91
12817.6
9828.43
13110.1
10125.9
13085.4
10148.5
18826.7
16740.9
20536.1
17269.1
22395.6
20691.2
24151.4
21278.8
18753.4
13885.5
17453.8
13510.6
21958.9
17714.6
23234.6
18005.9
25573.2
21739.8
26576
22076.3
19220.5
14184.1
19738.4
14349.4
11838.6
8850.16
10959.6
7435.64
11112.1
8554.01
10701.1
7336.84
12267.8
9148.39
11148.5
7539.43
12564.5
9409.02
11224.5
7608.51
11251.2
11664.1
9618.23
9272.07
10734.1
11286.9
9275.21
8937.01
10035.2
10449
8428.89
8030.32
16635.1
20778.6
14660
10349
8133.98
20223.3
17733.2
16156.6
10505
7688.89
20210.1
16562.1
13404
10767.5
7345.16
13256.8
15724.4
9862.54
11187
12484
14241.1
9262.52
10326.4
11106.7
12062.7
7904.86
8200.68
19541.1
18139.3
15918.3
14834.1
14656.1
15046.8
10783.9
11447.8
7550.75
7610.73
18169.3
15557.9
14889.1
12805.6
12640.2
11750.8
10212.3
10087.4
6983.4
7761.25
13770.9
11137.1
14029.9
10522.2
16748.1
12570
17629.3
12758.4
11780
9617.57
11921.3
10601.8
14575.9
9966.52
14805.4
10041.2
18914
13301.1
19142
13518.1
11683.9
8781.95
11817.9
9001.32
8715.03
8041.4
6100.18
8044.5
9352.51
8998.36
6730.9
8649.59
8406.01
7474.02
5680.94
7955.63
8723.62
7369.38
5759.09
7593.71
20371.1
21379.2
24803.2
20751.5
17708.3
18603.7
23239.2
19553.8
14426.8
15087.2
20074.8
17193.9
16811.7
15863.8
14527.4
14222.1
15617.6
15762.9
13212.8
12841.4
18971.6
16577.2
13258.8
12728.1
11602.1
11532
11871.9
11723.7
12523.2
12062.1
19993.6
16689.2
6642.99
4070.62
2741.69
2240.33
6832.73
4148.68
2772.99
2266.15
6375.61
3964.91
2688.73
2231.51
6653.59
4060.89
2733.06
2241.91
5930.66
3809.2
2652.12
2163.03
6284.43
3957.59
2734.07
2171.34
6287.36
3884.42
2627.13
2178.24
6208.48
3796.44
2536.05
2113.67
5719.37
3653.89
2589.82
2108.29
4760.04
3249.14
2402.67
1948.89
5459.6
3578.56
2586.84
2015.57
4683.48
3260.81
2407.94
1911.89
5836.37
3672.46
2545.82
2105.54
4779.96
3227.79
2375.12
1940.45
5847.95
3650.27
2501.81
2055.06
4742.95
3190.91
2336.21
1881.73
6239.76
3912.97
2694.38
2167.21
5603.75
3669.98
2612.49
2043.02
5930.27
3814.86
2657.3
2144.39
5305.55
3589.9
2579.09
2036.34
5478.04
3663.56
2616.04
2102.17
4894.07
3466.92
2517.62
2028.58
5014.94
3439.85
2499.97
2030.04
4597.77
3347.13
2471.05
1973.74
4560.26
3257.19
2384.61
1864.94
4497.97
3350.62
2213.81
643.37
2538.62
3139.27
2049.34
637.113
4310.05
3314.19
2209.55
667.678
2495.37
3108.76
2039.29
638.905
4033.92
3235.92
2162.34
645.403
2401.86
3049.67
1999
624.576
4002.92
3171.54
2148.32
673.458
2529.93
2999.11
1969.8
625.501
4038.44
3101.24
2140.52
726.562
2659.36
2924.92
1925.78
619.802
3543.62
2877.4
2045.18
670.307
1643.82
2648.39
1838.5
596.038
3843.93
2993.56
2090.49
686.821
2022.08
2787.06
1877.73
605.258
3301.21
2769.53
1967.86
602.879
1367.18
2537.95
1779.22
567.275
3126.66
2699.95
1909.71
570.913
1431.26
2475.9
1733.18
548.422
1904.16
1342.59
875.742
491.143
157.944
1892.01
1338.05
874.139
490.518
157.772
1918.98
1340.1
872.897
489.496
157.423
1889.92
1332.03
869.838
488.212
157.06
1913.64
1336.01
869.494
487.595
156.827
1849.66
1319.1
862.414
484.469
155.933
1834.1
1296.26
850.189
478.633
154.217
1781.27
1271.3
837.326
472.5
152.412
1876.93
1316.37
859.058
482.551
155.334
1916.17
1321.96
859.802
482.602
155.319
1896.69
1330.56
865.595
485.524
156.188
1948.86
1331.09
863.776
484.394
155.831
1841.86
1299.63
850.996
478.829
154.255
1873.57
1304.86
851.917
479.002
154.28
1781.43
1271.58
836.802
472.111
152.287
1819.25
1277.18
837.907
472.408
152.36
1922.89
1348.89
877.71
491.867
158.139
1971.74
1354.84
879.026
492.303
158.254
1932.66
1348.25
875.882
490.702
157.759
1981.2
1354.58
877.517
491.312
157.929
1947.3
1346.69
873.194
489.091
157.241
2002.79
1353.48
875.064
489.827
157.45
1970.15
1342.72
869.581
487.143
156.633
2018.23
1347.89
871.413
487.942
156.858
1970.65
1337.1
866.547
485.665
156.191
11440.8
15333.6
11403.2
15303.1
11441.9
15299.9
11830.8
15922
12348.5
17282.2
11192
13718
11563.3
14668
11113.2
13568.6
10996.9
13569.9
8243.36
1432.1
309.866
69.0403
12.1149
9536.72
2605.39
628.541
141.595
24.6374
8239.71
1391.93
297.006
65.7456
11.4879
9520.51
2580.15
616.938
137.544
23.8855
8266.77
1359.72
284.956
62.5135
10.8754
9559.88
2557.8
604.102
133.623
23.0938
8362.15
1321.25
271.569
59.2274
10.2965
9711.15
2543.28
594.179
130.925
22.6105
8437.6
1288.01
263.964
57.9978
10.1603
9878.6
2534.87
592.731
131.539
22.8749
8058.18
1462.12
332.343
77.5902
14.0829
9039.27
2592.57
652.98
153.175
27.6601
8238.85
1392.92
301.865
68.3539
12.1792
9387.4
2573.36
624.362
142.172
25.1609
7974.05
1510.46
353.072
84.0814
15.4598
8936.84
2609.62
670.814
160.352
29.3712
7932.96
1490.62
349.837
83.9612
15.5359
8896.73
2592.91
670.817
161.541
29.7445
35830.6
50502.3
45064.1
32799.4
24491.1
29171.5
24290.7
29185
27378.8
42724.8
29556
46512.7
144.799
159.475
192.16
244.83
319.048
416.868
157.091
171.762
204.202
255.777
328.165
423.849
134.839
129.88
149.651
144.595
183.111
178.121
238.763
235.563
317.794
320.25
423.919
437.958
539.755
703.947
940.079
1305.01
1669.85
1965.27
546.809
704.695
905.86
1145.68
1370.12
1520.76
387.624
568.392
713.764
815.396
867.663
426.685
625.187
784.526
895.736
952.857
513.708
751.711
942.105
1074.62
1142.56
653.679
954.641
1194.22
1360.33
1445.32
850.245
1238.18
1544.94
1756.69
1864.81
1107.86
1606.7
1997.69
2266.39
2403.49
420.364
616.078
773.303
883.112
939.536
459.362
672.657
843.642
962.848
1024.03
545.605
797.765
999.15
1139.15
1210.88
682.438
995.665
1244.53
1416.91
1505.08
873.797
1270.96
1584.38
1800.66
1911.16
1125.26
1629.64
2024.26
2295.7
2434.53
361.005
529.51
665.161
760.067
808.892
347.732
510.095
640.875
732.411
779.503
400.485
587.025
736.935
841.654
895.465
386.975
567.313
712.335
813.686
865.77
489.651
716.85
898.841
1025.62
1090.64
476.358
697.548
874.864
998.446
1061.84
637.676
931.74
1166.11
1328.7
1411.89
629.207
919.584
1151.17
1311.89
1394.11
847.136
1234.17
1540.42
1751.77
1859.61
853.703
1243.79
1552.42
1765.33
1873.89
1126.79
1634.47
2032.26
2305.2
2444.18
1163.89
1687.7
2097.45
2377.94
2520.45
1428.32
2058.55
2546.77
2881.43
3052.81
1849.59
2638.56
3239.93
3654.01
3869.38
2438.44
3415.44
4142.9
4657.93
4938.81
3307.04
4479.84
5325.48
5986.21
6392.94
4110.19
5360.09
6251.34
7064.23
7665.66
4728.54
5983.08
6878.99
7828.16
8617.23
1445.39
2080.15
2571.37
2909.03
3082.76
1850.68
2639.07
3240.95
3657.08
3874.66
2356.55
3316.3
4037.4
4545.7
4820.95
2942.77
4069.43
4902.5
5515.01
5867.86
3472.46
4718.05
5630.92
6341.95
6784.64
3818.86
5127.26
6084.5
6866.67
7380.52
147.217
166.868
205.177
264.435
346.302
452.698
159.587
179.368
217.396
275.189
354.342
456.894
137.169
132.158
156.862
151.677
195.995
190.859
258.678
255.533
346.322
349.265
463.709
481.121
583.612
753.42
989.543
1343.28
1692.31
1972.05
585.7
746.813
946.595
1178.88
1391.37
1527.97
394.1
577.937
725.849
829.293
882.497
446.586
654.633
821.848
938.698
998.77
548.775
803.676
1008.09
1150.68
1223.91
706.58
1033.26
1294.33
1476.02
1569.23
923.985
1348.24
1685.72
1919.97
2040.04
1205.18
1752.84
2185.78
2485.63
2639.46
427.067
625.983
785.862
897.572
954.985
479.854
703.018
882.178
1007.26
1071.51
581.177
850.547
1066.26
1216.6
1293.76
734.856
1073.65
1343.95
1531.92
1628.32
944.65
1376.78
1719.86
1957.89
2079.97
1215.01
1764.45
2197.83
2498.09
2652.39
367.255
538.725
676.815
773.459
823.184
353.843
519.103
652.261
745.486
793.452
419.88
615.688
773.225
883.39
940.043
406.015
595.432
747.915
854.586
909.442
524.338
768.202
963.982
1100.65
1170.86
510.637
748.267
939.166
1072.48
1140.97
691.4
1011.54
1267.68
1446.04
1537.54
683.07
999.577
1252.97
1429.47
1520.01
924.347
1349.46
1687.97
1922.98
2043.39
932.3
1361.31
1703.05
1940.3
2061.84
1234.96
1797.14
2241.92
2549.87
2707.69
1281.45
1865.02
2326.7
2646.19
2809.8
1548.15
2240.14
2782.61
3158.38
3352.13
1986.18
2848.79
3517.02
3983.28
4227.65
2577.87
3636.23
4441.42
5020.03
5337.44
3420.33
4669.63
5593.67
6323.85
6772.95
4181.64
5487.59
6438.74
7309.3
7950.23
4751.91
6027.31
6946.19
7919.3
8725.95
1551.57
2240.94
2780.1
3154.06
3347.51
1966.61
2816.78
3474.4
3933.78
4175.3
2470.14
3493.69
4274.45
4830.63
5133.07
3037.25
4220.92
5109.59
5768.74
6149.04
3534.36
4819.98
5773.23
6519.66
6984.24
3840.22
5163.08
6135.24
6930.93
7453.42
4091.09
2878.76
768.405
594.975
735.549
620.874
763.202
3833.65
3712.2
2575.22
3070.5
1505.44
2026.36
1272.42
1440.24
1202.45
3453.96
2080.94
1359.2
1252.42
1524.76
1319.41
1025.98
1044.85
1007.46
899.398
1145.56
1071.6
3613.88
2323.76
2457.35
1730.57
1464.48
2033.8
1065.74
862.497
1189.78
8611.83
8938.47
9137.79
11196.2
19254.7
6453.49
7344.26
7971.44
9323.83
10893.4
2028.33
2914.07
3601.17
4079.45
4328.83
1579.21
2286.9
2842.21
3226.57
3424.35
1950.23
2819.46
3498.69
3967.61
4208.87
1648.89
2389.64
2971.16
3372.99
3579.32
2019.23
2910.51
3604.39
4084.88
4333.51
8794.4
10028.3
10539.2
12512.5
20600.5
8575.43
9890.29
10657.3
12444.7
15729.5
6160.08
7621.92
8595.04
9835.85
11050.5
7544.04
9202.46
10019.1
11379.4
13289.3
3853.62
5294.02
6351.14
7155.02
7649.04
5029.62
6579.92
7650.61
8625.42
9379.82
3306.47
4644.25
5649.93
6370.33
6772.19
3709.47
5142.77
6203.2
6985.25
7444.34
3139.15
4438.69
5422.58
6116.82
6493.95
7954.13
9157.03
9673.48
11528.1
19027.9
5103.41
6561.91
7575.3
8633.36
9509.17
3504.47
4868.16
5885.04
6640.18
7082.77
3242.8
4532.77
5502.81
6214.39
6621.3
3874.15
5267.61
6290.96
7116.24
7650.84
3395.91
4700.84
5671.35
6405.39
6834.19
2676.21
3778.62
4616.06
5216.79
5543.59
2733.34
3876.7
4749.02
5366.83
5699.71
2651.93
3794.42
4673.12
5283.26
5603.36
2373.76
3409.47
4210.92
4766.22
5055.23
2993.78
4240.16
5187.66
5857.2
6220.13
2806.07
3985.85
4886.89
5521.97
5863.22
7965.39
8710.26
9045.8
10955.4
18404.3
5449.55
6612.03
7425.26
8564.42
9700.96
6236.04
7786.85
8524.27
10027.4
11605.8
4319.6
5682.61
6641.96
7548.19
8160.37
3732.19
5076.64
6054.44
6845.49
7323.86
5054.99
6498.77
7443.81
8517.46
9238.08
2780.17
3926.59
4797.5
5420.79
5760.46
2274.68
3263.88
4029.22
4561.46
4839.54
3088.22
4330.89
5268.07
5949.97
6332.45
8168.61
7631.32
6781.44
5682.6
4167.8
1636.22
19543
20791.2
22208.7
22884.7
21051.4
21264.7
21358
21862.9
17103.7
19766.4
19354.9
19719.4
25800
17864.4
28110.5
18386
19698.6
20836.3
21099.2
20209.9
21404.8
20398.4
21525.1
17651.2
26178.2
19883.1
25447.4
26730.3
21778.6
32470.3
17094.2
18224.3
18916.2
18800.8
19039.2
20755.6
18981.3
20758.6
19911.5
25246.6
22340.8
24870
27874.6
24433.3
31156.9
15833.5
16875.3
17074.2
16746.7
17989.7
20272.7
17524.6
19877.1
18069.6
23194.6
20127.7
22033.1
24486.8
21524.8
27957.6
14593.7
15655.5
15629.5
15245.6
17043.9
19723.6
16111.6
18362.3
15981.4
18820.9
18054.6
17590
21298.6
18149.5
22415
13421.8
14453.7
14483.9
14093.5
15588.1
17741.8
14964.5
16879.7
13751.3
15120
15718.8
14638.3
18660.6
15229
19462.6
22379.5
22490.4
23305.4
24362.9
23050.7
23684.8
22314.3
23089
19212.8
12345.1
20358.6
12170.5
20466.5
16854.7
17472.5
21345.2
21768.4
21621.5
22162
22352.3
23083.5
21080.2
22030.1
17037.1
12309
17815.6
12014.7
17664.3
15845.7
16162.7
18667
19116.4
19274.5
19346.7
19852.7
20477
19243.4
20547
15646.3
12910
16539.9
12311.5
17038.3
14283.8
16618
16065.6
16660.8
17065.9
16850.9
17600
18240
17565.3
18977.5
13680.9
13702.7
14626.6
12889.5
15240.8
12845.3
17217.6
14326.6
15051.2
15447.7
15150.6
16120.8
17294.7
15970.7
17260.7
12618.9
14843.6
13941.8
14719.4
15209.3
13946.7
19197
12827.3
13643.5
14222
13889.2
15184.2
16812.4
14759
16272.4
12208.3
15863
13949.4
16475.8
15777.5
14588.8
21140
12862.3
6934.22
22868.3
14953.5
22042.9
18748.1
32439.3
40245.6
49412.2
62631.9
26208.2
23028.6
16134
11100.3
10293.3
5732.19
21794.4
19545
19729.2
19469.2
25011.4
23903.5
28949.9
24827.4
7541.87
5290.91
3899.44
2726.25
11213.4
7209.17
6228.51
4041.08
22271.8
23525.4
19908.9
16107.3
16041.2
12589
13631.7
13028
18181.9
17888.2
37151.5
40938.8
26530.2
28086.2
19275.4
15174.4
19611.1
13756.9
8333.62
7204.35
6157.25
9265.9
3051.3
4168.33
8305.11
12592.1
5237.61
7217.98
8448.7
15053.5
6460.23
10683.8
2009.68
7158.34
344.742
5115.35
18531.4
22326.8
19534.4
22152.3
23370.3
23749.8
23915
23242.9
17478.7
21143
17409.8
20819.6
19611.8
22013.9
19263.4
21883.9
24147
22949.2
24182.3
22783.4
16433
21189.5
14994
21101
18184.7
19581.5
22898.1
32258.4
19056.6
22673.2
22790.4
35361.8
17198.5
17314.6
22760.1
30569.6
16527.2
15885.7
22719.5
29743.4
4663.31
5956.96
12717.2
21020.2
5655.61
6365.35
15920.3
23706.4
6698.73
6988.85
19396.9
26581.3
25375.3
27956.6
21532.3
19824.8
27286.9
28461.6
24736
21514.8
18272.1
31001.4
26078.9
24133.9
20360.1
21113.6
40100.2
1654.97
2185.63
4514.08
9424.3
2386.27
3321.75
6040.64
11034.3
3567.36
3444.57
8048.73
13031.9
27694.3
27516.3
23059.8
21979
19563.1
17310.9
14331.2
12639.9
11228.4
16784.9
24501.9
22053.9
22701.9
21229.3
19244.2
17720
16685.1
14691.5
13321.9
18290.2
23380.9
24865.5
24220.1
26564.8
23499.3
21675.6
23865.1
22848.6
21235.3
21449.3
20930.1
20772
24638.4
27211.2
24456.2
26946.6
24183.6
23807.5
23907.8
23630.5
21030.6
21278
21293.3
21434.1
18306
18071.2
12610.2
15061.9
18476.2
17802.7
13008
15638.7
17786.4
17798.7
12441.6
15048.3
17936.9
17593.5
12312.6
14673.4
1854.7
1499.74
1100.65
1026.92
875.625
865.628
2847.5
1989.78
1541.03
2434.17
2159.81
1855.59
2997.45
2856.04
3011.99
4392.05
3783.45
3437.85
26042.9
22951.5
20844.5
21783.6
20242.3
19010.8
14931.7
14168.5
13755.1
10678.3
10021.9
9714.12
7148.43
5205.39
4204.31
20595.4
18795.6
17533.5
20648.3
19042.9
18108
15436.5
13579.5
12574.3
11182.3
9753.43
9099.6
7494.49
5456.7
4413.48
28829.2
29800.8
30731.6
28156.8
28207.4
28117.3
33712.1
28957.1
18208.1
20088.5
18130.2
17965.6
24383.4
21349
23891.4
18803.3
26333.2
27422.3
22493
25181.3
29390.6
25892.5
29321.5
30466.5
31111.8
33376.5
25232.5
25891.9
21888.9
21579.1
25011
24165.7
16785.6
9629.51
15726.5
10647.7
16310.7
9455.63
15170.7
10336.4
14904.8
8749.08
14089.8
9820.77
13852.1
10197.6
13308.5
10183.6
22854.3
17968.1
22432.8
18115.9
25577.5
22827.4
25696.2
22484.4
20679.4
14244.4
21448
13751.5
22884.7
18193.2
23510.8
18165.5
26335.6
22364.2
26799.8
22277.9
20141.2
14434.6
20004.5
14440.9
12312.4
8557.7
10829.6
7011.59
11355.3
7662.53
10122.1
6429.73
12602.6
9067.73
11143.7
7341.5
12682.7
9401.55
11227.4
7537.2
2720.04
1473.8
5139.79
2966.89
2823.65
1708.9
5225.77
3277.01
3060.69
2261.33
5172.25
3740.74
13548.4
22715.9
8811.2
7991.91
5797.57
23227.3
14901.6
8365.62
7441.54
4545.13
22412.5
16180.7
11844.4
8686.98
5503.84
1033.87
979.544
2072.06
1921.71
1301.48
1015.28
2508.34
2266.4
1823.04
1575.46
3009.25
2695.17
23513.9
22300.6
14917.4
13481.7
9341.81
8838.34
7158
6734.96
4195.79
3783.48
20501.9
17474
14882.7
12668.4
11088
9945.85
7870.39
7413.03
5092.27
5540.26
14093.9
11015.2
14245.4
10390.4
18084.8
13291.8
18382.2
13089.4
11556.7
9159.78
11432
9768.79
14729.7
9912.88
14861.5
10030.5
19299.7
13451.4
19260.1
13561.9
11638.3
8606.97
11833.5
8965.93
8275.91
7422.67
5598.17
7232.21
8386.7
7773.57
5693.76
7127.81
8242.67
7214.75
5451.7
7541.61
8667.62
7285.95
5666.09
7460.89
2145.32
1699.79
1324.52
7945.32
3904.71
2984.64
2018.3
1864.07
1575.92
8420.07
4610.19
3705.44
2506.09
2622.69
2609.47
8915.8
5701.04
4968.73
19747.6
17610.8
16164
12440.1
11472
10868.9
8884.86
8362.89
8090.42
7663.39
7110.59
6862.65
10319.2
7466.64
6638.68
14649.8
12924.9
11811.7
10964.2
9806.58
9146.62
9492.27
8379.96
7633.6
8923.53
7814.43
7227.36
13346.8
9304.9
8414.5
5259.83
3134.05
2179.1
1837.67
5863.59
3362.3
2261.2
1886.59
5112.41
3089.19
2174.46
1859.39
5824.97
3372.04
2289.03
1909.36
4851.07
3030.08
2206.09
1847.97
5667.28
3404.53
2361.61
1899.36
5933.7
3535.49
2364.61
1982.35
6093.75
3676.43
2448.58
2045.15
5153.17
3204.66
2292.41
1881.34
4251.97
2856.26
2156.93
1763.09
4507.18
2922.43
2198.5
1743.58
3849.97
2667.82
2070.85
1682.06
5538
3412.61
2365.2
1961.98
4505.02
3005.47
2220.36
1812.9
5759.1
3563.09
2437.49
2003.73
4652.89
3118.12
2281.99
1837.86
4040.82
2750.63
2055.62
1739.08
2775.53
2298.85
1895.05
1602.34
3925.88
2711.61
2055.49
1740.31
2764.88
2295.32
1894.25
1610.78
3752.04
2656.3
2066.15
1735.04
2836.17
2327.78
1902.9
1638.03
3575.63
2571.43
2036.35
1727.94
2865.85
2339.3
1940.57
1645.1
3328.61
2483.43
1962.27
1618.34
1431.18
1878.25
1536.12
479.638
-100.335
1649.69
1362.54
455.538
1594.86
1939.39
1563.31
505.365
139.282
1721.44
1385.26
463.824
1849.43
2030.19
1587.86
502.593
502.076
1833.91
1411.09
466.282
2212.5
2145.53
1630.32
535.384
934.998
1975.01
1456.3
483.718
2731.46
2302.97
1705.07
598.523
1397.25
2112.84
1501
498.016
3094.21
2493.09
1751.48
564.073
1361.84
2276.83
1596.3
518.898
3035.96
2408.54
1713.2
566
1409.41
2213.25
1544.87
505.654
3084.54
2555.45
1782.62
532.472
1269.64
2334.01
1633.44
519.247
3072.05
2632.38
1847.53
546.895
1413.23
2412.5
1685.44
532.438
1602.6
1167.39
780.808
444.996
144.22
1609.31
1169.39
781.874
445.532
144.382
1632.44
1177.74
785.456
447.059
144.808
1635.9
1181.55
787.825
448.267
145.176
1649.08
1188.24
790.38
449.254
145.433
1643.55
1197.84
796.414
452.318
146.366
1700.92
1220.58
808.708
458.342
148.168
1731.21
1241.73
820.991
464.483
150.018
1695.32
1210.86
801.753
454.642
147.027
1733.87
1216.56
802.776
454.854
147.061
1661.91
1199.66
795.597
451.593
146.102
1719.95
1209.62
799.029
453.003
146.498
1718.96
1223.79
809.172
458.363
148.154
1754.56
1229.12
809.955
458.456
148.154
1740.1
1245.89
822.47
465.062
150.179
1778.9
1250.49
822.878
465.002
150.143
1594.59
1165.43
779.661
444.406
144.041
1611.14
1165.36
779.022
444.05
143.935
1614.06
1173.71
783.213
445.927
144.466
1629.27
1172.87
782.158
445.374
144.303
1641.83
1184.25
787.615
447.811
144.99
1664.91
1183.16
786.274
447.112
144.783
1682.86
1195.99
792.53
449.962
145.594
1702.08
1193.17
790.714
449.07
145.324
1707.35
1203.62
796.046
451.571
146.063
9196.68
14288.6
9695.47
14680
10464.7
15248.6
11382.8
16296.4
12367.3
18113
11256.6
13882.1
11625.5
14981.4
11160.7
13661.3
11012.4
13598.2
7421.83
1326.98
292.468
65.8914
11.6373
8836.77
2444.35
596.46
135.593
23.7368
7585.27
1311.07
283.577
63.2808
11.1098
9006.4
2454.79
591.069
132.592
23.125
7867.86
1310.87
276.645
60.938
10.6282
9316.98
2486.11
588.038
130.387
22.5825
8202.62
1302.79
268.149
58.5093
10.1764
9714.56