/*--------------------------------*- C++ -*----------------------------------*\
| =========                 |                                                 |
| \\      /  F ield         | OpenFOAM: The Open Source CFD Toolbox           |
|  \\    /   O peration     | Version:  2412                                  |
|   \\  /    A nd           | Website:  www.openfoam.com                      |
|    \\/     M anipulation  |                                                 |
\*---------------------------------------------------------------------------*/
FoamFile
{
    version     2.0;
    format      ascii;
    arch        "LSB;label=32;scalar=64";
    class       volScalarField;
    location    "1.8";
    object      T;
}
// * * * * * * * * * * * * * * * * * * * * * * * * * * * * * * * * * * * * * //

dimensions      [0 0 0 1 0 0 0];

internalField   nonuniform List<scalar> 
5712
(
539.713
556.512
526.68
546.803
509.296
532.506
482.448
507.64
486.014
511.454
510.899
535.986
522.343
545.274
533.101
552.923
500.261
483.847
517.789
492.458
473.923
456.209
490.328
463.575
547.517
554.184
560.733
564.07
537.59
546.336
553.208
558.405
536.447
523.431
510.697
503.42
537.488
548.242
537.966
543.616
500.594
507.77
514.111
519.969
471.651
477.871
549.527
554.563
520.11
529.64
559.989
565.737
558.897
567.093
566.651
570.528
551.792
564.427
561.656
568.698
542.082
559.875
551.363
564.664
558.017
566.974
562.025
568.412
470.005
455.269
477.574
458.59
436.405
423.287
444.252
427.272
505
486.799
498.373
483.374
482.765
460.836
485.771
462.023
449.755
429.913
452.879
431.31
509.945
489.108
512.775
490.263
530.713
557.922
514.92
547.043
524.676
553.936
510.784
543.497
534.907
559.898
517.359
549.083
537.135
560.722
518.441
550.329
554.26
543.881
563.988
556.238
546.389
535.97
560.67
551.946
534.934
523.909
554.898
544.941
454.721
416.007
489.238
516.411
546.512
414.668
452.621
484.829
510.491
537.679
413.956
449.554
479.206
505.167
536.374
523.199
504.066
527.165
508.92
517.882
498.774
525.144
506.5
509.088
490.513
521.525
502.727
407.591
394.384
445.179
431.957
475.146
459.248
497.872
480.368
518.023
499.137
406.399
391.845
440.817
426.831
469.18
453.875
493.389
476.256
515.498
495.995
439.847
428.835
439.068
428.154
405.55
385.166
404.463
382.095
468.836
460.274
469.053
459.508
438.636
427.259
439.34
428.108
404.519
380.923
405.652
382.512
468.43
459.626
469.165
460.46
495.954
487.773
519.215
511.756
495.2
485.747
518.124
508.429
495.668
487.299
519.443
512.48
495.934
487.689
519.446
512.035
481.87
463.394
453.259
484.974
465.729
455.435
477.261
458.453
448.328
482.324
462.346
451.754
468.304
449.029
438.572
477.977
456.889
445.793
377.293
364.778
358.351
413.862
397.153
388.117
439.873
420.827
410.152
458.574
438.908
428.313
472.956
450.563
438.678
373.555
360.443
353.292
410.18
394.864
386.78
435.188
417.49
407.993
453.771
433.348
422.365
467.295
444.757
433.051
411.867
398.454
415.765
402.78
441.353
425.158
449.922
431.461
383.439
363.043
384.684
365.013
384.329
363.551
386.109
366.104
384.22
381.015
383.689
377.23
362.542
366.716
405.555
408.446
435.864
439.753
385.791
388.147
386.218
387.936
369.08
370.663
341.298
322.188
346.812
325.428
342.845
321.94
348.283
325.627
343.971
321.473
350.648
326.296
353.694
328.461
355.768
330.206
376.911
365.144
384.158
370.093
403.829
390.603
412.058
395.674
363.238
349.903
355.871
345.302
388.239
373.041
390.679
374.645
416.95
398.709
419.774
400.249
366.981
352.687
369.059
354.271
345.656
323.646
334.103
318.151
339.189
319.631
330.346
315.497
349.354
326.358
336.547
319.956
351.501
328.245
338.092
321.141
323.955
313.252
315.622
308.718
325.145
314.897
315.372
308.883
326.674
318.449
314.963
309.723
356.904
380.961
339.814
328.551
314.17
378.98
353.451
333.927
322.129
310.175
379.235
355.383
337.84
325.201
312.376
304.801
296.947
301.648
294.114
307.223
299.269
302.635
295.268
311.434
303.848
304.312
297.229
372.13
359.55
346.629
335.598
328.829
320.575
317.088
309.46
306.476
299.784
371.892
358.911
348.947
338.092
332.139
323.17
319.832
311.54
309.146
302.408
352.036
338.631
353.174
338.061
373.324
356.744
374.307
354.636
336.425
324.594
335.203
324.421
354.165
337.677
355.575
339.095
375.658
353.033
377.179
354.522
337.37
324.807
338.581
325.956
322.365
312.986
311.591
303.046
322.024
312.303
310.878
302.821
322.637
313.703
311.995
303.113
324.146
314.447
312.662
304.26
287.429
282.194
280.149
281.253
277.642
276.434
290.288
284.699
282.363
282.428
278.651
277.271
294.883
288.927
286.529
284.262
280.132
278.657
345.716
336.008
331.366
324.995
317.557
314.275
311.008
304.613
302.063
299.862
293.659
291.109
286.045
281.769
280.063
344.126
333.714
328.653
326.151
317.446
313.185
312.563
305.176
301.732
300.515
294.567
292.211
287.208
283.043
280.953
306.858
297.249
291.277
286.666
308.255
297.8
291.543
286.717
306.747
297.274
291.369
286.797
308.476
297.987
291.759
286.912
306.489
297.275
291.519
287.011
308.761
298.253
292.046
287.161
309.892
298.908
292.316
287.261
311.01
299.625
292.627
287.382
307.81
298.026
292.01
287.322
305.753
297.338
291.615
287.434
305.937
297.178
291.593
287.245
304.494
296.722
291.304
287.392
309.224
298.756
292.309
287.376
306.803
297.917
291.891
287.529
310.335
299.411
292.642
287.543
307.681
298.46
292.216
287.741
304.545
296.395
290.905
286.66
301.845
295.428
290.437
286.712
304.398
296.383
290.949
286.762
301.877
295.473
290.475
286.798
304.15
296.356
291.015
286.94
302.158
295.637
290.59
286.958
303.748
296.294
291.057
287.168
302.318
295.758
290.71
287.162
303.258
296.19
291.008
287.349
299.405
294.635
289.888
287.028
298.022
294.255
289.645
287.142
299.787
294.791
289.985
287.102
298.46
294.426
289.74
287.21
300.419
295.061
290.144
287.227
299.198
294.727
289.898
287.329
301.197
295.393
290.383
287.414
300.128
295.114
290.126
287.491
302.198
295.832
290.671
287.611
301.051
295.526
290.361
287.659
303.611
296.676
291.072
287.902
302.34
296.372
290.834
288.012
302.961
296.241
290.867
287.762
301.794
295.959
290.599
287.837
304.201
297.124
291.274
288.03
302.878
296.811
291.058
288.181
304.894
297.62
291.564
288.23
303.571
297.3
291.349
288.397
282.472
279.721
277.8
276.597
276.02
282.484
279.728
277.804
276.599
276.021
282.524
279.746
277.813
276.604
276.025
282.548
279.76
277.821
276.609
276.028
282.581
279.774
277.827
276.612
276.03
282.64
279.81
277.849
276.625
276.039
282.772
279.884
277.89
276.649
276.057
282.9
279.959
277.933
276.675
276.075
282.708
279.841
277.864
276.634
276.046
282.731
279.845
277.865
276.634
276.046
282.642
279.804
277.843
276.621
276.037
282.691
279.822
277.852
276.626
276.04
282.785
279.886
277.89
276.649
276.056
282.806
279.889
277.89
276.649
276.056
282.92
279.967
277.936
276.677
276.076
282.938
279.968
277.936
276.676
276.075
282.459
279.714
277.796
276.594
276.018
282.456
279.709
277.793
276.592
276.017
282.5
279.732
277.805
276.599
276.021
282.493
279.726
277.801
276.597
276.02
282.554
279.756
277.817
276.606
276.026
282.545
279.748
277.812
276.603
276.024
282.615
279.784
277.831
276.614
276.032
282.598
279.773
277.825
276.61
276.029
282.657
279.804
277.842
276.62
276.036
536.047
531.174
535.382
530.48
534.12
529.225
532.618
527.542
531.443
526.046
532.571
529.496
531.922
528.056
532.914
530.016
533.249
530.334
565.184
571.275
572.609
572.913
572.978
558.701
569.529
572.212
572.828
572.958
565.312
571.334
572.626
572.917
572.979
558.679
569.572
572.228
572.833
572.959
565.335
571.378
572.64
572.921
572.98
558.531
569.596
572.243
572.837
572.961
565.398
571.43
572.655
572.924
572.981
558.324
569.598
572.248
572.839
572.961
565.467
571.453
572.658
572.924
572.981
558.158
569.562
572.236
572.835
572.96
564.33
571.029
572.537
572.893
572.972
557.696
569.177
572.101
572.797
572.948
564.773
571.216
572.594
572.908
572.976
557.839
569.354
572.168
572.817
572.954
564.041
570.906
572.498
572.882
572.968
557.623
569.078
572.06
572.784
572.944
564.183
570.929
572.5
572.881
572.968
557.744
569.089
572.054
572.78
572.942
419.241
458.148
455.151
416.904
398.222
400.09
405.486
408.697
418.559
421.852
445.333
452.519
449.779
456.649
427.115
429.722
417.793
420.261
409.135
411.149
358.768
341.016
297.399
292.19
295.929
292.679
296.933
357.911
351.594
334.071
340.575
334.697
314.322
324.083
318.944
309.189
312.178
307.689
352.536
327.058
311.817
309.671
315.909
311.923
304.741
304.748
302.751
300.106
306.604
305.064
353.001
332.234
338.662
322.04
315.851
327.388
305.543
299.533
308.418
343.315
329.026
316.541
303.208
285.061
330.949
320.279
309.075
296.634
281.513
294.922
291.464
286.96
281.693
275.952
290.285
287.595
284.054
279.889
275.34
293.625
290.387
286.147
281.182
275.777
290.723
287.962
284.328
280.057
275.396
294.514
291.126
286.702
281.529
275.895
342.58
327.131
313.982
300.577
284.072
336.118
321.452
308.832
296.095
281.32
324.976
314.827
304.083
292.614
279.86
327.533
314.74
303.39
292.026
279.824
323.184
311.306
300.709
290.146
278.981
309.341
302.977
295.331
286.818
277.693
316.995
308.656
299.347
289.326
278.59
312.844
305.419
296.919
287.723
277.995
305.108
299.691
292.964
285.353
277.186
307.53
301.519
294.232
286.108
277.44
303.846
298.691
292.233
284.898
277.029
339.179
325.115
312.782
299.817
283.634
319.93
311.376
301.734
291.106
279.27
307.382
301.554
294.38
286.267
277.508
305.601
300.176
293.406
285.682
277.31
310.848
304.343
296.495
287.652
278.004
307.568
301.798
294.646
286.482
277.585
301.378
296.789
290.939
284.17
276.794
301.383
296.785
290.915
284.139
276.781
299.632
295.333
289.809
283.431
276.536
297.317
293.441
288.419
282.582
276.25
302.955
298.019
291.782
284.647
276.949
301.647
296.985
291.045
284.206
276.802
339.273
325.651
313.65
300.793
283.999
324.161
314.963
304.822
293.478
280.245
329.714
318.369
307.281
295.074
280.284
316.131
308.658
299.864
289.908
278.776
310.938
304.519
296.704
287.809
278.037
320.416
311.778
302.109
291.355
279.211
302.075
297.354
291.349
284.416
276.877
296.808
293.021
288.113
282.4
276.19
304.548
299.348
292.811
285.32
277.185
501.84
542.974
493.816
532.771
469.603
512.457
477.006
523.817
484.426
473.305
512.493
488.009
459.788
447.326
486.149
460.073
519.761
534.479
551.522
557.527
513.716
528.609
544.894
552.329
530.207
507.454
506.094
492.961
523.77
542.84
536.207
543.24
498.664
507.295
512.546
519.575
470.144
477.473
547.656
554.2
518.231
529.195
558.553
565.515
547.538
563.223
562.733
569.206
540.96
560.889
557.731
567.409
533.4
557.088
547.481
563.375
556.602
566.459
561.744
568.3
466.908
455.933
475.667
458.947
435.968
426.562
443.736
429.003
502.486
486.387
493.997
482.547
481.874
461.07
485.54
462.117
449.517
430.83
452.826
431.622
508.783
488.952
512.465
490.23
528.371
557.067
514.332
546.82
520.366
552.367
509.605
543.063
533.844
559.498
517.107
548.986
536.853
560.611
518.374
550.303
535.808
522.724
557.877
548.958
529.086
516.594
555.34
545.719
521.208
509.486
550.877
540.672
457.461
427.422
485.467
510.419
544.298
427.599
455.539
479.814
502.898
535.043
423.953
452.615
478.153
503.075
535.671
502.7
486.923
518.646
504.456
499.239
483.334
518.352
503.472
495.209
479.839
517.46
502.017
420.273
409.578
448.135
436.907
471.12
457.811
491.887
477.467
516.202
500.269
416.6
403.465
445.06
433.853
469.765
457.968
492.854
479.187
515.601
498.722
443.073
433.5
441.268
431.15
411.83
392.941
408.326
386.974
469.926
462.082
470.306
462.214
439.874
428.892
439.737
428.612
406.501
383.344
406.269
383.251
469.125
460.68
469.398
460.795
496.472
488.817
519.557
512.414
495.597
487.366
518.465
509.555
496.056
487.934
519.687
512.865
496.079
487.91
519.527
512.157
475.047
468.78
491.502
485.448
471.16
464.292
489.978
482.592
467.528
460.316
487.377
477.954
398.548
392.484
426.36
419.005
447.036
438.76
465.097
456.464
483.611
472.102
388.68
383.704
423.369
417.025
446.521
438.608
464.511
454.388
478.295
466.814
403.533
395.564
412.082
402.106
430.731
419.406
446.503
429.339
384.671
366.25
389.192
369.778
382.833
366.206
387.918
369.925
384.994
379.636
384.984
378.193
365.79
369.811
405.519
408.489
434.993
439.524
386.587
388.49
387.159
388.289
371.092
371.413
352.365
333.514
354.432
334.363
353.029
332.524
354.841
333.462
353.163
330.908
355.815
332.521
356.771
332.313
356.818
331.532
382.426
373.483
386.786
374.722
406.583
396.935
413.138
399.042
367.441
355.278
363.929
354.484
389.589
375.474
391.092
375.448
417.482
400.451
419.939
400.824
369.16
355.581
369.727
355.231
351.104
329.085
339.579
323.032
348.816
327.882
339.232
322.824
352.242
329.492
339.585
322.774
352.39
329.258
339.115
322.08
348.706
345.458
331.31
327.847
349.098
345.921
330.115
326.699
348.554
345.561
328.277
325.089
376.794
399.287
358.993
345.488
325.635
400.179
377.482
358.473
343.807
323.626
395.262
372.538
353.752
338.883
322.268
341.579
335.661
322.367
312.91
342.339
336.864
321.725
312.743
342.06
336.515
320.672
312.281
393.426
383.951
372.026
364.315
354.771
349.073
340.161
333.885
320.294
312.698
387.875
375.516
366.799
356.587
349.046
340.47
334.318
325.928
319.554
312.624
362.37
349.034
359.117
344.068
382.574
366.723
379.659
360.567
342.369
330.203
345.341
334.109
357.155
340.596
356.5
339.979
378.307
355.909
377.991
355.391
340.42
327.56
339.539
326.802
327.702
317.745
316.181
306.832
331.054
320.426
318.071
309.011
325.489
316.144
314.527
305.09
325.112
315.238
313.425
304.848
329.407
326.839
295.644
293.093
332.257
329.149
296.332
293.592
330.803
326.381
296.847
293.536
374.777
369.419
356.936
352.681
342.278
338.315
326.188
321.507
297.075
293.118
363.1
359.094
346.172
342.415
330.755
327.195
315.018
312.184
295.283
292.202
314.53
301.989
294.285
288.543
314.976
302.118
294.354
288.495
313.951
301.75
294.215
288.567
314.425
301.848
294.295
288.52
312.95
301.327
294.131
288.655
313.575
301.418
294.148
288.487
312.997
300.997
293.688
288.092
312.11
300.376
293.128
287.696
311.785
300.648
293.771
288.473
309.327
299.726
293.243
288.578
311.455
300.685
293.889
288.727
309.547
299.98
293.423
288.798
311.655
300.403
293.453
288.165
308.944
299.385
292.928
288.3
311.161
299.979
293.036
287.81
308.398
298.958
292.572
288.008
313.579
301.684
294.162
288.683
312.101
301.225
293.882
288.889
313.016
301.474
294.091
288.716
311.651
301.071
293.81
288.912
312.097
301.12
293.977
288.802
310.942
300.797
293.705
288.967
310.732
300.565
293.75
288.904
310.205
300.487
293.589
289.032
309.537
300.104
293.465
288.95
310.358
300.778
293.413
289.448
309.122
300.543
293.235
289.708
310.134
300.683
293.398
289.453
308.936
300.449
293.211
289.7
309.698
300.486
293.335
289.437
308.583
300.264
293.138
289.671
309.272
300.235
293.293
289.437
308.241
300.019
293.067
289.64
308.731
299.895
293.209
289.418
307.737
299.701
292.947
289.585
307.145
299.092
292.675
289.102
305.821
298.807
292.439
289.243
308.019
299.54
292.988
289.305
306.826
299.293
292.733
289.453
306.287
298.603
292.277
288.802
304.903
298.291
292.052
288.953
305.575
298.114
291.902
288.492
304.224
297.789
291.68
288.656
283.487
280.287
278.117
276.784
276.152
283.465
280.279
278.113
276.782
276.151
283.465
280.268
278.105
276.777
276.147
283.425
280.251
278.096
276.772
276.144
283.435
280.246
278.091
276.768
276.141
283.347
280.206
278.07
276.756
276.132
283.215
280.133
278.03
276.732
276.116
283.073
280.057
277.988
276.708
276.098
283.322
280.184
278.056
276.748
276.126
283.344
280.186
278.056
276.747
276.126
283.399
280.222
278.077
276.759
276.135
283.393
280.209
278.068
276.754
276.131
283.23
280.137
278.031
276.733
276.116
283.251
280.14
278.032
276.733
276.116
283.071
280.053
277.985
276.706
276.097
283.095
280.058
277.987
276.706
276.097
283.517
280.298
278.122
276.787
276.154
283.544
280.304
278.124
276.788
276.155
283.506
280.285
278.113
276.781
276.15
283.535
280.293
278.117
276.783
276.152
283.488
280.266
278.101
276.774
276.145
283.52
280.276
278.106
276.776
276.146
283.458
280.243
278.087
276.765
276.139
283.484
280.254
278.092
276.768
276.141
283.425
280.225
278.077
276.759
276.134
532.145
528.059
532.244
528.133
532.203
528.077
531.852
527.499
531.548
526.796
532.873
529.918
532.248
528.668
533.117
530.27
533.318
530.417
564.617
571.184
572.593
572.91
572.977
557.806
569.352
572.18
572.822
572.957
564.861
571.261
572.612
572.915
572.979
557.975
569.43
572.202
572.828
572.958
565.059
571.332
572.632
572.919
572.98
558.125
569.507
572.225
572.834
572.96
565.293
571.411
572.651
572.923
572.981
558.211
569.563
572.24
572.837
572.961
565.485
571.454
572.658
572.924
572.981
558.248
569.567
572.235
572.835
572.959
564.397
571.043
572.54
572.893
572.972
557.828
569.205
572.107
572.798
572.948
564.838
571.227
572.596
572.908
572.976
557.989
569.379
572.172
572.817
572.954
564.088
570.916
572.5
572.882
572.968
557.709
569.099
572.064
572.784
572.944
564.199
570.933
572.5
572.881
572.968
557.773
569.096
572.056
572.78
572.942
419.012
457.689
453.499
415.708
408.84
415.317
406.669
414.599
436.472
453.086
440.452
456.198
278.319
278.846
280.021
281.902
284.52
287.907
278.763
279.287
280.447
282.278
284.818
288.112
277.957
277.776
278.492
278.308
279.699
279.52
281.692
281.58
284.485
284.574
288.162
288.647
292.031
297.285
304.27
313.847
322.017
327.985
292.227
297.303
303.427
310.238
316.162
319.958
277.812
277.084
276.107
274.942
273.661
278.288
277.487
276.413
275.133
273.726
279.349
278.384
277.094
275.558
273.87
281.045
279.818
278.181
276.236
274.1
283.404
281.81
279.689
277.175
274.419
286.448
284.375
281.628
278.382
274.829
278.213
277.423
276.365
275.103
273.715
278.686
277.823
276.668
275.292
273.78
279.733
278.708
277.339
275.711
273.922
281.383
280.103
278.396
276.37
274.146
283.669
282.032
279.856
277.279
274.454
286.628
284.524
281.739
278.451
274.852
277.485
276.806
275.896
274.811
273.616
277.321
276.668
275.791
274.745
273.594
277.968
277.215
276.207
275.005
273.682
277.802
277.075
276.1
274.938
273.659
279.058
278.138
276.907
275.442
273.83
278.896
278.002
276.804
275.377
273.808
280.856
279.659
278.061
276.161
274.075
280.756
279.575
277.997
276.121
274.061
283.373
281.785
279.67
277.164
274.415
283.453
281.853
279.722
277.196
274.426
286.678
284.57
281.775
278.473
274.859
287.114
284.936
282.051
278.644
274.917
290.142
287.476
283.967
279.836
275.322
294.821
291.384
286.906
281.665
275.944
300.98
296.485
290.734
284.056
276.76
309.28
303.274
295.84
287.297
277.882
316.172
308.851
300.092
290.097
278.9
321.106
312.816
303.157
292.179
279.672
290.313
287.617
284.072
279.903
275.345
294.837
291.399
286.919
281.676
275.948
300.257
295.904
290.308
283.792
276.671
306.228
300.837
294.02
286.129
277.475
311.367
305.06
297.213
288.167
278.187
314.636
307.741
299.254
289.488
278.654
278.409
279.125
280.513
282.648
285.57
289.309
278.856
279.574
280.947
283.019
285.827
289.405
278.043
277.861
278.762
278.573
280.184
279.999
282.449
282.339
285.585
285.697
289.725
290.356
293.789
299.351
306.499
315.857
323.436
328.5
293.783
299.044
305.196
311.786
317.23
320.34
277.894
277.153
276.16
274.975
273.672
278.54
277.701
276.577
275.236
273.761
279.795
278.764
277.384
275.74
273.932
281.722
280.396
278.623
276.513
274.195
284.357
282.624
280.313
277.567
274.553
287.724
285.467
282.466
278.91
275.009
278.298
277.495
276.42
275.138
273.727
278.947
278.045
276.838
275.399
273.816
280.186
279.095
277.635
275.896
273.985
282.056
280.677
278.835
276.645
274.24
284.587
282.816
280.457
277.657
274.583
287.806
285.532
282.513
278.938
275.019
277.563
276.873
275.947
274.843
273.627
277.398
276.733
275.841
274.776
273.604
278.213
277.424
276.366
275.104
273.716
278.043
277.28
276.256
275.036
273.693
279.498
278.513
277.193
275.621
273.891
279.331
278.372
277.086
275.554
273.869
281.543
280.245
278.509
276.442
274.171
281.444
280.162
278.446
276.403
274.157
284.373
282.639
280.324
277.575
274.555
284.474
282.725
280.39
277.616
274.569
288.102
285.788
282.71
279.062
275.061
288.672
286.271
283.077
279.291
275.138
291.747
288.853
285.026
280.505
275.551
296.714
293.016
288.168
282.465
276.218
303.035
298.27
292.126
284.946
277.066
311.156
304.925
297.147
288.144
278.175
317.513
310.045
301.05
290.729
279.122
321.598
313.258
303.516
292.42
279.758
291.733
288.835
285.01
280.495
275.548
296.43
292.771
287.98
282.347
276.178
301.883
297.312
291.402
284.489
276.91
307.66
302.085
294.997
286.756
277.691
312.36
305.931
297.9
288.611
278.341
314.992
308.056
299.503
289.65
278.71
359.587
341.737
299.965
294.229
299.138
295.185
299.955
366.704
364.629
343.046
355.382
321.465
332.951
315.66
320.108
313.822
358.336
333.237
317.689
314.676
321.349
316.15
307.799
308.728
308.024
304.522
312.04
309.739
355.551
334.276
342.933
324.99
319.478
332.197
309.16
303.178
312.834
344.181
329.847
317.267
303.767
285.29
331.662
320.937
309.629
297.023
281.657
297.275
293.495
288.533
282.692
276.295
292.146
289.194
285.286
280.667
275.606
296.564
292.92
288.106
282.424
276.203
293.012
289.928
285.843
281.014
275.724
297.284
293.516
288.552
282.703
276.298
352.206
336.443
322.141
306.58
286.546
350.586
335.117
320.629
304.647
284.737
334.032
323.278
311.166
297.493
281.659
343.856
329.725
316.012
300.919
283.291
316.196
309.152
300.314
290.098
278.849
325.859
316.849
306.119
293.897
280.243
311.206
305.104
297.273
288.154
278.162
315.067
308.26
299.639
289.65
278.683
309.613
303.803
296.297
287.535
277.947
345.282
330.966
317.885
303.548
285.165
325.953
316.886
306.268
294.16
280.368
312.932
306.496
298.328
288.841
278.407
310.292
304.321
296.694
287.813
278.051
316.013
308.964
300.21
290.092
278.861
311.532
305.303
297.43
288.289
278.214
304.208
299.257
292.872
285.409
277.222
305.071
300.006
293.441
285.759
277.341
304.498
299.565
293.115
285.545
277.265
301.374
296.951
291.146
284.318
276.847
308.03
302.485
295.31
286.922
277.738
305.989
300.785
294.031
286.125
277.465
341.943
328.147
315.819
302.401
284.667
326.143
316.765
306.307
294.49
280.613
333.978
322.297
310.575
297.346
281.061
318.933
311.166
301.885
291.24
279.241
314.352
307.549
299.122
289.386
278.586
325.079
316.015
305.583
293.684
280.03
305.43
300.286
293.65
285.894
277.388
300.159
295.923
290.368
283.835
276.683
308.67
302.974
295.677
287.17
277.827
279.252
291.254
302.146
311.599
319.193
324.92
482.29
476.928
452.989
458.347
468.832
462.095
445.193
436.218
502.547
520.378
498.412
515.613
492.854
483.526
510.528
471.84
467.947
444.929
449.036
461.246
456.3
438.426
431.458
491.505
505.589
488.861
502.31
484.347
476.659
498.424
457.245
454.858
433.49
436.299
450.086
447.302
428.587
423.461
474.961
489.032
473.346
487.044
470.561
465.322
484.491
442.548
440.967
421.401
423.547
437.463
435.754
417.369
412.946
459.342
473.376
458.284
471.806
456.079
451.728
469.697
431.949
430.59
412.557
414.52
427.211
425.294
408.639
403.675
447.508
460.289
446.762
459.685
444.889
440.774
458.034
424.613
423.304
406.573
408.474
419.964
417.962
402.752
397.888
438.617
451.622
437.905
451.45
436.363
432.505
449.803
402.199
399.277
425.742
429.545
395.41
388.199
420.033
410.949
378.935
359.493
376.547
358.94
371.45
370.133
357.996
397.961
395.098
419.923
423.211
391.358
384.506
414.739
406.592
373.904
357.283
371.415
357.012
366.873
365.977
356.003
391.711
389.067
411.26
413.912
385.579
379.557
406.884
400.143
371.722
355.75
369.476
354.902
365.251
364.277
353.336
384.71
382.067
401.615
403.95
378.074
371.673
397.506
390.668
367.633
353.056
365.176
351.381
360.674
358.889
348.795
379.601
376.953
394.568
396.81
373.054
366.641
390.508
383.658
364.423
351.63
361.654
348.738
356.761
354.138
344.908
376.463
373.795
389.922
392.13
369.953
363.52
385.922
379.272
363.309
350.196
360.306
346.462
354.573
351.361
342.045
540.361
556.946
526.678
546.773
509.297
532.496
482.453
507.64
486.024
511.455
510.91
535.98
522.362
545.262
533.965
553.508
500.259
483.845
517.784
492.455
473.926
456.21
490.328
463.575
547.979
554.526
561.022
564.281
537.582
546.319
553.177
558.375
536.434
523.423
510.692
503.415
537.476
548.227
537.964
543.616
500.592
507.769
514.111
519.969
471.65
477.871
549.524
554.561
520.107
529.638
559.985
565.736
559.165
567.214
566.817
570.596
551.771
564.421
561.632
568.691
542.07
559.871
551.352
564.66
558.013
566.972
562.024
568.411
470.003
455.267
477.572
458.588
436.405
423.286
444.252
427.272
504.997
486.797
498.369
483.371
482.763
460.835
485.77
462.021
449.754
429.912
452.878
431.31
509.943
489.106
512.773
490.261
530.708
557.92
514.918
547.043
524.67
553.934
510.782
543.496
534.905
559.897
517.357
549.082
537.134
560.721
518.44
550.328
554.521
544.126
564.133
556.397
546.36
535.936
560.662
551.935
534.92
523.895
554.894
544.937
454.719
416.007
489.234
516.404
546.51
414.667
452.619
484.825
510.483
537.676
413.955
449.552
479.203
505.164
536.373
523.405
504.234
527.308
509.028
517.867
498.755
525.155
506.506
509.079
490.505
521.527
502.729
407.591
394.383
445.177
431.955
475.143
459.246
497.867
480.364
518.023
499.138
406.398
391.844
440.815
426.83
469.178
453.873
493.386
476.254
515.497
495.995
439.846
428.834
439.067
428.153
405.549
385.166
404.463
382.095
468.835
460.273
469.051
459.507
438.636
427.259
439.339
428.107
404.518
380.922
405.652
382.511
468.428
459.625
469.164
460.46
495.952
487.772
519.214
511.755
495.198
485.745
518.124
508.429
495.667
487.298
519.442
512.48
495.933
487.688
519.445
512.034
482.04
463.579
453.462
485.088
465.868
455.592
477.25
458.445
448.324
482.329
462.35
451.761
468.299
449.027
438.571
477.979
456.891
445.796
377.292
364.778
358.351
413.861
397.152
388.117
439.871
420.827
410.152
458.572
438.906
428.312
472.956
450.564
438.68
373.555
360.443
353.292
410.179
394.864
386.779
435.187
417.49
407.993
453.77
433.348
422.365
467.294
444.757
433.051
411.875
398.457
415.773
402.782
441.36
425.161
449.928
431.463
383.312
362.988
384.526
364.935
384.315
363.539
386.095
366.094
384.217
381.012
383.689
377.23
362.537
366.713
405.556
408.448
435.865
439.754
385.791
388.148
386.219
387.938
369.08
370.664
341.246
322.18
346.747
325.411
342.844
321.932
348.282
325.623
343.969
321.469
350.647
326.293
353.693
328.46
355.768
330.206
376.913
365.145
384.159
370.094
403.83
390.603
412.059
395.674
363.239
349.903
355.872
345.302
388.24
373.041
390.68
374.645
416.951
398.71
419.774
400.249
366.982
352.688
369.06
354.272
345.656
323.645
334.103
318.151
339.189
319.629
330.346
315.496
349.354
326.357
336.548
319.956
351.502
328.246
338.093
321.141
323.913
313.188
315.613
308.692
325.146
314.901
315.364
308.878
326.675
318.452
314.96
309.722
356.905
380.961
339.815
328.552
314.169
378.98
353.452
333.928
322.131
310.175
379.235
355.383
337.841
325.202
312.376
304.72
296.859
301.622
294.082
307.233
299.28
302.641
295.277
311.439
303.854
304.315
297.234
372.13
359.55
346.629
335.599
328.831
320.577
317.091
309.463
306.477
299.787
371.892
358.911
348.947
338.093
332.14
323.171
319.833
311.541
309.147
302.409
352.036
338.631
353.175
338.061
373.324
356.744
374.307
354.636
336.425
324.594
335.204
324.422
354.166
337.677
355.576
339.095
375.658
353.033
377.179
354.522
337.37
324.807
338.581
325.956
322.365
312.986
311.591
303.046
322.024
312.304
310.878
302.821
322.637
313.704
311.996
303.113
324.147
314.447
312.662
304.26
287.348
282.12
280.076
281.246
277.629
276.42
290.306
284.714
282.376
282.442
278.662
277.28
294.891
288.934
286.536
284.268
280.138
278.661
345.716
336.009
331.366
324.996
317.558
314.276
311.01
304.616
302.065
299.866
293.663
291.113
286.048
281.772
280.065
344.126
333.715
328.654
326.152
317.447
313.186
312.564
305.177
301.733
300.517
294.569
292.213
287.21
283.044
280.954
306.858
297.247
291.271
286.659
308.247
297.792
291.533
286.708
306.745
297.273
291.368
286.797
308.475
297.987
291.759
286.911
306.488
297.274
291.519
287.011
308.76
298.253
292.046
287.161
309.891
298.907
292.316
287.261
311.01
299.625
292.628
287.382
307.809
298.025
292.01
287.322
305.753
297.338
291.615
287.434
305.936
297.178
291.593
287.244
304.494
296.722
291.304
287.392
309.223
298.756
292.309
287.376
306.803
297.917
291.891
287.529
310.335
299.411
292.642
287.543
307.681
298.46
292.216
287.741
304.548
296.394
290.902
286.654
301.839
295.425
290.434
286.709
304.396
296.382
290.948
286.762
301.876
295.473
290.474
286.798
304.149
296.356
291.015
286.94
302.158
295.636
290.589
286.958
303.748
296.294
291.057
287.168
302.319
295.758
290.71
287.162
303.258
296.19
291.008
287.349
299.401
294.632
289.886
287.024
298.011
294.25
289.642
287.139
299.79
294.792
289.985
287.102
298.464
294.427
289.74
287.209
300.421
295.062
290.143
287.226
299.2
294.727
289.897
287.328
301.197
295.394
290.383
287.414
300.129
295.114
290.126
287.49
302.199
295.832
290.671
287.611
301.052
295.527
290.361
287.659
303.611
296.676
291.072
287.902
302.34
296.372
290.834
288.012
302.961
296.241
290.867
287.762
301.794
295.959
290.599
287.836
304.201
297.124
291.274
288.03
302.878
296.811
291.058
288.181
304.894
297.62
291.564
288.23
303.571
297.301
291.349
288.397
282.469
279.72
277.799
276.596
276.019
282.481
279.726
277.803
276.599
276.021
282.524
279.746
277.813
276.604
276.025
282.548
279.76
277.821
276.609
276.028
282.581
279.774
277.828
276.612
276.031
282.64
279.811
277.849
276.625
276.039
282.773
279.884
277.89
276.65
276.057
282.9
279.959
277.933
276.675
276.075
282.708
279.841
277.864
276.634
276.046
282.731
279.845
277.865
276.634
276.046
282.642
279.804
277.843
276.621
276.037
282.691
279.822
277.852
276.626
276.04
282.785
279.886
277.89
276.649
276.057
282.807
279.889
277.89
276.649
276.056
282.92
279.967
277.937
276.677
276.076
282.938
279.968
277.936
276.676
276.076
282.457
279.713
277.795
276.594
276.018
282.454
279.708
277.793
276.592
276.017
282.5
279.732
277.805
276.599
276.021
282.493
279.726
277.801
276.597
276.02
282.554
279.757
277.817
276.606
276.026
282.545
279.748
277.812
276.603
276.024
282.616
279.784
277.832
276.614
276.032
282.598
279.773
277.825
276.61
276.029
282.657
279.805
277.842
276.62
276.036
536.104
531.238
535.399
530.497
534.128
529.232
532.622
527.545
531.444
526.046
532.57
529.496
531.922
528.056
532.914
530.015
533.249
530.334
565.221
571.284
572.611
572.913
572.978
558.728
569.536
572.214
572.828
572.958
565.325
571.338
572.627
572.917
572.979
558.694
569.577
572.23
572.833
572.959
565.34
571.38
572.641
572.921
572.98
558.539