/*--------------------------------*- C++ -*----------------------------------*\
| =========                 |                                                 |
| \\      /  F ield         | OpenFOAM: The Open Source CFD Toolbox           |
|  \\    /   O peration     | Version:  2412                                  |
|   \\  /    A nd           | Website:  www.openfoam.com                      |
|    \\/     M anipulation  |                                                 |
\*---------------------------------------------------------------------------*/
FoamFile
{
    version     2.0;
    format      ascii;
    arch        "LSB;label=32;scalar=64";
    class       volVectorField;
    location    "2.1";
    object      flux;
}
// * * * * * * * * * * * * * * * * * * * * * * * * * * * * * * * * * * * * * //

dimensions      [0 1 -1 1 0 0 0];

internalField   nonuniform List<vector> 
5712
(
(-0.318084 0.516332 0.293142)
(-0.38869 0.283696 0.89058)
(-0.726894 0.899328 0.222378)
(-1.13551 0.588859 0.97424)
(-1.09788 0.866043 0.121881)
(-2.14235 0.736422 1.0319)
(-0.758916 1.27656 0.207825)
(-2.28407 1.58162 1.63439)
(-0.783066 1.94323 0.339549)
(-1.83171 2.46064 2.05236)
(-0.962937 1.02945 0.348032)
(-1.58338 0.90443 1.45613)
(-0.73676 0.633826 0.371471)
(-0.97427 0.436708 1.29417)
(-0.396305 0.418285 0.36612)
(-0.402236 0.238143 1.11184)
(-0.51677 0.858667 0.172107)
(-0.584774 0.774056 0.0936839)
(-0.708865 0.776193 0.518883)
(-0.642414 0.768228 0.245299)
(-0.492512 0.985763 0.160555)
(-0.741281 0.945331 0.0738114)
(-0.734859 1.13886 0.559261)
(-0.735515 0.979646 0.225174)
(-0.208319 0.303827 0.22429)
(-0.151037 0.212855 0.1654)
(-0.282479 0.15825 0.662103)
(-0.202089 0.109441 0.484153)
(-0.472523 0.442331 0.150361)
(-0.306613 0.285461 0.118365)
(-0.874108 0.245232 0.665967)
(-0.609485 0.158903 0.504321)
(-0.72767 0.873039 0.337853)
(-0.737619 0.924323 0.122897)
(-0.738811 0.782958 0.256255)
(-0.747024 0.637785 0.0931939)
(-0.170128 0.632797 0.117043)
(-0.152048 0.494419 0.313549)
(-1.69389 0.536163 1.59864)
(-2.0947 0.511952 0.488462)
(-0.901028 0.716455 0.480122)
(-1.20258 0.703943 0.221714)
(-2.18377 1.45915 1.94034)
(-2.68744 1.60688 0.608185)
(-1.01122 1.04508 0.447723)
(-1.24444 1.105 0.210218)
(-1.26869 0.754323 1.05882)
(-1.65868 0.593723 0.352947)
(-1.01101 0.769932 0.539802)
(-1.40037 0.540584 0.246001)
(-0.58117 0.327082 0.862195)
(-0.735917 0.282325 0.2741)
(-0.118884 0.244412 0.201633)
(-0.037646 0.36357 0.109286)
(-0.154549 0.121588 0.353197)
(-0.0535502 0.165411 0.142968)
(-0.265986 0.324018 0.17964)
(-0.109386 0.485072 0.113366)
(-0.461159 0.203644 0.370757)
(-0.169246 0.278838 0.140036)
(-0.302656 0.330488 0.240368)
(-0.100503 0.581104 0.152671)
(-0.305682 0.252121 0.232988)
(-0.0865625 0.414017 0.0979247)
(-0.601087 0.0787928 0.413588)
(-0.175065 0.278025 0.149473)
(-0.78793 0.0137444 0.162769)
(-0.247038 0.198969 0.0601732)
(-1.01507 0.734709 0.506553)
(-0.580111 0.884496 0.38215)
(-0.858621 0.771441 0.306795)
(-0.592986 0.875807 0.275682)
(-1.03999 0.927908 0.564281)
(-0.669832 0.944798 0.494826)
(-0.825304 0.946309 0.30595)
(-0.667392 0.922318 0.326474)
(-0.665393 0.687494 0.28514)
(-0.479667 0.831176 0.245532)
(-0.729879 0.687012 0.373169)
(-0.4614 0.819429 0.32019)
(-0.834394 0.773124 0.228069)
(-0.615347 0.869222 0.196545)
(-0.862481 0.758721 0.132164)
(-0.631741 0.863387 0.113753)
(-0.809145 0.953628 0.22667)
(-0.683167 0.909169 0.226166)
(-0.840885 0.953898 0.129336)
(-0.697178 0.901689 0.12956)
(-0.687198 0.6456 0.218842)
(-0.508846 0.83251 0.172233)
(-0.741064 0.588858 0.127605)
(-0.528175 0.828701 0.0903603)
(-0.733043 0.709546 0.245227)
(-0.3008 0.759626 0.138128)
(-0.417879 0.893649 0.24682)
(-0.476717 1.25114 0.271723)
(-0.788251 0.742891 0.327056)
(-0.346749 0.87643 0.248888)
(-0.413921 0.888719 0.353985)
(-0.498187 1.36683 0.465492)
(-0.735485 0.671462 0.178696)
(-0.280825 0.673138 0.0765938)
(-0.438163 0.888848 0.158304)
(-0.47035 1.18805 0.163068)
(-0.760617 0.645399 0.101007)
(-0.282737 0.618257 0.0353777)
(-0.461054 0.887511 0.0725736)
(-0.474824 1.15713 0.0626214)
(-0.114933 0.180253 0.23199)
(-0.129206 0.227749 0.468188)
(-0.040416 0.491298 0.168916)
(-0.0800743 0.80122 0.529575)
(-0.331403 0.216287 0.250899)
(-0.388912 0.242304 0.473993)
(-0.13613 0.607685 0.201294)
(-0.25887 0.899058 0.563411)
(-0.538641 0.257676 0.330003)
(-0.639542 0.268458 0.470095)
(-0.242739 0.742948 0.278821)
(-0.43503 1.0136 0.572882)
(-0.703525 1.00315 0.363199)
(-0.370888 1.11401 0.4335)
(-0.712727 0.844066 0.282466)
(-0.855228 0.771563 0.284165)
(-0.430056 1.04936 0.345816)
(-0.271578 1.13526 0.285971)
(-0.434635 0.981109 0.317453)
(-0.497887 0.844655 0.438985)
(-0.86876 0.71285 0.513463)
(-0.55286 1.18736 0.751696)
(-0.402452 1.04046 0.386939)
(-0.527686 0.957854 0.314846)
(-0.58468 0.802738 0.301788)
(-0.565902 0.823241 0.382524)
(-0.705362 1.543 0.60711)
(-0.127228 0.0648908 0.584214)
(-0.130487 0.0854868 0.566445)
(-0.078732 0.174416 0.682947)
(-0.0840379 0.359079 0.689086)
(-0.377214 0.091999 0.569845)
(-0.360027 0.127746 0.571395)
(-0.242723 0.23145 0.684682)
(-0.246542 0.419261 0.682724)
(-0.565521 0.138629 0.524865)
(-0.518164 0.133907 0.5456)
(-0.358948 0.310307 0.655995)
(-0.360753 0.498997 0.663849)
(-0.388964 1.10846 0.360052)
(-0.434835 1.10845 0.382611)
(-0.614821 0.918733 0.354356)
(-0.65224 0.881553 0.37493)
(-0.685229 0.773051 0.431104)
(-0.644817 0.689519 0.433264)
(-0.813582 0.563527 0.505544)
(-0.747042 0.500126 0.493794)
(-0.561229 0.435096 0.639485)
(-0.559569 0.646591 0.648603)
(-0.523528 0.980116 0.328338)
(-0.569418 0.887631 0.361251)
(-0.67532 0.903902 0.372854)
(-0.618829 0.850357 0.40016)
(-0.635646 0.761673 0.41772)
(-0.533417 0.705768 0.453606)
(-0.568816 0.654695 0.482579)
(-0.456837 0.579951 0.532063)
(-0.631689 0.517805 0.635883)
(-0.503387 0.708173 0.694001)
(-0.570778 0.927999 0.3844)
(-0.307866 0.988592 0.262424)
(-0.447935 0.959964 0.311019)
(-0.436479 1.05426 0.313116)
(-0.629373 0.937149 0.429342)
(-0.733142 0.866414 0.487691)
(-0.642638 0.950116 0.349083)
(-0.837948 0.911309 0.460856)
(-0.377632 0.837578 0.286305)
(-0.372851 0.847233 0.290651)
(-0.517041 0.826153 0.364404)
(-0.236138 0.821563 0.261793)
(-0.432392 0.975978 0.131776)
(-0.682494 1.07959 0.225997)
(-0.446803 0.96809 0.053866)
(-0.728156 1.06839 0.0841702)
(-0.651934 0.961776 0.216187)
(-1.02693 0.948832 0.341504)
(-0.673455 0.949964 0.0846199)
(-1.05022 0.941014 0.127822)
(-0.365725 0.82956 0.111134)
(-0.599089 0.840583 0.198793)
(-0.378006 0.839545 0.041581)
(-0.648839 0.84641 0.072514)
(-0.450454 0.718037 0.273013)
(-0.336049 0.709905 0.232996)
(-0.576675 0.492844 0.279462)
(-0.260602 0.588134 0.175329)
(-0.48835 0.724367 0.384631)
(-0.184281 0.699294 0.27483)
(-0.545829 0.507354 0.438138)
(-0.134047 0.608694 0.293423)
(-0.467338 0.698114 0.127972)
(-0.4807 0.699596 0.148534)
(-0.60357 0.486717 0.159167)
(-0.311482 0.588522 0.0908007)
(-0.421203 0.704132 0.0982881)
(-0.553917 0.691647 0.106929)
(-0.554134 0.481921 0.10941)
(-0.396047 0.574247 0.0830505)
(-0.122243 0.0738252 0.492756)
(-0.113872 0.0603233 0.324674)
(-0.0984255 0.0445959 0.10634)
(-0.078959 0.0410728 0.533718)
(-0.0773147 0.0353829 0.336131)
(-0.0677135 0.03491 0.116262)
(-0.33116 0.110563 0.48495)
(-0.286018 0.0785916 0.317381)
(-0.250033 0.061513 0.108106)
(-0.216023 0.0956667 0.532624)
(-0.18095 0.0856419 0.335068)
(-0.152942 0.0743015 0.113636)
(-0.433631 0.117653 0.46279)
(-0.368086 0.114077 0.298334)
(-0.336795 0.121389 0.100049)
(-0.31103 0.172872 0.522977)
(-0.250738 0.15063 0.329714)
(-0.226981 0.138063 0.113433)
(-0.390883 1.0592 0.274502)
(-0.317664 0.944579 0.157218)
(-0.301815 0.864528 0.0412845)
(-0.608813 0.881779 0.327543)
(-0.454032 0.828103 0.223747)
(-0.369305 0.783306 0.0728012)
(-0.548036 0.602242 0.377564)
(-0.402154 0.577177 0.265866)
(-0.312249 0.563958 0.0897392)
(-0.609727 0.426984 0.418605)
(-0.478181 0.405156 0.272961)
(-0.40291 0.395711 0.0895713)
(-0.471984 0.281123 0.505798)
(-0.321238 0.207897 0.318614)
(-0.239563 0.169914 0.112686)
(-0.731014 0.837364 0.302116)
(-0.595171 0.773144 0.166163)
(-0.528848 0.726769 0.0545936)
(-0.536072 0.835422 0.295424)
(-0.424751 0.779377 0.191569)
(-0.352159 0.746559 0.0666998)
(-0.47298 0.622042 0.333426)
(-0.355517 0.553954 0.220145)
(-0.279588 0.516634 0.0754989)
(-0.422405 0.447773 0.396246)
(-0.315531 0.395388 0.254704)
(-0.250221 0.371714 0.0871492)
(-0.455631 0.296571 0.480004)
(-0.273025 0.219311 0.280623)
(-0.16993 0.179361 0.0972991)
(-0.458364 1.1393 -0.0198651)
(-0.747868 1.1812 0.0396616)
(-0.388552 1.21237 0.0179199)
(-0.55729 1.11371 0.105892)
(-0.372265 1.1125 0.0717562)
(-0.767326 1.11223 0.0723856)
(-0.311559 1.32708 0.184903)
(-0.629198 1.14324 0.161763)
(-0.00741862 0.727069 0.024153)
(-0.069108 0.799931 0.0388953)
(0.00991948 0.724666 0.025593)
(-0.0405247 0.714298 0.0408018)
(-0.142385 0.964834 0.0136466)
(-0.268719 0.848568 0.0377138)
(-0.0892798 0.943717 0.0251294)
(-0.162309 0.745539 0.0552767)
(-0.0736489 1.04081 0.0757344)
(-0.157065 1.08609 0.0454476)
(-0.439758 0.890834 0.152865)
(-0.655845 1.00007 0.108307)
(-0.349108 1.16769 0.069871)
(-0.259452 1.0257 0.114937)
(-0.466506 1.1581 0.117431)
(-0.407827 1.20199 0.0327384)
(-0.625992 1.22649 0.236639)
(-0.670152 1.31418 0.0747386)
(0.0225841 0.996525 -0.166899)
(0.220879 1.02179 -0.0251704)
(-0.335463 0.865638 0.0262022)
(-0.235466 0.852776 0.0274263)
(-0.262246 0.989538 0.000274707)
(-0.151141 0.955265 0.00637789)
(-0.0634879 0.668305 0.412039)
(-0.0406392 0.381509 0.179818)
(-0.0509942 0.624932 0.109282)
(-0.0312039 0.421896 0.0644942)
(-0.155835 0.648626 0.405872)
(-0.0500857 0.373601 0.182343)
(-0.0772006 0.601724 0.119227)
(-0.00915611 0.408632 0.0762903)
(-0.398905 0.59277 0.392227)
(-0.119875 0.345665 0.199495)
(-0.299658 0.558614 0.160423)
(-0.092785 0.388231 0.113324)
(-0.340909 0.548673 0.123332)
(-0.10275 0.403241 0.0802373)
(-0.386334 0.526817 0.0687398)
(-0.127671 0.402667 0.0620133)
(-0.490804 0.909216 0.525543)
(-0.486666 0.718545 0.459245)
(-0.382522 0.889962 0.230136)
(-0.483226 0.722506 0.294158)
(-0.743846 1.01615 0.590993)
(-0.671288 0.91028 0.551806)
(-0.609627 1.01795 0.287676)
(-0.639104 0.894292 0.34491)
(-0.284311 0.820951 0.208706)
(-0.374281 0.56913 0.251787)
(-0.331496 0.853903 0.444983)
(-0.345167 0.550856 0.366697)
(-0.358646 0.906184 0.146291)
(-0.481094 0.72431 0.191792)
(-0.377493 0.929953 0.0840264)
(-0.486147 0.722507 0.111354)
(-0.582462 1.04127 0.192185)
(-0.627544 0.887976 0.224608)
(-0.603974 1.05839 0.110685)
(-0.632618 0.883666 0.12843)
(-0.251737 0.798186 0.118434)
(-0.380238 0.575806 0.165985)
(-0.244166 0.792044 0.0662152)
(-0.385537 0.575563 0.10087)
(-0.0330286 0.488683 0.185702)
(-0.0593387 0.337778 0.131549)
(-0.302135 0.432143 0.210501)
(-0.170699 0.275652 0.141106)
(-0.0319583 0.45169 0.319548)
(-0.0500934 0.302198 0.189664)
(-0.264318 0.404754 0.28314)
(-0.144348 0.252411 0.18527)
(-0.0329346 0.499587 0.110264)
(-0.0535385 0.358138 0.0899789)
(-0.319521 0.444121 0.146065)
(-0.188137 0.288774 0.096913)
(-0.0454529 0.502419 0.0617065)
(-0.0585114 0.37163 0.0566609)
(-0.323228 0.447164 0.0924412)
(-0.198676 0.296606 0.0599587)
(0.00711784 0.108095 0.47984)
(0.0128129 0.0586237 0.318159)
(-0.0193067 0.201939 0.234021)
(-0.0133743 0.114242 0.24251)
(0.0341034 0.1117 0.47557)
(0.055127 0.0675405 0.317001)
(-0.0315078 0.204603 0.231257)
(-0.0212039 0.12584 0.237734)
(-0.0473893 0.121481 0.480444)
(-0.00558101 0.0900286 0.304311)
(-0.103778 0.202497 0.235331)
(-0.0911049 0.144595 0.220907)
(0.307408 0.544229 0.52972)
(0.156149 0.909979 0.513578)
(0.180463 0.352847 0.492679)
(0.119288 0.319252 0.377787)
(-0.00272695 0.227703 0.216724)
(0.283526 0.931395 0.312621)
(0.415275 0.599817 0.374985)
(0.197045 0.336442 0.39456)
(0.198556 0.29882 0.368851)
(-0.00191619 0.177238 0.257006)
(-0.375304 0.898226 0.444472)
(-0.274904 0.650675 0.39668)
(-0.226596 0.47682 0.327616)
(-0.234354 0.3487 0.263928)
(-0.139076 0.215246 0.171386)
(0.0212536 0.0417957 0.270738)
(0.017133 0.0404255 0.267363)
(-0.00775793 0.0788947 0.270887)
(-0.0121789 0.0737334 0.327059)
(0.0596066 0.0519306 0.269545)
(0.066234 0.0406557 0.258883)
(-0.0217967 0.0953964 0.264685)
(-0.0300673 0.086894 0.320027)
(0.0506083 0.0731965 0.25709)
(0.0748668 0.064299 0.244775)
(-0.058866 0.115458 0.251562)
(-0.0716029 0.103736 0.306294)
(0.124529 0.945499 0.35111)
(0.0650184 0.903954 0.332034)
(0.322462 0.602912 0.325164)
(0.228774 0.550591 0.279456)
(0.172149 0.378377 0.241783)
(0.123771 0.363025 0.24187)
(0.155566 0.289577 0.232199)
(0.129392 0.27683 0.241698)
(-0.0138555 0.163251 0.219717)
(-0.0448722 0.147697 0.288823)
(-0.197807 0.824399 0.257879)
(-0.137043 0.708117 0.292227)
(0.0195074 0.601203 0.214409)
(0.08865 0.51719 0.243723)
(0.0264368 0.449087 0.189574)
(0.0779097 0.408346 0.216605)
(-0.0171583 0.317789 0.184713)
(0.0265205 0.304511 0.221458)
(-0.0359042 0.199358 0.166699)
(-0.0518619 0.22211 0.265107)
(-0.162819 0.568355 0.189663)
(-0.180482 0.449546 0.152067)
(-0.388563 0.573412 0.129894)
(-0.246601 0.423487 0.0696704)
(-0.345656 0.725701 0.292602)
(-0.336969 0.537408 0.222328)
(-0.519861 0.735898 0.236439)
(-0.406499 0.527811 0.149663)
(-0.298379 0.466887 0.0982549)
(-0.183642 0.375615 0.0563557)
(-0.101269 0.462255 0.145442)
(-0.129465 0.401111 0.131069)
(-0.46005 0.591816 0.168956)
(-0.194335 0.403432 0.0735951)
(-0.493395 0.596405 0.0786395)
(-0.179129 0.40758 0.0433307)
(-0.59718 0.77121 0.220675)
(-0.391545 0.54132 0.126419)
(-0.635553 0.768786 0.0906322)
(-0.376024 0.545058 0.0624745)
(-0.359525 0.469748 0.136566)
(-0.133918 0.352419 0.0581843)
(-0.390703 0.477109 0.0695668)
(-0.115737 0.366679 0.0348708)
(-0.226465 0.333297 0.0822433)
(-0.185397 0.304386 0.0981168)
(-0.173915 0.220188 0.10148)
(-0.305699 0.293371 0.17137)
(-0.112185 0.338115 0.124183)
(-0.14958 0.319278 0.151327)
(-0.114973 0.224107 0.122054)
(-0.257133 0.289577 0.222403)
(-0.249404 0.33186 0.099469)
(-0.173453 0.295611 0.0720196)
(-0.21076 0.21403 0.0747063)
(-0.350824 0.306258 0.123046)
(-0.300952 0.348925 0.0448116)
(-0.164288 0.2981 0.0176864)
(-0.248527 0.222687 0.0159523)
(-0.347678 0.302799 0.0307837)
(0.0228001 0.0941661 0.210945)
(0.0298804 0.0752539 0.0968148)
(0.0349276 0.0589297 0.0279024)
(-0.00776872 0.350827 0.226521)
(0.00567679 0.172704 0.0604838)
(0.00783703 0.132456 0.0160094)
(0.0824259 0.0868874 0.205591)
(0.0994866 0.0810541 0.100978)
(0.107148 0.06887 0.031557)
(-0.0112566 0.367681 0.22507)
(0.0237066 0.201192 0.0623095)
(0.0288231 0.162198 0.0173006)
(0.0998023 0.107345 0.187835)
(0.141898 0.113556 0.093058)
(0.159974 0.113678 0.0240969)
(-0.0381734 0.3871 0.21437)
(0.0415706 0.247967 0.0577971)
(0.0581729 0.217065 0.0131113)
(0.035392 0.810965 0.224761)
(0.0574524 0.732531 0.123174)
(0.0517568 0.677558 0.0326009)
(0.176909 0.516377 0.187081)
(0.189904 0.483154 0.100732)
(0.176236 0.461443 0.0281511)
(0.138444 0.372328 0.181266)
(0.162468 0.355781 0.091415)
(0.15728 0.346887 0.0261746)
(0.147078 0.32462 0.176687)
(0.184873 0.305422 0.0840531)
(0.19132 0.297011 0.0196526)
(-0.0220014 0.445313 0.203565)
(0.0604923 0.323767 0.0511636)
(0.0578608 0.289472 0.00876553)
(-0.161047 0.601505 0.24909)
(-0.07893 0.538046 0.131293)
(-0.0452857 0.496047 0.0407941)
(0.0544994 0.455325 0.213001)
(0.102832 0.413523 0.116248)
(0.118355 0.389274 0.0383166)
(0.0642958 0.39828 0.190636)
(0.11669 0.356997 0.100295)
(0.129954 0.328081 0.0329753)
(0.0386701 0.378631 0.181416)
(0.102729 0.336173 0.0750107)
(0.116173 0.313497 0.0204563)
(-0.0718883 0.574416 0.212362)
(0.0409873 0.403131 0.0531485)
(0.048796 0.366986 0.0169878)
(-0.00299432 0.206323 0.0691792)
(0.000285591 0.123785 0.0264904)
(0.0014711 0.0889728 0.0128711)
(0.00304273 0.0799637 0.000874913)
(0.00428313 0.230981 0.0280713)
(0.00413028 0.133323 0.0113355)
(0.00483928 0.0925049 0.00595366)
(0.00480019 0.082053 0.00128889)
(-0.0081255 0.200333 0.071489)
(0.000307365 0.121927 0.0283733)
(0.00399907 0.0887196 0.0152818)
(0.00807285 0.0808997 0.00326505)
(0.00980177 0.229352 0.0340039)
(0.00947649 0.133691 0.015213)
(0.0104873 0.0935195 0.00986545)
(0.0108607 0.0827607 0.00460259)
(-0.0163278 0.189642 0.0819399)
(-0.00201757 0.119312 0.033892)
(0.0041944 0.089662 0.0199242)
(0.0124257 0.0799456 0.00643724)
(0.00174182 0.22303 0.0585136)
(0.00785538 0.134935 0.0299608)
(0.0091115 0.0961599 0.0168911)
(0.0122259 0.0816858 0.00776468)
(0.00191396 0.23388 0.0432872)
(0.00512892 0.140388 0.0267599)
(0.00356037 0.096702 0.0126101)
(0.00396566 0.086096 0.00402004)
(-0.00638142 0.240425 0.0450828)
(-0.00041699 0.146232 0.0303864)
(0.00183829 0.100511 0.0173755)
(0.00433616 0.0892182 0.00951031)
(-0.041642 0.20181 0.0684418)
(-0.0124981 0.126374 0.032442)
(-0.0050145 0.0930609 0.0169024)
(0.00684153 0.0811498 0.0020027)
(-0.0622946 0.163812 0.0650742)
(-0.0198379 0.111269 0.0299008)
(-0.0124586 0.0869713 0.0177554)
(0.00954566 0.0762506 -0.00103557)
(-0.0347968 0.1752 0.0860017)
(-0.00940999 0.114519 0.0361829)
(-0.00197449 0.0888624 0.0215857)
(0.0119184 0.0747464 0.00510223)
(-0.0506922 0.147183 0.077034)
(-0.0158368 0.10341 0.0319247)
(-0.0107691 0.0832616 0.0200374)
(0.0096825 0.0726081 -0.00193775)
(-0.0384924 0.217621 0.0520255)
(-0.0120554 0.135083 0.0282757)
(-0.00479566 0.0964151 0.0145943)
(0.00574545 0.0850536 0.00205246)
(-0.0687406 0.174192 0.0506759)
(-0.0220043 0.117465 0.0263474)
(-0.0132647 0.0897365 0.0160979)
(0.0118841 0.0785797 0.00273692)
(-0.0409519 0.226691 0.0387723)
(-0.0141292 0.141333 0.0245451)
(-0.00465438 0.0995972 0.0152418)
(0.00780769 0.0869917 0.0087015)
(-0.0721701 0.180186 0.035415)
(-0.0233018 0.1221 0.0219695)
(-0.013935 0.0923188 0.0149413)
(0.013051 0.0795918 0.00841766)
(-0.00296388 0.156589 0.0883757)
(-0.000169716 0.107754 0.0322988)
(0.000532713 0.0834921 0.0159151)
(0.0027039 0.0755357 -0.00226861)
(-0.00255503 0.104146 0.0921361)
(-7.04681e-05 0.0887105 0.0314455)
(-2.55479e-05 0.0763597 0.0178479)
(0.00284594 0.0696401 -0.00853365)
(-0.00809363 0.151807 0.0880847)
(-0.000680645 0.106108 0.0327579)
(0.00153372 0.0833973 0.0172528)
(0.00719508 0.0755335 -0.00108796)
(-0.00437284 0.103428 0.0884506)
(0.00073269 0.0884704 0.0303571)
(0.00051748 0.076277 0.0177981)
(0.00777522 0.0699993 -0.00792194)
(-0.0283724 0.144457 0.0886523)
(-0.00724393 0.103623 0.0336721)
(-0.00169759 0.08354 0.0199509)
(0.0109583 0.0751248 0.00086867)
(-0.0219699 0.10616 0.0792722)
(-0.00456536 0.089684 0.0274914)
(-0.00170388 0.0764922 0.0176589)
(0.0124059 0.0712767 -0.00557113)
(-0.0139598 0.136666 0.0824296)
(-0.00130298 0.0997563 0.0324688)
(0.00180656 0.0819753 0.0218774)
(0.01236 0.0747821 0.00596534)
(-0.00937887 0.107058 0.0874419)
(-0.000242574 0.0899572 0.0311378)
(-0.000138145 0.0778361 0.0226684)
(0.0121321 0.071438 -0.00525403)
(-0.0428512 0.125461 0.0640947)
(-0.0122506 0.0956895 0.0252207)
(-0.00796814 0.0786508 0.0172547)
(0.0137041 0.0699082 0.00209717)
(0.00141447 0.046976 0.0760154)
(0.00120315 0.0707236 0.0230759)
(0.000833096 0.0611805 0.0133726)
(0.00228954 0.0191177 -0.00812716)
(0.00510029 -0.0196899 0.0298439)
(0.00227255 0.0608186 0.00819769)
(0.0013362 0.0537037 0.00409327)
(0.00142061 0.0182788 -0.00186374)
(0.000882464 0.0536057 0.0751053)
(0.00233302 0.0732174 0.023436)
(0.00151409 0.0622772 0.0137584)
(0.00600027 0.0201795 -0.00723265)
(0.0124391 -0.0096609 0.0304393)
(0.00587466 0.0637319 0.0086466)
(0.00330193 0.0545916 0.00452415)
(0.00374799 0.0185969 -0.0013543)
(-0.00349369 0.0642712 0.0706363)
(0.00169291 0.076973 0.0228815)
(0.00150341 0.0632899 0.0143077)
(0.00938355 0.0200769 -0.00555808)
(0.0167508 0.00587016 0.0293739)
(0.00844354 0.068415 0.00875552)
(0.0049439 0.0556573 0.00504641)
(0.00573578 0.0186883 -0.000624084)
(-0.00461987 0.079132 0.0595641)
(0.00220234 0.0816431 0.0196454)
(0.00189839 0.0648729 0.013748)
(0.0124247 0.0213713 -0.00368618)
(0.0172633 0.0238816 0.0259153)
(0.00991145 0.0741764 0.00776785)
(0.00559206 0.0574471 0.00540828)
(0.00675574 0.0193717 0.000317699)
(-0.0132935 0.0999634 0.052287)
(0.000401084 0.0879319 0.018378)
(-0.00110707 0.0677195 0.0133219)
(0.0119691 0.0238921 -0.00115408)
(0.00926423 0.0419762 0.0234065)
(0.00885377 0.0796402 0.00788595)
(0.00420849 0.0592065 0.00604119)
(0.00620795 0.0199313 0.0016411)
(-0.0438524 0.114097 0.0409971)
(-0.00540529 0.0953733 0.0177377)
(-0.00555107 0.0695087 0.0107507)
(0.011119 0.0223827 0.00081389)
(-0.013053 0.0385075 0.0215323)
(0.00284791 0.0858323 0.0109156)
(0.00107476 0.062942 0.006704)
(0.00441297 0.0207537 0.00349548)
(-0.0287339 0.112076 0.0436771)
(-0.00158063 0.0920799 0.0161583)
(-0.0037501 0.0679714 0.0110714)
(0.0113545 0.0224822 -0.000168918)
(-0.00439262 0.0409347 0.0213362)
(0.00592685 0.0834653 0.00880849)
(0.00253691 0.0609198 0.00622149)
(0.00535422 0.0202216 0.00268677)
(-0.0567332 0.113307 0.0364268)
(-0.010672 0.0978087 0.0189647)
(-0.00794622 0.070944 0.0114067)
(0.011951 0.0210905 0.00280273)
(-0.0188653 0.0341106 0.0217954)
(-0.000414027 0.0880057 0.012862)
(-0.00040799 0.0644925 0.00771341)
(0.00390667 0.0207885 0.00471743)
(-0.0658805 0.112744 0.0284362)
(-0.0163301 0.100926 0.0182464)
(-0.0106982 0.0737251 0.0121026)
(0.0117714 0.0217282 0.00714244)
(-0.024329 0.0402305 0.0201861)
(-0.00448513 0.0911881 0.013823)
(-0.00226196 0.0666614 0.00913664)
(0.00326072 0.0213542 0.00669031)
(0.00120909 0.0738833 0.000642319)
(0.000572297 0.0557687 0.000438895)
(0.000298724 0.0384075 0.000273902)
(0.000173382 0.0223641 0.000173057)
(0.000123607 0.00733172 0.000127579)
(0.00166418 0.0741101 0.000354164)
(0.000868931 0.0558437 0.00022545)
(0.000474837 0.0384563 0.000139055)
(0.000282177 0.0223905 8.82884e-05)
(0.000202856 0.00733989 6.56146e-05)
(0.00258192 0.0752057 0.0014123)
(0.00121674 0.056232 0.000899983)
(0.000632446 0.0386187 0.000541666)
(0.000368158 0.0224592 0.000337603)
(0.000264629 0.00735902 0.000247338)
(0.00438329 0.075234 0.00144084)
(0.00236508 0.0563843 0.000876275)
(0.00131396 0.0387262 0.000513523)
(0.000790581 0.0225164 0.000316703)
(0.000572337 0.00737669 0.000231257)
(0.00368243 0.075997 0.00324269)
(0.00175512 0.0567308 0.00203732)
(0.000927804 0.0388536 0.00121035)
(0.000546991 0.0225652 0.000753651)
(0.000396003 0.00738945 0.000552934)
(0.00630637 0.075586 0.00631963)
(0.00336517 0.0571451 0.00375297)
(0.00188684 0.0391337 0.00220149)
(0.00114535 0.0227119 0.00136238)
(0.000833162 0.00743475 0.000996125)
(0.00213022 0.0781885 0.00647076)
(0.0011042 0.0581892 0.00394828)
(0.000620809 0.0397133 0.00234792)
(0.000378808 0.023002 0.00146257)
(0.000276168 0.00752264 0.00107372)
(0.00119303 0.0795902 0.00698293)
(0.000598518 0.0591684 0.00414488)
(0.000329072 0.0402952 0.00243974)
(0.000199503 0.0232987 0.00151458)
(0.000144881 0.007613 0.00111204)
(0.00326163 0.0780807 0.00425657)
(0.00146288 0.0577727 0.00271532)
(0.000777468 0.03939 0.00163487)
(0.000462974 0.0228245 0.00102291)
(0.000334209 0.00746711 0.000748718)
(0.000743616 0.0801197 0.00334766)
(0.000217457 0.058072 0.00213492)
(9.15648e-05 0.0394432 0.00128829)
(4.84224e-05 0.0228355 0.00080914)
(3.33233e-05 0.0074689 0.000593437)
(0.00483084 0.0766555 0.00443295)
(0.0024138 0.0572712 0.00271803)
(0.00133008 0.0391018 0.00160797)
(0.00080345 0.022678 0.00100323)
(0.000583903 0.00742208 0.000735519)
(0.00133794 0.0795344 0.00341351)
(0.000538389 0.0577582 0.00192225)
(0.00027433 0.0392675 0.00111927)
(0.000159923 0.0227466 0.000697029)
(0.000113871 0.00744151 0.000509103)
(0.00113559 0.0791272 0.00473771)
(0.000313095 0.0583603 0.00316852)
(0.000123168 0.0397388 0.00193086)
(6.34704e-05 0.0230036 0.00121334)
(4.34935e-05 0.00752204 0.000892109)
(0.000770424 0.0810643 0.00456549)
(0.000243278 0.0586472 0.00292771)
(0.000109609 0.0397812 0.00176703)
(6.12602e-05 0.0230088 0.00110854)
(4.33722e-05 0.00752215 0.000814368)
(0.00107614 0.0800823 0.00622676)
(0.000283692 0.0593841 0.00378491)
(0.000107055 0.0403692 0.00223883)
(5.44499e-05 0.0233273 0.00139188)
(3.61829e-05 0.007621 0.00102172)
(0.000545464 0.0821769 0.00597387)
(8.3355e-05 0.0596393 0.00364859)
(1.33112e-05 0.0403941 0.00216204)
(1.31447e-06 0.0233252 0.00134475)
(-1.25878e-06 0.00761934 0.000985867)
(0.000980829 0.0736771 0.000331748)
(0.00043162 0.0557082 0.00035104)
(0.000215579 0.0383571 0.000227905)
(0.000121482 0.0223357 0.000145068)
(8.54202e-05 0.00732282 0.000107259)
(0.000920534 0.0746752 3.54898e-05)
(0.000407564 0.055733 0.000131885)
(0.000204148 0.0383306 8.96456e-05)
(0.000115044 0.0223188 5.81775e-05)
(8.08762e-05 0.00731748 4.37319e-05)
(0.00225817 0.0745533 0.000786556)
(0.000979274 0.0560808 0.000603373)
(0.000490295 0.0385186 0.000374185)
(0.000277602 0.0224056 0.000235723)
(0.000196533 0.00734244 0.000174247)
(0.00213975 0.0754814 0.000130651)
(0.000925553 0.056069 0.000189432)
(0.000465138 0.0384731 0.000123511)
(0.000263268 0.0223798 7.91775e-05)
(0.000185486 0.00733457 5.96026e-05)
(0.00294139 0.0758747 0.00124335)
(0.00119774 0.0565801 0.000920387)
(0.000594609 0.0387287 0.000562841)
(0.000335707 0.0224968 0.00035509)
(0.000237894 0.00736806 0.000263781)
(0.00258442 0.0771449 0.000705613)
(0.001138 0.0565514 0.000480504)
(0.000584706 0.0386688 0.000281463)
(0.000334193 0.0224639 0.000173002)
(0.000238116 0.0073581 0.000128321)
(0.00349132 0.0778323 0.00372001)
(0.00170873 0.0571322 0.00225009)
(0.000932455 0.0389622 0.0013154)
(0.000558303 0.0226008 0.000821707)
(0.000405673 0.00739761 0.000606441)
(0.00173019 0.0788506 0.00185867)
(0.000833102 0.057012 0.00111896)
(0.000444535 0.0388784 0.000646692)
(0.000258922 0.0225584 0.000401901)
(0.000187403 0.00738456 0.000297268)
(0.00201669 0.0790209 0.00468393)
(0.0010308 0.0574859 0.00247262)
(0.000574091 0.039128 0.00140173)
(0.000348836 0.0226782 0.000863464)
(0.000254093 0.00742041 0.000630751)
(-0.0203753 0.347762 0.0999017)
(-0.0246623 0.538436 0.173391)
(-0.056151 0.366284 0.0942298)
(-0.0700907 0.553049 0.168252)
(-0.0859285 0.397043 0.0877988)
(-0.112164 0.57691 0.156575)
(-0.104304 0.433785 0.0856279)
(-0.148489 0.619198 0.150563)
(-0.103731 0.474137 0.0934263)
(-0.147557 0.691949 0.171873)
(-0.0937271 0.436192 0.0548323)
(-0.12436 0.538193 0.0799431)
(-0.0867588 0.448627 0.0760404)
(-0.104915 0.577817 0.119912)
(-0.106928 0.433538 0.036331)
(-0.145136 0.531097 0.0479207)
(-0.11106 0.428259 0.0142427)
(-0.151657 0.529345 0.0192301)
(-0.0202183 0.279284 0.295411)
(-0.00443033 0.0500216 0.0711528)
(-0.000964521 0.0110087 0.0163218)
(-0.000204691 0.0024752 0.00361653)
(-4.97083e-05 0.000436424 0.000906)
(-0.00856126 0.332388 0.0787344)
(-0.00309397 0.0918306 0.0208796)
(-0.000339307 0.022369 0.00559173)
(-9.65249e-05 0.00507573 0.00125271)
(-3.87562e-05 0.000887152 0.00027935)
(-0.0652964 0.285703 0.293079)
(-0.0144124 0.04936 0.0696082)
(-0.00315605 0.0106628 0.0158496)
(-0.000674961 0.00237553 0.00348621)
(-0.000165113 0.000416475 0.000869319)
(-0.0221922 0.339076 0.0813591)
(-0.0047236 0.0923185 0.0236825)
(-0.000957007 0.0221987 0.00582219)
(-0.000186444 0.00497187 0.00135)
(-3.98263e-05 0.000865963 0.000338183)
(-0.114967 0.297383 0.28262)
(-0.0255232 0.0494679 0.0659696)
(-0.00562192 0.0104199 0.0148578)
(-0.00121328 0.00229083 0.00324273)
(-0.000299426 0.000398933 0.000804031)
(-0.0388529 0.352035 0.0789871)
(-0.00922207 0.0937735 0.0229095)
(-0.00203533 0.0221411 0.00558842)
(-0.000443383 0.00490036 0.00128252)
(-0.000107086 0.000847434 0.000318222)
(-0.164757 0.311423 0.264948)
(-0.0367826 0.0493659 0.0606224)
(-0.00818175 0.0101374 0.0135275)
(-0.00178613 0.00220699 0.00294093)
(-0.00044632 0.000383195 0.000728567)
(-0.0545248 0.368711 0.0759825)
(-0.0141374 0.095599 0.0215374)
(-0.00333952 0.0222235 0.00514812)
(-0.000765715 0.00488269 0.00116243)
(-0.000194151 0.000841871 0.000284361)
(-0.229454 0.322916 0.232131)
(-0.0526967 0.049181 0.0522958)
(-0.0119734 0.0100332 0.0116558)
(-0.00266208 0.00219535 0.00254343)
(-0.00067683 0.000383544 0.000634259)
(-0.072634 0.38383 0.0707088)
(-0.0213268 0.0971106 0.0191283)
(-0.00534461 0.0225411 0.00446852)
(-0.00126608 0.00497876 0.000996315)
(-0.000329727 0.000863294 0.000241487)
(-0.30854 0.313031 0.130158)
(-0.077364 0.0566588 0.0313004)
(-0.0185604 0.0128257 0.00722317)
(-0.0042961 0.00298177 0.00161255)
(-0.00112656 0.000539507 0.000409086)
(-0.0843416 0.35241 0.0360636)
(-0.0262568 0.100556 0.00916822)
(-0.00679659 0.0252091 0.00199528)
(-0.00163946 0.00588814 0.000412301)
(-0.000434174 0.00105986 9.41652e-05)
(-0.281447 0.318779 0.181781)
(-0.0683866 0.0537618 0.0424927)
(-0.0160096 0.0115965 0.00963166)
(-0.00363333 0.00261394 0.00212381)
(-0.000937928 0.000464255 0.000534443)
(-0.0815965 0.365831 0.050244)
(-0.0256668 0.099487 0.013139)
(-0.00663549 0.0239931 0.00300556)
(-0.00159702 0.00543703 0.000661886)
(-0.000419342 0.000958962 0.000159579)
(-0.321324 0.309949 0.0815699)
(-0.0816581 0.0585655 0.0201185)
(-0.019836 0.0136393 0.00471016)
(-0.00464254 0.00323577 0.00106184)
(-0.00122819 0.000593215 0.000270915)
(-0.0862461 0.348126 0.0230966)
(-0.0260784 0.101234 0.00600866)
(-0.0066443 0.0259217 0.00128718)
(-0.00158444 0.00617275 0.000253562)
(-0.00041833 0.0011273 5.52938e-05)
(-0.330876 0.307831 0.0299957)
(-0.0838381 0.0577026 0.00748672)
(-0.0204552 0.0134966 0.00176695)
(-0.0048143 0.00322815 0.00040117)
(-0.00128028 0.000595752 0.000102929)
(-0.0862973 0.345711 0.0112356)
(-0.0261569 0.100389 0.00266544)
(-0.00665778 0.0258828 0.000539008)
(-0.0014739 0.00621192 0.000145425)
(-0.00041248 0.00114074 2.12671e-05)
(-0.00995826 1.42769 -0.0508585)
(-0.262802 1.98746 0.0247746)
(-0.25821 1.77913 0.168102)
(-0.145746 1.34266 -0.143741)
(0.148624 0.751009 0.0391906)
(0.204383 0.788362 0.0418023)
(0.411784 1.19649 0.104817)
(0.541362 1.19977 0.127868)
(0.234068 0.807237 0.0867087)
(0.472298 0.861865 0.1399)
(0.0905987 1.28633 0.115582)
(0.28502 1.71299 0.174609)
(0.230891 1.90102 0.110327)
(0.383428 2.57999 0.144111)
(0.421169 0.969367 0.0527548)
(0.580886 1.06442 0.0768933)
(0.50747 0.783685 0.0574339)
(0.577362 0.763994 0.0668865)
(0.289807 0.543475 0.0401049)
(0.327912 0.558592 0.0415554)
(-0.757106 0.165622 0.115271)
(-0.565514 0.117482 0.0906414)
(-0.175623 0.0314383 -0.0133634)
(-0.136447 0.0246649 -0.0355521)