/*--------------------------------*- C++ -*----------------------------------*\
| =========                 |                                                 |
| \\      /  F ield         | OpenFOAM: The Open Source CFD Toolbox           |
|  \\    /   O peration     | Version:  2412                                  |
|   \\  /    A nd           | Website:  www.openfoam.com                      |
|    \\/     M anipulation  |                                                 |
\*---------------------------------------------------------------------------*/
FoamFile
{
    version     2.0;
    format      ascii;
    arch        "LSB;label=32;scalar=64";
    class       volScalarField;
    location    "2.1";
    object      gradTz;
}
// * * * * * * * * * * * * * * * * * * * * * * * * * * * * * * * * * * * * * //

dimensions      [0 -1 0 1 0 0 0];

internalField   nonuniform List<scalar> 
5712
(
7328.55
22264.5
5559.45
24356
3047.03
25797.6
5195.63
40859.7
8488.73
51308.9
8700.81
36403.2
9286.78
32354.2
9153
27796
4302.68
2342.1
12972.1
6132.47
4013.87
1845.28
13981.5
5629.35
5607.25
4135.01
16552.6
12103.8
3759.02
2959.14
16649.2
12608
8446.31
3072.41
6406.38
2329.85
2926.07
7838.74
39966
12211.5
12003.1
5542.86
48508.6
15204.6
11193.1
5255.44
26470.5
8823.68
13495.1
6150.02
21554.9
6852.5
5040.83
2732.15
8829.92
3574.2
4491
2834.16
9268.93
3500.89
6009.2
3816.78
5824.71
2448.12
10339.7
3736.82
4069.21
1504.33
12663.8
9553.75
7669.89
6892.06
14107
12370.6
7648.76
8161.85
7128.5
6138.3
9329.22
8004.75
5701.74
4913.64
3304.09
2843.82
5666.74
5654.15
3233.39
3239.01
5471.04
4305.83
3190.13
2259.01
6130.67
3453.21
6170.49
6793.08
8176.41
6222.2
8849.62
11637.3
4467.4
1914.84
3957.6
4076.71
2525.18
884.443
1814.34
1565.53
5799.74
11704.7
4222.89
13239.4
6272.48
11849.8
5032.35
14085.3
8250.07
11752.4
6970.53
14322.1
9079.97
10837.5
7061.66
7104.12
8645.39
7149.28
7936.32
10974.6
12836.6
18792.4
9673.48
7871.15
7544.71
9563.09
15177.7
14605.4
14161.1
17073.7
17227.1
14246.1
14284.9
17117.1
17068.1
13121.6
13640
16399.9
16596.2
9001.29
9565.29
8858.91
9373.25
10777.6
10831.6
12638.6
12344.8
15987.1
16215.1
8208.44
9031.29
9321.36
10004
10443
11340.2
12064.5
13301.6
15897.1
17350
9609.99
6560.59
7775.47
7827.91
10733.5
12192.3
8727.08
11521.4
7157.62
7266.28
9110.11
6544.82
3294.4
5649.92
1346.65
2104.26
5404.67
8537.6
2115.5
3195.54
2778.34
4969.84
1039.53
1812.85
6825.34
5824.91
6986.54
4383.23
9615.77
6870.76
10953.5
7335.58
3199.3
3713.34
3979.17
2270.02
2457.2
2673.23
2735.24
2076.26
12318.9
8116.85
2658.49
13342.9
8403.29
2906.54
12123.8
7934.52
2702.65
13315.6
8376.71
2840.91
11569.8
7458.34
2501.23
13074.4
8242.84
2835.81
6862.55
3930.44
1032.11
8188.57
5593.67
1820.03
9439.1
6646.65
2243.48
10465.1
6824.03
2239.28
12645
7965.35
2817.16
7552.91
4154.08
1364.84
7385.59
4789.23
1667.5
8335.65
5503.62
1887.47
9906.16
6367.59
2178.73
12000.1
7015.56
2432.48
-496.628
991.539
447.997
2647.29
1793.91
1809.64
4622.58
4044.07
603.824
972.382
639.826
1020.05
341.165
942.845
628.234
1381.92
1893.36
1136.19
3821.62
2707.69
1746.78
2873.43
2935.77
818.461
5915.97
1868.47
-4172.48
-629.26
655.054
685.657
6.86769
159.447
10301
4495.45
2732.06
1612.35
10146.8
4558.59
2980.67
1907.26
9805.67
4987.39
4010.57
2833.09
3083.3
2005.93
1718.49
1550.33
13138.6
11481.1
5753.41
7353.94
14774.8
13795.1
7191.9
8622.75
5217.64
6294.67
11124.6
9167.43
3657.28
4794.81
2100.66
2783.84
4804.64
5615.2
2767.13
3210.75
2960.85
4149.63
1655.38
2521.75
4642.55
3288.72
5262.54
3527.66
7988.69
4741.6
7078.51
4631.76
2756.61
2249.47
3651.63
2422.83
1542.66
1416.52
2311.03
1498.97
11996
7953.98
5850.52
6062.75
11889.2
7925.04
5781.44
5943.36
12011.1
7607.77
5883.27
5522.66
13243
12839.5
12317
9444.68
5418.1
7815.54
9374.64
9864.01
9221.28
6425.15
11111.8
9917
8190.39
6598.21
4284.66
6768.44
6684.07
6772.17
8176.48
6738.63
6472.06
6617.13
8000.67
6427.25
6119.37
6289.04
7657.34
8777.74
8300.85
8129.09
6986.4
6044.59
6046.76
5804.97
6042.44
5492.91
7220.58
6446.98
7305.68
5360.22
6093.08
4739.34
5415.13
4617.83
5536.46
4167.47
6627.68
4741.57
3801.66
3247.34
1741.76
7315.06
5558.21
5910.97
3741.57
2456.37
1408.89
3636.06
3276.73
4223.89
1839.88
1965.99
1083.27
5516.89
3160.47
2265.8
1561.86
3414.16
1454.61
1739.17
871.771
2056.08
2452.92
2537.01
4284.24
3104.56
3783.17
3051.34
5560.08
2486.72
1800.49
1867.66
3076.16
1120.29
442.161
398.808
769.592
5273.62
2420.37
697.56
5663.02
1512.1
400.234
5139.77
2524.44
788.924
5626.75
1557.74
432.516
4695.87
2326.45
602.422
5359.25
1444.93
327.784
5619.03
3079.34
815.022
4677.03
2518.29
703.779
4531.65
2285.37
654.365
4417.18
2101.33
491.315
5089.13
1279.09
219.138
6227.26
3282.34
1019.85
5325.04
2906.2
957.914
4765.9
2507.38
824.383
4535.41
1875.27
511.408
5309.06
1328.71
424.694
1729.48
662.26
321.778
21.8728
701.783
283.389
148.841
32.2223
1787.22
709.332
382.046
81.6263
850.096
380.326
246.636
115.065
2048.5
847.299
498.104
160.931
1462.84
749.02
422.278
194.117
1082.18
668.997
315.253
100.501
1127.07
759.66
434.388
237.758
1711.04
811.049
422.559
50.0674
1626.86
747.521
443.884
-25.8892
2150.04
904.572
539.644
127.556
1925.85
798.116
500.936
-48.4439
1300.64
706.893
364.857
51.3115
1266.9
658.684
402.449
68.423
969.307
613.629
381.045
217.538
885.374
549.237
373.533
210.442
2209.39
807.47
397.878
-56.7153
2303.4
786.137
446.197
-213.341
2202.12
818.947
431.319
-27.1989
2211.27
758.927
444.953
-198.048
2216.31
841.803
498.772
21.7167
1981.81
687.285
441.473
-139.278
2060.74
811.721
546.935
149.133
2186.05
778.446
566.71
-131.351
1602.37
630.517
431.367
52.4294
1900.38
576.898
334.315
-203.179
746.097
204.942
102.332
-46.5936
1877.63
585.901
343.961
-180.816
760.983
216.165
113.104
-33.8575
1765.91
572.036
357.693
-138.952
734.347
218.888
126.16
-15.6021
1489.1
491.135
343.701
-92.1545
647.883
194.196
135.207
7.94247
1307.17
459.451
333.047
-28.852
585.163
197.149
151.03
41.0276
1024.93
443.443
268.767
20.3472
538.307
272.891
167.6
87.3871
1091.93
403.958
276.785
-4.22294
533.405
220.212
155.537
67.1694
910.671
474.116
285.168
70.0682
544.884
321.55
192.835
117.936
710.906
456.159
302.564
178.561
504.652
345.574
228.416
167.258
16.058
10.9724
6.84755
4.32641
3.18946
8.85411
5.63624
3.47639
2.20721
1.64037
35.3076
22.4996
13.5416
8.44008
6.18345
36.0211
21.9069
12.8381
7.91758
5.78143
81.0673
50.933
30.2589
18.8413
13.8233
157.991
93.8242
55.0374
34.0594
24.9031
161.769
98.7071
58.6981
36.5641
26.8429
174.573
103.622
60.9935
37.8645
27.801
106.414
67.883
40.8719
25.5727
18.7179
83.6916
53.3731
32.2073
20.2285
14.8359
110.824
67.9508
40.1994
25.0808
18.388
85.3377
48.0562
27.9817
17.4257
12.7276
118.443
79.213
48.2715
30.3335
22.3027
114.137
73.1927
44.1757
27.7134
20.3592
155.669
94.6228
55.9707
34.7969
25.543
149.347
91.2148
54.051
33.6187
24.6467
8.2937
8.77599
5.69763
3.6267
2.68149
0.887245
3.29713
2.24114
1.45444
1.0933
19.6639
15.0843
9.35461
5.89308
4.35618
3.26628
4.7358
3.08778
1.97944
1.49006
31.0838
23.0097
14.071
8.87725
6.59451
17.6403
12.0126
7.03657
4.32505
3.20801
93.0002
56.2522
32.8851
20.5427
15.161
46.4667
27.974
16.1673
10.0475
7.4317
117.098
61.8155
35.0433
21.5866
15.7688
2497.54
4334.78
2355.74
4206.3
2194.97
3914.37
2140.7
3764.07
2335.66
4296.83
1370.81
1998.58
1901.01
2997.81
908.275
1198.02
356.067
480.752
7385.27
1778.82
408.046
90.4132
22.65
1968.36
521.991
139.793
31.3179
6.98374
7326.97
1740.21
396.241
87.1552
21.733
2033.98
592.062
145.555
33.75
8.45459
7065.51
1649.24
371.445
81.0683
20.1008
1974.68
572.738
139.711
32.063
7.95554
6623.7
1515.56
338.187
73.5232
18.2142
1899.56
538.435
128.703
29.0607
7.10902
5803.29
1307.4
291.395
63.5857
15.8565
1767.72
478.208
111.713
24.9079
6.03718
3253.96
782.51
180.579
40.3137
10.2271
901.59
229.206
49.8819
10.3075
2.35413
4544.52
1062.32
240.792
53.0952
13.3611
1256.1
328.476
75.1389
16.5471
3.98947
2039.25
502.963
117.754
26.5461
6.77288
577.415
150.216
32.1795
6.33905
1.38234
749.892
187.168
44.1736
10.0293
2.57323
280.89
66.6361
13.4752
3.63562
0.531677
-1271.46
619.365
4202.56
-3593.52
979.765
1045.06
2620.44
3196.71
2167.72
3497.5
2889.56
4365.21
2758.16
3602.76
1318.87
1922.33
1435.85
1672.16
1002.62
1038.89
2881.78
2266.03
-334.085
-888.803
-967.62
-1296.19
-671.137
12022.3
3190.43
4110.33
3350.14
376.304
-11.3901
3325.4
-968.156
-413.146
-800.872
-272.444
5934.35
3069.23
1399.97
780.965
3304.15
1535.98
236.699
412.639
-1093.76
-1076.15
875.422
751.442
9330.35
4595.34
4520.8
2608.31
3438.83
3209.82
8.91624
-1052.19
324.055
2023.33
1789.13
1574.88
1472.88
1126.27
1818.92
1477.83
1204.36
893.095
355.797
-300.669
-250.906
-184.455
-110.363
-36.3956
-793.679
-663.297
-497.316
-307.564
-104.012
-864.274
-722.103
-540.551
-333.508
-112.649
-1158.78
-969.514
-727.205
-449.61
-152.046
-593.6
-489.365
-360.168
-218.593
-73.1717
8955.5
8248.83
7086.23
6673.24
6260.56
2967.81
2437.07
2223.98
1880.44
859.977
3365.71
2700.93
2278.66
1816.3
847.168
2603.87
2051.88
1702.53
1284.01
489.979
318.891
226.557
235.424
191.483
100.759
57.0272
110.266
131.831
110.3
43.1844
2767.78
2221.65
1735.01
1207.83
460.833
-611.962
-325.794
-164.817
-74.5682
-24.157
-330.329
-234.898
-141.01
-66.2076
-17.4528
-581.097
-376.309
-221.186
-112.544
-34.8178
-254.868
-217.318
-159.01
-92.8664
-29.535
4111.37
4055.22
3550.78
3524.29
3558.63
2542.51
2010.97
1685.32
1296.34
514.737
1282
1120.96
918.004
635.551
232.646
688.762
582.512
467.573
320.381
116.42
2770.54
2215.18
1693.92
1130.38
411.904
1377.1
1159.45
906.608
591.287
195.859
204.212
171.542
141.605
100.705
36.5506
373.687
323.053
260.09
174.784
61.4772
-949.454
-767.538
-556.326
-334.569
-111.437
-948.467
-778.765
-570.943
-345.296
-115.234
775.75
654.633
512.525
338.483
120.428
664.984
560.277
438.627
289.467
102.487
6190.08
5018.49
4462.57
4337.21
3630.78
3604.52
2865.25
2308.61
1716.59
716.335
3601.44
3058.61
2589.54
2140.2
914.225
2087.1
1727.16
1393.24
1016.69
456.725
2952.88
2410.11
1849.55
1215.17
428.838
2689.9
1945.04
1599.02
1184.96
226.118
11.5024
19.1849
32.5524
34.671
13.9907
-934.585
-774.053
-571.973
-347.919
-116.489
301.608
269.42
231.141
165.177
57.9047
-28914.9
-45254.7
-21877.5
-38467.9
-23273.7
-54062.8
-30621.7
-65730.7
-16352.9
-10958.5
-18172.6
-9767.09
-15260.8
-10017.8
-18318.9
-8695.38
-23789.5
-16723
-32972.3
-23774
-18726.1
-13708.8
-28393.8
-21267
-14376.1
-14597.5
-10056.2
-9691.61
-12211.1
-12924.4
-43280.5
-13303.5
-13820.4
-6576.82
-50922.7
-16168.4
-12545.2
-6039.32
-30267.5
-9975.73
-15361.1
-7168.99
-25416.6
-7755.56
-11411.3
-4853.24
-15643.2
-5882.16
-9930.7
-4438.51
-14472
-5163.27
-10342.9
-4996.63
-8845.01
-3379.64
-12520.8
-4450.13
-4906.23
-1817.19
-10276.3
-7403.36
-8389.11
-6249.91
-8913.05
-7601.1
-7455.74
-6527.2
-8384.38
-6129.35
-9688.47
-7612.27
-6298.1
-4620.06
-3736.98
-2648.3
-5698.06
-4785.89
-3266.32
-2613.43
-6352.83
-4363.7
-3804.48
-2321.45
-7485.07
-3964.34
-6393.14
-6880.71
-9721.37
-6825.72
-9073.06
-11696.3
-5333.99
-2241.63
-4129.73
-4150.2
-3106.04
-1110.62
-1953.85
-1626.13
-10016
-12767
-5731.29
-14406.9
-9928.15
-12456
-6262.42
-14903.5
-10992.5
-12034.8
-7788.49
-14603
-6136.15
-3784.38
-7871.62
-9142.32
-9387.95
-5622.68
-7804.79
-11699.4
-13392
-18967.8
-5057.15
-5775.58
-7039.95
-9581.86
-15169
-13498
-11116.3
-16750.5
-13894.8
-13107.3
-11410.2
-16767.4
-14006.3
-11985.6
-10616.4
-15851.4
-13915.9
-8256.14
-7739.52
-8243.07
-7447.33
-9470.13
-8425.9
-10896.3
-9645.08
-15217
-13966.5
-6814.03
-7468.35
-7596.49
-7424.1
-8710.57
-8480.65
-10579.5
-10508.7
-15165.9
-14917.1
-8051.85
-5484.37
-6749.71
-6885.35
-8423.95
-10578.4
-7097.39
-10026.8
-6619.66
-6675.79
-8218.81
-5799.01
-2589.01
-4927.82
-733.212
-1500.31
-4210.06
-7433.93
-1125.64
-2294.68
-2413.54
-4524.22
-703.853
-1430.75
-6582.77
-5492.85
-6879.46
-4212.61
-9141.03
-6349.83
-10727.1
-6939.75
-3031.65
-3470.45
-3890.22
-2147.17
-2282.06
-2446.88
-2638.05
-1950.32
-8104.73
-3131.02
-8646.65
-3009.47
-8298.94
-3110.1
-9072.04
-3342.7
-7945.63
-2929.27
-9817.41
-3879.99
-4356.17
-1031.12
-5196.28
-1863.5
-6023.51
-2348.41
-7299.88
-2767.06
-9781.76
-3793.34
-5303.09
-870.886
-4585.39
-1540.63
-5285.16
-1948.31
-6868.98
-2547.51
-8874.63
-2906.4
-6223.07
-6051.87
-4008.83
-3880.14
-9912.18
-7867.33
-7659.06
-6057.02
-5392.02
-4999.29
-2068.44
-1700.75
-5044.29
-4896.22
-1765.95
-1682.8
-2457.42
-5724.58
-3703.09
-6923.5
-4738.87
-2000.08
-3096.04
-681.367
-6613.77
-2254.2
4105.67
1291.03
-160.885
30.1001
1085.51
1276.18
-2638.14
-1431.91
-1044.66
-417.779
-2631.36
-1581.54
-1133.93
-398.111
-2883.26
-1894.8
-1226.74
-232.393
-1027.83
325.805
348.509
1021.53
-5073.83
-4997.37
-3727.46
-4254.53
-7321.43
-7067.18
-5954.95
-5964.67
-2514.58
-3219.19
-4093.69
-3919.51
-2514.76
-2860.82
-1181.17
-1237.06
-4217.88
-4108.08
-2334.26
-2078.04
-1270.37
-2013.84
-259.269
-706.366
-1607.8
-962.839
-2561.92
-1496.17
-2728.52
-2017.44
-3177.5
-2301.09
-641.773
-190.267
-1559.05
-593.939
263.031
548.773
-412.551
257.55
-2977.09
-3025.14
-2508.23
-3998.31
-3068.07
-3182.03
-2644.67
-4099.66
-3629.19
-3311.33
-3002
-4019.42
-2204.85
-2645.5
-2799.11
-2740.5
-2525.45
-4390.82
-3511.97
-3317.77
-4111.12
-4415.93
-4490.53
-3429.3
-2930.57
-2740.76
-2126.14
-4058.39
-5160.51
-6944.5
-12029.2
-3876.19
-4366.93
-6519.05
-11175.6
-3928.44
-4781.27
-5982.51
-9990.51
-7539.8
-6507.95
-6053.76
-5313.89
-4264.91
-4714.68
-4512.73
-5483.53
-5139.9
-8937.84
-5104.45
-5924.79
-3716.41
-4796.27
-3080.02
-4306.5
-3310.57
-4925.45
-3058.7
-7087.27
-2302.47
-2455.72
-1238.71
-287.636
-4703.63
-4147.83
-3921.7
-2272.24
-600.137
-75.4715
-1588.84
-2111.92
-2529.76
-620.03
-473.704
6.23364
-3931.9
-1937.41
-946.391
-498.554
-1778.93
-338.711
-211.131
161.961
-547.033
-1475.96
-1450.2
-3844.77
-1565.15
-3037.32
-2130.86
-5569.03
-1062.13
-889.184
-615.043
-2407.3
324.016
494.666
904.102
21.8267
-4337.68
-1423.64
-8825.79
-1237.66
-3738.54
-1551.26
-8329.39
-1226.25
-3350.2
-997.781
-6906.55
-625.566
-3525.49
-768.176
-3079.11
-732.687
-3489.56
-1049.08
-3308.87
-546.253
-6194.57
-533.848
-4306.96
-550.228
-3817.08
-574.045
-3831.39
-754.422
-3922.99
-400.173
-6152.79
-624.155
-658.643
-196.941
-78.66
146.998
-204.374
-51.6758
-26.984
40.4667
-633.247
-160.358
-73.5166
142.412
-82.6684
30.639
-2.22608
47.3888
-682.746
-131.477
-50.3239
212.519
188.165
260.4
295.124
384.798
686.09
505.657
511.7
499.32
995.475
706.505
566.822
405.375
-272.689
84.3464
203.606
440.259
-265.858
127.618
146.095
487.282
-784.035
-127.126
-17.2368
355.517
-614.892
-19.2251
-5.29506
489.388
197.089
297.302
334.957
459.588
97.2408
275.233
257.346
431.812
591.684
474.005
401.138
344.542
480.692
416.692
329.069
324.407
-1082.92
-331.374
-168.284
259.755
-1480.83
-406.405
-308.608
430.551
-1055.74
-301.599
-171.634
256.395
-1436.32
-384.683
-303.286
415.409
-1049.92
-265.815
-200.006
242.134
-1296.24
-333.76
-295.353
361.363
-715.772
-95.5592
-126.352
271.067
-1217.97
-255.404
-315.481
455
-527.164
-26.9288
-32.7543
419.219
-1462.44
-315.987
-249.229
374.229
-641.26
-116.393
-65.1094
102.655
-1311.11
-268.796
-230.909
359.733
-593.99
-101.86
-62.2213
98.2289
-1062.75
-184.295
-211.145
318.08
-494.281
-70.5431
-55.5856
92.7644
-827.038
-119.654
-184.706
270.901
-416.268
-52.8096
-56.1384
81.5502
-550.485
-36.4312
-104.482
261.533
-228.442
3.71634
-24.6657
85.5689
-194.411
109.221
121.326
335.477
149.725
181.155
145.677
182.504
-463.793
-17.5275
-16.911
279.174
-20.2635
87.5933
51.6962
124.776
122.576
256.681
229.332
353.08
269.534
264.411
217.432
219.35
419.6
374.622
281.244
283.134
376.592
321.502
238.856
208.269
44.7369
16.226
7.54914
4.29811
3.08029
19.3251
7.53545
3.60608
2.05547
1.4622
64.1845
27.3036
14.0479
8.33422
6.06226
48.4928
23.5622
12.9717
7.889
5.78058
119.327
55.4053
29.8993
17.976
13.1045
180.155
96.353
54.3923
33.2407
24.3853
188.336
102.895
58.21
35.5062
25.9718
185.217
105.156
60.7426
37.3823
27.3936
153.087
74.8458
40.885
24.6716
18.0819
125.398
58.9523
31.8862
19.1381
14.0007
148.828
70.6118
38.5284
23.1796
16.9291
95.4936
47.2475
26.0887
15.7136
11.5263
174.377
88.2801
48.7033
29.4423
21.5149
155.943
79.637
44.1739
26.7529
19.5912
172.993
97.0793
55.8602
34.3204
25.1368
167.469
94.0876
54.0527
33.177
24.3103
48.3002
14.5667
6.38831
3.57091
2.54294
22.5368
5.72196
2.36098
1.2772
0.88772
56.3041
20.0922
9.7051
5.62369
4.03713
24.4844
7.0379
3.15689
1.77319
1.2407
71.0794
27.2013
13.7291
8.03444
5.75382
33.1525
13.3656
7.08822
4.27825
3.07461
121.676
55.2309
29.9517
17.8782
12.9301
58.2116
26.5622
14.5813
8.74889
6.30836
105.883
56.7025
32.1367
19.551
14.3215
-2867.49
-4337.31
-2738.83
-4246.07
-2525.94
-3952.18
-2389.21
-3766.01
-2400.75
-4107.76
-1358.07
-1933.28
-1909.69
-2892.09
-862.465
-1133.64
-288.895
-409.695
-8030.96
-1908.22
-433.329
-95.2406
-23.6859
-2118.19
-559.296
-148.804
-33.0781
-7.31435
-7880.94
-1851.59
-418.205
-91.3754
-22.6445
-2197.11
-635.289
-154.843
-35.6243
-8.86069
-7448.6
-1728.73
-387.575
-84.2368
-20.7972
-2125.2
-610.907
-147.828
-33.6905
-8.30786
-6826.07
-1560.64
-347.901
-75.5188
-18.6689
-2010.1
-566.427
-134.733
-30.2816
-7.37656
-5864.96
-1325.03
-295.744
-64.5562
-16.0914
-1820.46
-493.559
-115.254
-25.6547
-6.20648
-3241.48
-781.342
-180.689
-40.4014
-10.2612
-896.507
-230.085
-50.3988
-10.4613
-2.39816
-4544.6
-1065.59
-242.071
-53.4479
-13.4591
-1266.73
-333.954
-76.6564
-16.8987
-4.07544
-2024.43
-500.478
-117.421
-26.5195
-6.77666
-562.112
-147.816
-31.9092
-6.33017
-1.39062
-734.908
-184.312
-43.6733
-9.95329
-2.56279
-259.754
-62.3824
-12.7203
-3.51961
-0.515382
708.351
-1529.56
-5454.33
1819.87
-6644.24
-2918.62
-6512.35
-2959.2
-11058.4
-6021.18
-12958.8
-7080.87
-119.635
-480.457
-745.225
-860.366
-755.789
-401.58
-190.612
-731.765
-1111.91
-1231.96
-1005.32
-371.319
-94.2766
-91.9697
-348.855
-326.976
-448.909
-432.491
-315.191
-324.683
-202.274
-240.391
-347.955
-266.504
485.229
1750.69
3409.42
2721.69
2473.14
1195.27
739.597
2212.32
3679.37
4075.64
3475.26
1600.02
-107.871
-91.1691
-69.0722
-43.0351
-14.6113
-433.83
-367.323
-278.832
-174.001
-59.1286
-672.824
-569.592
-432.321
-269.768
-91.6725
-776.423
-656.95
-498.372
-310.866
-105.617
-681.669
-576.347
-436.84
-272.265
-92.4558
-362.759
-306.888
-232.284
-144.357
-48.8996
-171.781
-145.097
-109.871
-68.4303
-23.2301
-660.422
-558.858
-424.01
-264.511
-89.8732
-1003.25
-848.743
-643.837
-401.627
-136.465
-1110.83
-939.095
-711.983
-444.006
-150.85
-905.712
-765.01
-579.585
-361.299
-122.734
-335.224
-283.576
-214.866
-133.784
-45.3908
-85.0616
-71.9528
-54.56
-34.0149
-11.5519
-83.0327
-70.288
-53.3379
-33.2734
-11.3042
-315.109
-266.919
-202.699
-126.527
-43.0001
-295.409
-250.289
-190.113
-118.691
-40.3413
-405.424
-343.363
-260.709
-162.717
-55.2955
-390.61
-330.823
-251.192
-156.781
-53.2804
-284.673
-241.107
-183.048
-114.22
-38.8052
-293.083
-248.068
-188.236
-117.425
-39.8926
-182.599
-154.487
-117.056
-72.8696
-24.7147
-216.586
-182.895
-138.439
-86.1841
-29.2446
-313.202
-263.934
-199.065
-123.408
-41.7526
-239.601
-201.728
-152.147
-94.4014
-31.969
431.435
360.85
273.15
171.568
58.7421
1551.22
1293.51
978.184
615.202
210.964
2987.33
2474
1878.19
1197.25
415.663
2371.94
1985.61
1527.58
993.723
362.821
2168.03
1817.83
1399.63
905.523
316.999
1078.99
920.945
713.714
457.231
156.226
658.912
551.34
416.283
260.26
88.7829
1965.85
1642.03
1240.16
777.074
265.689
3251.68
2707.33
2047.82
1290.74
444.033
3587.58
2985.72
2266.18
1438.81
499.97
3055.33
2543.52
1936.37
1234.92
429.307
1420.13
1193.19
914.993
585.49
203.374
273.497
632.071
891.751
998.883
884.766
541.384
403.562
939.336
1305.52
1398.34
1131.05
455.562
210.871
185.341
458.256
415.583
541.135
508.289
377.081
373.322
251.513
230.233
475.413
298.646
-324.471
-1520.82
-2995.89
-2178.5
-1803.61
-447.967
-677.946
-2112.97
-3445.57
-3653.77
-2853.63
-848.475
247.383
209.911
159.7
99.8389
33.9605
571.404
484.495
368.327
230.133
78.259
805.901
683.082
519.125
324.274
110.259
902.456
764.674
580.964
362.832
123.358
799.344
677.263
514.488
321.266
109.213
490.535
416.695
316.961
197.895
67.231
364.953
309.591
235.484
147.196
50.0665
848.853
719.439
546.738
341.526
116.128
1179.2
998.902
758.78
473.85
161.103
1262.3
1068.65
811.392
506.594
172.225
1020.43
863.407
655.307
409.09
139.079
412.138
349.581
265.689
165.875
56.3703
190.756
161.879
123.168
77.0038
26.193
167.662
142.278
108.251
67.6745
23.0188
414.342
351.405
267.203
166.97
56.78
375.778
318.711
242.35
151.442
51.5003
489.16
414.748
315.287
196.977
66.9758
459.451
389.531
296.096
184.978
62.8952
340.957
289.186
219.888
137.386
46.7114
337.364
285.945
217.299
135.724
46.1417
227.698
193.352
147.114
91.9172
31.2434
208.014
176.263
133.9
83.6027
28.4147
430.081
364.805
277.215
173.016
58.7774
269.78
228.505
173.473
108.236
36.7735
-284.795
-235.069
-176.349
-110.481
-37.8573
-1342.12
-1114.8
-841.258
-529.197
-181.637
-2609.28
-2148.82
-1627.62
-1039.43
-361.757
-1863.29
-1536.78
-1171.85
-763.696
-284.121
-1533.87
-1252.65
-945.602
-605.961
-211.125
-368.201
-283.979
-198.342
-114.149
-34.3179
-603.15
-504.054
-380.351
-237.835
-81.1619
-1876.64
-1567.03
-1183.76
-742.249
-253.936
-3039.41
-2526.36
-1909.63
-1204.29
-414.654
-3198.87
-2648.59
-2003.73
-1271.61
-442.648
-2477.72
-2037.79
-1538.23
-978.134
-340.223
-719.041
-576.37
-426.645
-268.653
-93.0181
-1951.73
-1409.61
734.925
1227.4
1293.99
1793.97
1168.62
-10053
-1588.05
-3054.5
-1344.2
658.906
-4048.44
975.015
2387.16
833.156
-4944.67
-2013.41
-549
-275.869
-2931.69
-750.832
199.049
157.982
1851.18
1789.83
-472.267
-280.569
-8354.23
-3833.29
-3568.08
-1824.51
-2904.56
-2212.17
668.549
1806.72
320.409
-1049.78
-871.819
-774.44
-878.323
-879.88
-981.39
-710.969
-567.374
-454.155
-194.947
669.76
571.041
433.739
269.257
91.0566
1105.11
933.101
707.22
441.297
149.996
1165.98
984.961
746.185
465.108
158.032
1615.55
1364.14
1033.47
644.422
219.003
1054.34
891.64
675.605
420.913
143.056
-7243.63
-6943.47
-6259.45
-6472.22
-6881.62
-1100.49
-698.136
-794.406
-910.329
-451.328
-2312.84
-1749.52
-1518
-1331.4
-685.758
-907.72
-631.505
-610.454
-559.711
-191.789
585.184
484.185
357.636
217.251
73.5723
-3355.93
-2690.17
-2100.57
-1463.04
-557.467
871.994
729.489
545.926
336.198
113.087
2073.27
1696.43
1274.99
809.024
282.94
751.601
634.106
477.019
293.941
98.5742
-3184.72
-3242.38
-2938.57
-3229.3
-3714.16
-1491.61
-1037.51
-888.618
-769.946
-328.451
-437.171
-343.363
-282.971
-215.233
-83.8258
-206.079
-149.444
-121.119
-95.4406
-38.1568
-2446.52
-1949.79
-1504.51
-1024.59
-380.499
-626.571
-483.495
-361.463
-232.557
-68.3617
201.564
184.972
139.344
79.9888
26.0302
160.845
149.009
113.698
66.7446
22.4181
1653.5
1385.07
1044.05
650.393
221.418
1609.27
1355.94
1024.4
637.093
216.317
-394.785
-315.658
-242.779
-163.657
-59.6706
-223.77
-170.941
-131.091
-91.4666
-33.9665
-5279.23
-4220.78
-3839.58
-3986.27
-3626.99
-2885.52
-2224.41
-1796.26
-1384.44
-602.981
-2651.32
-2213.35
-1894.94
-1683.23
-737.258
-1345.55
-1065.44
-863.977
-674.025
-343.719
-2454.98
-1973.64
-1506.84
-995.869
-352.229
-1740.29
-1067.53
-889.51
-720.418
-41.7637
621.449
538.62
408.394
249.833
84.7287
1628.4
1375.32
1040.49
647.221
219.679
313.324
283.463
213.685
126.065
44.3609
-90.3382
-190.003
-229.81
-284.066
-416.952
-583.72
-20318.3
-16727.8
-15714.3
-18820.6
-14314.3
-10978.9
-13147.3
-9994.26
-17912.2
-14253
-15066.6
-12826.8
-12955
-9858.62
-12265.2
-17130.8
-15012.8
-13340.2
-15151.5
-12734.5
-9882.49
-11330.3
-8513.13
-16589.5
-13996.6
-14946.6
-13100.8
-12922.7
-10787.4
-12538.3
-13363.6
-12244.8
-10710.7
-11660.8
-10660.4
-8817.43
-9523.07
-8160.07
-13792.5
-12622.9
-13089.8
-12178.4
-11939.3
-10350.7
-11646.9
-9191.97
-8815.87
-7626.72
-7933.46
-8162.27
-7646.65
-7272.17
-7249.23
-9960.9
-11034.6
-9643.14
-10586.6
-9205.04
-8389.85
-10041.7
-5918.08
-5826.09
-4909.77
-4990.19
-5748.67
-5821.36
-4847.25
-5013.41
-6969.67
-8507.21
-6850.14
-7930.88
-6742.23
-6537.83
-7547.03
-2162.4
-2148.4
-1767.1
-1784.5
-2163.12
-2270.19
-1740.47
-1732.79
-2850.76
-3575.81
-2784.11
-3151.57
-2766.74
-2741.78
-3001.88
-7584.59
-7632.44
-10715.9
-11808.5
-7650.94
-7241.81
-9964.71
-8298.9
-7153.97
-4601.08
-7287.85
-4524.22
-7376.03
-7410.7
-4617.48
-7209.83
-7047.65
-9882.79
-10680.1
-6806.97
-5993.22
-8986.98
-7369.06
-5029.29
-1863.47
-4978.68
-2103.14
-4235.45
-4041.47
-2453.66
-6061.14
-5952.81
-8326.56
-8783.8
-5981.55
-5511.28
-7799.16
-6994.78
-2652.36
-1779.75
-2623.28
-2387.82
-2558.7
-2827.3
-3077.41
-4463.88
-4478.08
-6110.96
-6253.88
-4611.61
-4548.52
-6007.79
-5904.72
-2740.43
-1651.85
-2950.31
-2614.1
-3227.29
-3788.33
-3552.61
-2772.1
-2788.33
-3894.08
-3931.96
-2730.54
-2737.59
-3867.06
-3816.68
-1528.13
-1218.46
-1730.32
-2067.69
-2208.1
-2703.92
-2787.63
-934.804
-943.611
-1377.65
-1386.03
-940.144
-986.713
-1362.5
-1321.34
-265.612
-505.369
-433.7
-937.537
-753.789
-981.039
-1167.88
7242.53
21806
5549.44
24368.2
3042.79
25802.5
5193.5
40858.2
8485.16
51304.5
8693.03
36400.7
9273.23
32350.5
9031.11
27147
4300.79
2341.72
12973.4
6132.74
4012.57
1844.87
13980.6
5629
5538.63
4084.02
16243.6
11878.6
3750.14
2955.28
16663.6
12625.2
8451.55
3070.76
6407.58
2329.64
2925.97
7846.22
39969
12211.8
12003.7
5542.75
48508.1
15204.1
11193
5255.11
26477.4
8824.97
13496.7
6150.38
21564.7
6854.16
5001.43
2697.57
8653.27
3496.92
4494.54
2834.13
9284.69
3504.54
6011.49
3817.18
5829.81
2449.7
10345.5
3738.73
4070.63
1504.85
12663.7
9553.77
7669.98
6892.1
14107.1
12370.7
7648.64
8161.83
7129.01
6138.46
9329.25
8004.84
5701.94
4913.68
3303.94
2843.73
5666.66
5654.12
3233.22
3238.93
5471.65
4305.98
3190.15
2258.97
6131.79
3453.68
6170.74
6793.2
8177.1
6222.41
8849.84
11637.3
4468.45
1915.27
3957.82
4076.83
2525.43
884.566
1814.36
1565.56
5807.01
11732.2
4205.91
13265
6277.75
11841.9
5034.48
14077.3
8250.78
11749.4
6970.29
14319.2
9080.01
10837.7
7061.75
7104.97
8645.22
7149.33
7936.2
10974.1
12835.6
18790.9
9673.6
7871.17
7544.71
9563.13
15177.6
14629.2
14172
17103.2
17207.1
14239.6
14281.9
17110.4
17070.9
13118.9
13638.4
16397.6
16596.5
9001.24
9565.14
8858.64
9372.95
10776.9
10831
12637
12343.9
15986.1
16214.9
8208.38
9031.16
9321.13
10003.8
10442.6
11339.8
12064
13301.2
15896.9
17349.9
9609.87
6560.53
7775.43
7827.87
10733.5
12192.2
8727.05
11521.3
7157.61
7266.29
9109.98
6544.79
3294.4
5649.91
1346.63
2104.24
5404.66
8537.56
2115.48
3195.53
2778.36
4969.85
1039.51
1812.84
6825.38
5824.94
6986.59
4383.24
9615.69
6870.77
10953.5
7335.58
3199.34
3713.37
3979.21
2270.02
2457.21
2673.23
2735.25
2076.26
12316.7
8108.73
2660.52
13329.2
8390.34
2901.02
12120.3
7932.23
2701.35
13316
8375.8
2840.09
11568.4
7457.34
2500.78
13074.5
8242.39
2835.49
6862.39
3930.32
1032.07
8188.28
5593.45
1819.95
9438.63
6646.3
2243.34
10464.5
6823.57
2239.1
12644.9
7965.06
2816.98
7552.77
4153.97
1364.79
7385.38
4789.05
1667.42
8335.37
5503.39
1887.37
9905.88
6367.36
2178.62
11999.9
7015.32
2432.34
-498.544
990.888
443.293
2646.38
1792.51
1809.04
4619.76
4043.26
593.731
968.802
627.798
1012.38
343.675
944.876
630.972
1383.71
1896.37
1137.75
3822.03
2707.92
1748.59
2876.54
2935.35
818.685
5915.56
1868.31
-4171.19
-627.952
655.367
686.402
9.0057
161.07
10285.9
4491.42
2726.43
1607.01
10145.4
4560.12
2980.34
1909.12
9804.8
4987.69
4011.16
2834.38
3084.44
2007.06
1719.86
1551.27
13138.8
11481.2
5753.24
7353.92
14775.1
13795.3
7191.69
8622.7
5217.71
6294.66
11124.3
9167.23
3657.25
4794.85
2100.91
2784.01
4804.48
5615.18
2767.11
3210.79
2961.13
4149.77
1655.88
2522.02
4642.7
3289.05
5262.52
3527.68
7988.18
4741.36
7078.17
4631.44
2757.07
2249.97
3651.81
2423.01
1543.31
1417.03
2311.34
1499.24
11996.6
7967.73
5855.72
6072.26
11887
7921.29
5779.89
5936.6
12009.1
7605.62
5881.83
5519.7
13243.3
12839.9
12316.5
9443.54
5417.24
7815.65
9374.6
9863.35
9219.79
6423.43
11112
9917.02
8190.09
6597.67
4284.11
6777.86
6687.08
6777.09
8170.4
6735.57
6469.01
6610.22
7997.43
6425.48
6118.13
6286.14
7655.98
8777.77
8300.77
8128.99
6986.25
6044.19
6046.43
5804.15
6041.82
5491.54
7219.91
6447.01
7305.61
5360.2
6092.99
4739.16
5414.95
4617.47
5536.19
4166.84
6627.33
4741.61
3801.65
3247.36
1741.76
7315.13
5558.19
5910.98
3741.55
2456.34
1408.86
3635.96
3276.67
4223.92
1839.9
1966.06
1083.31
5516.89
3160.47
2265.83
1561.88
3414.2
1454.63
1739.28
871.823
2056.02
2452.88
2536.94
4284.2
3104.36
3783.07
3051.09
5559.96
2486.77
1800.51
1867.72
3076.19
1120.42
442.222
398.944
769.669
5271.52
2418.48
698.521
5662.27
1514.87
400.766
5137.65
2525.96
789.659
5625.62
1559.31
433.29
4695.24
2326.86
602.677
5358.77
1445.21
327.979
5618.92
3079.26
814.992
4676.92
2518.24
703.76
4531.48
2285.38
654.379
4416.81
2101.33
491.304
5088.9
1279.16
219.178
6227.17
3282.27
1019.82
5324.94
2906.14
957.886
4765.79
2507.32
824.358
4535.24
1875.17
511.352
5308.94
1328.72
424.715
1723.81
658.533
318.105
19.2007
695.605
279.956
146.159
30.5923
1788.02
709.646
382.296
81.7886
850.922
380.673
246.921
115.239
2048.64
847.371
498.202
161.025
1463.2
749.187
422.452
194.204
1082.52
669.16
315.393
100.566
1127.49
759.883
434.521
237.813
1711.2
811.134
422.641
50.129
1626.89
747.566
443.939
-25.8325
2149.94
904.556
539.693
127.638
1925.69
798.08
500.964
-48.3779
1300.87
707.02
364.945
51.364
1267.03
658.777
402.521
68.4778
969.587
613.788
381.142
217.59
885.566
549.363
373.617
210.495
2211.27
807.363
396.35
-58.7435
2308.17
787.411
446.067
-214.714
2201.4
818.662
431.22
-27.2119
2208.22
757.892
444.484
-197.922
2215.65
841.571
498.718
21.7877
1980.44
686.8
441.303
-139.188
2060.33
811.581
546.946
149.232
2185.27
778.169
566.65
-131.264
1602.12
630.439
431.388
52.5205
1907.73
579.451
335.52
-204.341
750.718
206.421
102.912
-46.9653
1874.25
584.826
343.526
-180.647
760.602
216.105
113.137
-33.8184
1764.37
571.539
357.568
-138.837
733.851
218.747
126.151
-15.5419
1488.42
490.902
343.655
-92.095
647.589
194.101
135.195
7.98148
1306.86
459.344
333.04
-28.8033
585.008
197.098
151.029
41.0592
1024.91
443.458
268.798
20.3921
538.287
272.901
167.625
87.4221
1091.8
403.923
276.794
-4.18045
533.324
220.191
155.548
67.2016
910.737
474.177
285.22
70.1159
544.926
321.596
192.876
117.974
711.038
456.259
302.632
178.61
504.748
345.652
228.47
167.299
15.2186
10.4767
6.53373
4.11201
3.01799
8.35126
5.3237
3.2671
2.05566
1.5149
35.3779