/*--------------------------------*- C++ -*----------------------------------*\
| =========                 |                                                 |
| \\      /  F ield         | OpenFOAM: The Open Source CFD Toolbox           |
|  \\    /   O peration     | Version:  2412                                  |
|   \\  /    A nd           | Website:  www.openfoam.com                      |
|    \\/     M anipulation  |                                                 |
\*---------------------------------------------------------------------------*/
FoamFile
{
    version     2.0;
    format      ascii;
    arch        "LSB;label=32;scalar=64";
    class       volScalarField;
    location    "2.1";
    object      gradTx;
}
// * * * * * * * * * * * * * * * * * * * * * * * * * * * * * * * * * * * * * //

dimensions      [0 -1 0 1 0 0 0];

internalField   nonuniform List<scalar> 
5712
(
-7952.09
-9717.24
-18172.4
-28387.9
-27447
-53558.8
-18972.9
-57101.7
-19576.7
-45792.7
-24073.4
-39584.5
-18419
-24356.7
-9907.62
-10055.9
-12919.2
-14619.3
-17721.6
-16060.3
-12312.8
-18532
-18371.5
-18387.9
-5207.98
-3775.94
-7061.97
-5052.24
-11813.1
-7665.33
-21852.7
-15237.1
-18191.8
-18440.5
-18470.3
-18675.6
-4253.19
-3801.19
-42347.2
-52367.6
-22525.7
-30064.6
-54594.3
-67185.9
-25280.4
-31110.9
-31717.2
-41467.1
-25275.2
-35009.2
-14529.2
-18397.9
-2972.1
-941.151
-3863.71
-1338.75
-6649.65
-2734.65
-11529
-4231.15
-7566.4
-2512.58
-7642.06
-2164.06
-15027.2
-4376.63
-19698.2
-6175.94
-25376.7
-14502.8
-21465.5
-14824.7
-25999.7
-16745.8
-20632.6
-16684.8
-16634.8
-11991.7
-18247
-11535
-20859.8
-15383.7
-21562
-15793.5
-20228.6
-17079.2
-21022.1
-17429.4
-17180
-12721.1
-18526.6
-13204.4
-18326.1
-7520.01
-10447
-11917.9
-19706.3
-8668.73
-10348
-12454.7
-18387.1
-7020.61
-10954.1
-11758.8
-19015.4
-7068.43
-11526.3
-11870.6
-2873.31
-3230.15
-1010.4
-2001.86
-8285.07
-9722.79
-3403.24
-6471.74
-13466
-15988.6
-6068.47
-10875.8
-17588.1
-9272.2
-17818.2
-21380.7
-10751.4
-6789.45
-10865.9
-12447.2
-21719
-13821.5
-10061.3
-13192.1
-14617
-14147.5
-17634
-3180.7
-3262.18
-1968.3
-2100.95
-9430.34
-9000.67
-6068.09
-6163.54
-14138
-12954.1
-8973.71
-9018.83
-9724.1
-10870.9
-15370.5
-16306
-17130.7
-16120.4
-20339.5
-18676
-14030.7
-13989.2
-13088.2
-14235.5
-16883
-15470.7
-15891.1
-13335.4
-14220.4
-11420.9
-15792.2
-12584.7
-14269.5
-7696.64
-11198.4
-10912
-15734.3
-18328.5
-16066
-20948.7
-9440.8
-9321.26
-12926
-5903.46
-10809.8
-17062.3
-11170.1
-18203.9
-16298.3
-25673.3
-16836.4
-26255.4
-9143.12
-14977.2
-9450.14
-16221
-11261.4
-8401.23
-14416.9
-6515.05
-12208.7
-4607.02
-13645.7
-3351.19
-11683.5
-12017.5
-15089.3
-7787.05
-10530.1
-13847.9
-13853.3
-9901.19
-3056.09
-2846.81
-2460.64
-1973.98
-1932.87
-1692.84
-8278.99
-7150.44
-6250.82
-5400.57
-4523.76
-3823.55
-10840.8
-9202.16
-8419.87
-7775.74
-6268.46
-5674.53
-9772.06
-7941.59
-7545.38
-15220.3
-11350.8
-9232.64
-13700.9
-10053.9
-7806.23
-15243.2
-11954.5
-10072.8
-11799.6
-8030.95
-5989.07
-18275.4
-14879.3
-13221.2
-13401.8
-10618.8
-8803.96
-11824.5
-8887.93
-6989.7
-10560.1
-7888.29
-6255.52
-11390.8
-6825.62
-4248.25
-11459.1
-18696.7
-9713.79
-13932.2
-9306.61
-19183.2
-7788.98
-15729.9
-185.466
-1727.7
247.987
-1013.12
-3559.63
-6717.97
-2231.99
-4057.73
-1841.22
-3926.62
-10994
-16396.1
-8727.7
-6486.3
-11662.6
-10195.7
-15649.8
-16753.8
564.603
5521.99
-8386.57
-5886.64
-6556.16
-3778.52
-1587.2
-1015.98
-1274.85
-780.098
-3895.87
-1252.14
-1930.01
-228.903
-9972.64
-2996.88
-7491.44
-2319.62
-8522.73
-2568.74
-9658.34
-3191.76
-12270.1
-12166.6
-9563.05
-12080.7
-18596.1
-16782.2
-15240.7
-15977.6
-7107.76
-9357.03
-8287.39
-8629.17
-8966.16
-12027.4
-9437.33
-12153.7
-14561.5
-15688.6
-15099.4
-15815.5
-6293.43
-9505.94
-6104.15
-9638.41
-825.714
-1483.47
-7553.37
-4267.47
-798.956
-1252.34
-6607.95
-3608.69
-823.365
-1338.46
-7988.02
-4703.43
-1136.32
-1462.79
-8080.7
-4966.9
177.946
320.321
-482.667
-334.358
852.586
1378.18
-787.696
-530.098
-1184.73
-139.525
-2594.46
-2277.62
7685.2
3903.72
4511.58
2982.2
-68.1737
7088.16
10381.9
4926.12
4963.9
-47.9048
-9382.61
-6872.59
-5664.91
-5858.86
-3476.91
531.341
428.326
-193.948
-304.473
1490.17
1655.85
-544.917
-751.684
1265.21
1871.67
-1471.65
-1790.07
3113.22
1625.46
8061.55
5719.35
4303.72
3094.27
3889.15
3234.79
-346.388
-1121.81
-4945.18
-3426.08
487.684
2216.25
660.92
1947.74
-428.958
663.013
-897.605
-1296.55
-4070.48
-4512.05
-9714.08
-6165.03
-8641.4
-8424.22
-12996.5
-10162.5
-7459.47
-4591.04
-2531.72
-3236.63
-11501.3
-4858.38
-12334.9
-4478.24
-14929.5
-9788.61
-15888.8
-9400.59
-8988.13
-3347.94
-9767.58
-2893.42
-5661.63
-4634.92
-4347.88
-7642.46
-2804.62
-3739.51
-2874.33
-6428.31
-6235.09
-4336.31
-5269.01
-8770.6
-7523.79
-4107.19
-6213.18
-8691.95
570.003
747.011
873.19
-194.218
141.92
195.926
2060.65
2487.16
2678.7
-281.414
592.665
720.578
2495.06
3547.45
3999.36
-954.335
1039.27
1454.32
884.799
1436.31
1293.92
4422.73
4747.61
4405.89
3461.11
4061.7
3931.99
3676.95
4621.81
4783
-550.034
1512.31
1446.52
-4026.16
-1973.25
-1132.14
1362.48
2570.79
2958.88
1607.4
2917.25
3248.84
966.751
2568.23
2904.32
-1797.21
1024.68
1219.9
-74.858
7.13978
36.7775
76.0684
107.078
103.257
120.982
120.005
-203.137
7.68411
99.9768
201.821
245.044
236.912
262.182
271.518
-408.196
-50.4393
104.86
310.642
43.5454
196.385
227.788
305.648
47.8489
128.223
89.0091
99.1414
-159.536
-10.4248
45.9573
108.404
-1041.05
-312.452
-125.362
171.038
-1557.36
-495.947
-311.466
238.641
-869.919
-235.25
-49.3622
297.959
-1267.3
-395.921
-269.229
242.062
-962.31
-301.385
-119.892
143.636
-1718.51
-550.107
-331.618
297.101
-1023.8
-353.231
-116.36
195.192
-1804.25
-582.545
-348.375
326.275
-74.0969
-4.24291
13.3178
67.5976
-63.8757
-1.7617
-0.638697
71.1485
-202.341
-17.0161
38.3431
179.877
-109.321
18.3173
12.937
194.38
-709.309
-181.098
-42.4397
273.957
-549.248
-114.134
-42.5971
310.147
-348.994
-32.5746
45.1641
308.999
-234.472
-6.06436
-3.45361
303.304
-1071.28
-306.266
-199.204
342.603
35.3619
30.0787
20.8274
57.2385
127.507
56.8138
33.4049
35.5153
22.0616
58.3255
37.8522
150.007
310.976
146.866
82.5482
93.6999
-87.3423
42.3228
37.5853
234.589
418.77
211.088
123.597
143.394
-115.497
55.0585
47.4598
310.619
431.582
247.786
139.801
168.894
-332.338
10.0271
-27.6768
299.227
231.606
221.344
105.212
155.199
-1096.31
-135.132
-138.777
277.975
-326.325
71.1977
26.869
110.324
-718.348
-39.5157
-93.7525
283.863
-109.816
148.171
63.4227
133.856
-1418.33
-266.801
-198.656
298.776
-471.634
-10.3507
-10.1997
97.6668
-1647.01
-408.252
-267.455
294.285
-608.224
-112.128
-56.5489
81.5179
30.2272
14.3074
7.46809
4.33455
3.09017
41.6045
21.7233
11.8709
7.05442
5.07139
64.548
30.4186
15.8112
9.20395
6.61573
109.582
59.1269
32.8491
19.7645
14.3084
92.0607
43.8781
23.1951
13.6748
9.90007
157.659
84.1293
47.1711
28.6338
20.829
53.2555
27.6051
15.5202
9.47019
6.90421
29.8257
14.963
8.22681
4.98759
3.62202
81.5408
36.572
19.4367
11.5743
8.35521
18.5904
5.43642
2.28912
1.21056
0.833081
120.771
60.3451
33.2521
20.0862
14.5976
33.4486
13.4597
6.85826
3.99808
2.84677
28.3899
7.82737
3.07919
1.58676
1.08734
19.2606
6.08195
2.74022
1.53151
1.08431
26.9036
7.09229
2.67638
1.36125
0.904571
13.6366
2.08387
0.332781
0.0328618
-0.0314696
24.5207
10.7905
5.38947
3.03704
2.13551
23.0134
10.1891
5.10371
2.87611
2.0219
56.4541
24.4819
12.2574
6.94005
4.91333
53.4936
23.1388
11.6285
6.5817
4.63716
73.5348
29.9434
14.8652
8.39268
5.94736
64.6105
28.4501
14.6177
8.35482
5.9529
87.2831
42.7182
23.3114
13.9576
10.1418
43.2547
20.8276
11.1134
6.47306
4.68507
50.4173
25.7701
14.3523
8.72091
6.35232
-509.382
-616.559
-1403.77
-1752.27
-2148.21
-2804.11
-2607.61
-3712.23
-2593.27
-3688.92
-2343.18
-3109.01
-2168.97
-2622.88
-2673.2
-3628.39
-2776.51
-3791.43
-505.458
-110.758
-24.113
-5.11728
-1.24271
-214.032
-77.3491
-8.48267
-2.41312
-0.968904
-1632.41
-360.309
-78.9013
-16.874
-4.12781
-554.805
-118.09
-23.9252
-4.6611
-0.995658
-2874.18
-638.079
-140.548
-30.332
-7.48565
-971.324
-230.552
-50.8832
-11.0846
-2.67714
-4118.93
-919.566
-204.544
-44.6533
-11.158
-1363.12
-353.435
-83.488
-19.1429
-4.85378
-5736.36
-1317.42
-299.336
-66.552
-16.9208
-1815.85
-533.171
-133.615
-31.6519
-8.24317
-7713.5
-1934.1
-464.009
-107.402
-28.164
-2108.54
-656.42
-169.915
-40.9865
-10.8543
-7036.16
-1709.67
-400.239
-90.8333
-23.4482
-2039.91
-641.669
-165.887
-39.9256
-10.4835
-8033.09
-2041.45
-495.899
-116.063
-30.7048
-2156.15
-651.961
-166.108
-39.6109
-10.4582
-8271.9
-2095.95
-511.38
-120.358
-32.007
-2157.43
-653.922
-166.445
-36.8476
-10.312
-248.957
-6570.04
-6455.24
-3643.64
3715.6
5109.59
10294.6
13534.1
5851.69
11807.4
2264.97
7125.49
5772.28
9585.69
10529.2
14522.2
12686.7
14434.1
7245.18
8197.81
-18927.6
-14137.9
-4390.57
-3411.18
-2656.66
-4270.01
-2993.7
-12371.6
-12133.1
-10409.1
-10989.5
-9029.65
-6254.2
-8611.43
-5275.32
-4046.77
-5010.09
-3206.38
-20425.2
-10156.3
-3027.18
-5068.89
-7670.98
-5209.73
-6148.84
-4640.18
-2258.23
-3821.3
-3349.62
-3905.17
-19002.8
-11819.8
-11870.2
-7544.43
-8017.02
-8054.62
-4012.61
-5110.1
-5292.08
-12826.5
-12235.7
-10492.3
-10414.2
-9497.04
-10101.7
-7527.98
-6259.19
-5209.8
-2386.5
-3885.58
-3225.83
-2420.71
-1508.33
-513.081
-3049.3
-2555.07
-1924.68
-1196.91
-406.339
-2358.95
-1961.06
-1465.55
-905.814
-306.606
-3818.62
-3199.2
-2406.68
-1493.52
-506.332
-2659.3
-2213.2
-1657.72
-1027.49
-348.433
-8227.64
-7004.2
-5617.02
-5254.22
-5708.35
-6653.17
-5270.18
-3743
-3052.36
-2559.12
-7222.37
-4939.54
-3740.51
-2805.93
-1243.81
-5949.35
-4454.47
-3085.77
-2410.77
-1688.81
-4583.54
-3194.51
-2119.08
-1730.72
-1030
-4983.66
-3751.11
-2667.19
-1659.92
-587.957
-6177.66
-4282.22
-3042.77
-2006.72
-802.632
-3702.3
-2440.3
-1651.44
-1041.54
-395.761
-3345.66
-2595.09
-1858.02
-1138.13
-390.513
-4041.05
-3052
-2144.04
-1300.47
-445.94
-2681.1
-2098.4
-1504.58
-915.668
-310.994
-13913
-11511.4
-9581.68
-8919.02
-8357.69
-7817.79
-5840.63
-4462.15
-3204.57
-1361.24
-2520.98
-1974.25
-1430.92
-888.312
-307.636
-4299.77
-3436.37
-2539.72
-1601.75
-558.678
-6335.61
-4969.9
-3715.29
-2437.05
-888.009
-4454.6
-3588.93
-2676.38
-1698.44
-589.345
-5352.18
-4374.34
-3269.04
-2051.3
-699.587
-4047.15
-3312.19
-2462.36
-1531.22
-522.509
-1948.59
-1572.82
-1149.79
-703.404
-237.807
-3361.91
-2769.72
-2058.03
-1270.35
-430.439
-2850.87
-2274.6
-1657.73
-1020.39
-348.151
-3380.96
-2746.4
-2030.35
-1259.68
-430.403
-12789.3
-11461.4
-9826.11
-9484.83
-8420.18
-8775.34
-6576.42
-5331.06
-4208.61
-1900.63
-9542.73
-7763.75
-6188.53
-4858.69
-2171.96
-6177.32
-4682.89
-3589.6
-2469.89
-792.432
-6762.38
-5357.19
-4029.7
-2619.69
-888.874
-6568.16
-4946.36
-3775.74
-2591.27
-808.948
-3464.96
-2810.37
-2086.26
-1305.34
-447.667
-4500.95
-3716.66
-2773.78
-1721.31
-585.034
-4563.48
-3700.56
-2753.22
-1729.36
-594.904
-6314.57
-13859.3
-11100.4
-36107.9
-10469.1
-47142.3
-7013.9
-18542.3
-9141.21
-7691.99
-17949.2
-14014.4
-9303.7
-11190.1
-19637.1
-16303.8
-3964.11
-2701.05
-9123.3
-6407.05
-6951.75
-3630.72
-25141.2
-17714.6
-15224.2
-10589.1
-15793.9
-10280.5
1718.47
-1503.32
-43346.5
-52745.2
-21861.6
-29960.8
-55269.6
-67451.4
-24478.9
-30918
-32398.6
-41857.6
-24629.8
-34987.2
-15601.5
-18827.4
-2131.12
-407.004
-4648.91
-1496.73
-4033.69
-1900.9
-13018.8
-4648.7
-2032.45
-962.402
-5714.12
-1581.74
-15081.5
-4340.9
-19877.4
-6218.17
-18548.8
-11369
-19151.1
-13243.9
-18024.5
-12841.4
-17974.7
-14797.1
-15070.8
-10813
-13822.2
-9300.61
-19932.4
-14648.1
-21331.8
-15582.3
-19139
-16234.5
-20720.7
-17184.9
-16606
-12158.8
-18396.6
-13041.2
-17439.6
-7309.11
-9613.44
-11584.8
-16993.5
-7977.79
-8704.99
-11832.9
-18127.8
-6955.01
-10560.1
-11589.3
-18982.1
-7060.7
-11410.2
-11820.9
-655.828
-490.934
109.394
-671.596
-2437.11
-3011.17
-1717.08
-4462.56
-3631.19
-4854.17
-3778.72
-8201.2
-16820.8
-16107.6
-13424.4
-15769.4
-9506.46
-10824.9
-8647.3
-7451.64
-15599.4
-12765.6
-12578.5
-11948.4
-11365.8
-10711.3
-16313.8
-700.845
-890.888
-450.083
-672.821
-3011.97
-2695.81
-3410.59
-3381.33
-2897.02
-1515.81
-5660.25
-5400.52
-11789.3
-12666.1
-11047.7
-11009.2
-9984.35
-8316.5
-13458.1
-11584.8
-11963.9
-11326.9
-15200
-15675.2
-14332.7
-12895.6
-11757.1
-9714.17
-10569.8
-8313.09
-14164.4
-10537.2
-13197.5
-7889.23
-10814.1
-10948
-16202.7
-19177.8
-16165.1
-21236.5
-8823.87
-9159.13
-11311.8
-5699.12
-10672
-17005.6
-11127.9
-18176.1
-16380.5
-25911.3
-16843.3
-26268
-8897.49
-14823.2
-9380.97
-16173.3
-10701.2
-8230.65
-14114.9
-6443.17
-10846.4
-4444.85
-13039.2
-3414.42
-11449.5
-11885.8
-14948.2
-7738.78
-10464.2
-13804.3
-13817.6
-9877.16
-1085.08
-827.742
-612.891
-756.235
-2057.51
-982.879
-2833.5
-2823.48
-427.715
-269.375
-5026.44
-4884.1
-13662
-11756.4
-10795.5
-8339.32
-6990.34
-4754.26
-9278.48
-7063.21
-9834.06
-6605.19
-19936.7
-16982.8
-10448.7
-8463.22
-8100.48
-5972.88
-7039.49
-4879.73
-7908.73
-4038.97
-5882.13
-11207.5
-5427.12
-10943.9
-7360.18
-12006.6
-8665.07
-13452
-1657.35
-1573.17
-1484.98
-1502.47
-4643.21
-4881.78
-4352.29
-4531.62
-1957.62
-2299.46
-9152.33
-10043.8
-5614
-6343.04
-10565.3
-9952.37
-14607
-16466.1
586.574
5368.29
-7806.65
-5823.97
-6328.23
-3803.82
-1401.43
-1332.09
-1529.58
-1307.68
-3142.95
-2116.98
-2490.69
-1538.54
-8327.85
-4125.84
-7806.76
-3772.98
-8632.32
-3393.78
-9731.42
-3528.59
-6712.12
-9701.94
-7581.35
-10729.3
-11423.9
-12955.8
-12719.9
-14089.8
-6006.85
-8735.49
-5225.29
-7768.55
-8151.16
-11448.3
-9195.01
-11987.1
-13489.6
-14871.5
-14783.1
-15579.4
-5859.17
-9246.8
-5977.61
-9565.94
-979.878
-1968.07
-7577.82
-4547.99
-1139.08
-2083.88
-6836.16
-4031.37
-1019.98
-1725.63
-8019.67
-4904.48
-1221.32
-1623.61
-8076.7
-5056.65
-1286.02
-1462.07
-1347.51
-1532.9
-3138.96
-3491.95
-2373.77
-2736.93
-7621.31
-8246.24
-4423.17
-4866.49
-4208.95
-9477.37
-2844.11
-581.291
-1634.58
-4175.02
-1208.31
-1981.05
1720.4
-1106.31
-13762.1
-10087
-7832.98
-7686.5
-4369.9
-1761.02
-1926.53
-1796.08
-2200.5
-4137.18
-4440.08
-3247.84
-4066.75
-8764.89
-9866.2
-4921.21
-6247
-6182.53
-7501.77
-2194.2
-4214.08
-3498.81
-4800.8
-1091.95
-1961.92
-2121.21
-3301.06
-11321.6
-8835.85
-6258.06
-4312.8
-4733.01
-3245.61
-4589.81
-3156.91
-2722.59
-3381.87
-7509.92
-8018.69
-11307.8
-7709.75
-11241.4
-11222
-13996.8
-11399.4
-9364.46
-6180.2
-5896.77
-6600.77
-12277.7
-5742.38
-12547.4
-4685.57
-15386.9
-10521.7
-15996.7
-9551.98
-9967.63
-4255.51
-10051.2
-3128
-7531.08
-6143.4
-6020.87
-9415.09
-5754.05
-6704.19
-5014.06
-9236.71
-7243.59
-5240.57
-6283.29
-9839.82
-7836.35
-4382.33
-6539.59
-8973.55
-1614.67
-1685.61
-1569.04
-1254.04
-4816.95
-5437.67
-2516.33
-1437.36
-10628.1
-8806.29
-3745.59
-457.847
-9363.4
-8096.29
-6032.17
-5006.9
-5093.01
-4040.4
-1953.13
-908.399
-2335.8
629.868
-8458.95
-7000.5
-4185.27
-2922.52
-2837.56
-1407.69
-2298.84
-674.866
-3999.77
421.435
-307.798
-129.001
-42.5534
32.5714
-328.27
-163.951
-43.0313
19.4488
-792.013
-336.233
-91.5481
110.874
-750.072
-383.048
-136.504
-2.74392
-1188.29
-510.057
-174.948
156.691
-1166.77
-579.014
-323.576
-119.568
-693.788
-363.196
-236.071
-87.0244
-481.292
-230.138
-100.275
20.5015
-1474.14
-588.939
-334.655
11.5272
-1700.89
-558.258
-370.937
241.511
-1487.26
-590.466
-321.745
47.8537
-1452.55
-477.458
-345.567
244.842
-1295.04
-519.823
-255.978
93.9191
-1828.54
-600.323
-386.388
270.722
-1166.87
-449.578
-179.162
164.705
-1852.53
-606.552
-369.99
319.615
-289.867
-109.878
-42.6978
47.119
-290.504
-96.199
-55.4035
53.3355
-750.225
-289.309
-107.497
127.419
-737.628
-254.122
-139.706
150.702
-1319.71
-498.234
-228.507
225.089
-1276.21
-447.393
-248.434
255.243
-1312.51
-534.657
-276.151
102.408
-965.522
-358.696
-202.34
259.928
-1472.84
-498.448
-359.11
295.983
-213.458
-70.2026
-29.1078
34.2044
-125.856
-49.7371
-16.964
3.93105
-588.588
-195.4
-96.1495
88.3146
-351.116
-141.604
-59.3565
5.53593
-824.004
-285.369
-149.405
141.729
-497.424
-221.574
-94.197
8.73096
-975.937
-362.147
-198.825
180.756
-651.417
-300.359
-135.578
4.28665
-1167.91
-407.107
-288.078
150.218
-881.934
-350.866
-195.07
-29.6348
-2014.49
-662.523
-465.473
94.6973
-1080.09
-379.401
-229.725
-45.3883
-1737.24
-574.419
-425.451
96.3689
-1122.48
-394.993
-236.177
-52.1971
-2015.32
-633.622
-426.719
174.553
-930.847
-309.997
-183.231
-1.93248
-1847.06
-536.289
-347.18
251.845
-755.741
-213.771
-115.772
48.0187
-6.44321
-9.67195
-6.9217
-4.61562
-3.4814
-23.9802
-17.8718
-11.4226
-7.3586
-5.49856
-14.2688
-20.3727
-14.5102
-9.6204
-7.1974
-76.346
-51.1673
-31.6304
-20.0589
-14.8837
-34.2467
-32.7013
-21.7294
-14.079
-10.4406
-117.269
-74.978
-45.16
-28.276
-20.8691
-39.0317
-24.7846
-14.8224
-9.23601
-6.80691
-18.082
-12.4326
-7.71007
-4.86555
-3.61928
-31.8781
-28.0963
-17.9568
-11.4505
-8.51145
6.5471
-1.74332
-1.90901
-1.37997
-1.06545
-79.8202
-52.3582
-31.5239
-19.7218
-14.545
-6.39516
-9.48562
-6.36617
-4.12971
-3.10252
10.6117
-1.33901
-2.17934
-1.6558
-1.29453
3.02381
-2.63476
-2.25752
-1.5448
-1.17336
12.4338
-0.696958
-1.84376
-1.46047
-1.20527
12.2622
1.59747
0.0613019
-0.151002
-0.190839
-0.353357
-6.42156
-5.05571
-3.47572
-2.6486
-2.68723
-6.50403
-4.87221
-3.31736
-2.52225
-4.04886
-15.6492
-11.7702
-7.97791
-6.03157
-8.2394
-15.8344
-11.4275
-7.68531
-5.82095
-3.97971
-20.1808
-14.7843
-9.94605
-7.4938
-21.9333
-22.9733
-15.2317
-10.019
-7.49809
-57.6517
-37.8802
-22.7552
-14.2981
-10.5299
-28.6542
-19.4067
-11.8611
-7.6092
-5.61378
-41.5463
-23.5897
-13.658
-8.43329
-6.19425
-183.897
-307.382
-619.978
-987.359
-1214.87
-1856.08
-1794.11
-2827.63
-2036.07
-3087.45
-2281.67
-3067.14
-1953.15
-2487.27
-2663.23
-3614.22
-2778.07
-3789.53
-498.096
-111.338
-24.3973
-5.1875
-1.2603
-150.672
-70.1074
-6.78401
-2.18057
-0.953893
-1627.09
-364.395
-80.158
-17.1609
-4.19709
-395.509
-91.5353
-19.527
-3.93377
-0.858269
-2869.13
-644.166
-142.45
-30.7796
-7.59612
-778.037
-198.119
-45.4914
-10.2044
-2.5138
-4097.57
-922.883
-206.061
-45.0569
-11.2654
-1190.75
-323.647
-78.3988
-18.2936
-4.69446
-5695.55
-1316.08
-299.955
-66.799
-16.9993
-1705.98
-512.071
-129.788
-30.992
-8.11813
-7674.89
-1927.02
-462.874
-107.25
-28.1488
-2093.76
-651.772
-168.818
-40.7628
-10.8061
-6990.72
-1703.96
-399.749
-90.8538
-23.4783
-1992.96
-630.047
-163.518
-39.4876
-10.3971
-8007.4
-2036.11
-494.907
-115.902
-30.679
-2152.58
-650.597
-165.746
-39.5327
-10.4403
-8263.31
-2094.1
-511.018
-120.296
-31.9966
-2157.26
-653.763
-166.391
-36.8377
-10.3092
-149.131
-6438.62
-5981.54
-2903.6
-1490.26
-872.265
-3184.43
-2489.02
-5483.97
-5972.17
-3129.61
-2943
-392.541
-597.118
-1005.78
-1558.75
-2206.59
-2850.18
-270.968
-564.944
-1148.11
-1949.61
-2873.07
-3802.71
-305.575
-132.869
-539.181
-334.376
-999.56
-745.03
-1599.37
-1376.99
-2195.3
-2171.21
-2701.28
-2953.03
-3518.3
-4225.13
-5088.75
-7140.64
-7503.28
-9059.01
-4631.01
-5199.66
-5328.62
-5098.92
-4208.4
-3762.81
-354.712
-300.594
-228.38
-142.618
-48.4831
-539.251
-456.662
-346.723
-216.412
-73.5504
-907.676
-768.056
-582.734
-363.545
-123.528
-1405.32
-1187.89
-900.454
-561.449
-190.729
-1986.43
-1676.51
-1269.34
-790.989
-268.658
-2559.5
-2154.94
-1628.96
-1014.57
-344.61
-244.739
-207.313
-157.446
-98.2882
-33.4045
-509.954
-431.64
-327.577
-204.395
-69.4534
-1035.7
-876.015
-664.417
-414.423
-140.803
-1756.98
-1484.56
-1125.07
-701.459
-238.297
-2585.23
-2181.06
-1651.15
-1029.05
-349.58
-3413.64
-2873.56
-2172.58
-1353.82
-460.05
-276.229
-234.14
-177.929
-111.133
-37.7887
-120.115
-101.817
-77.3747
-48.3281
-16.4334
-487.104
-412.634
-313.384
-195.644
-66.5038
-302.119
-255.971
-194.429
-121.392
-41.2653
-902.416
-763.896
-579.758
-361.758
-122.934
-672.747
-569.602
-432.376
-269.822
-91.6953
-1442.44
-1219.65
-924.706
-576.598
-195.874
-1241.99
-1050.23
-796.256
-496.473
-168.644
-1976.71
-1668.53
-1263.24
-787.017
-267.257
-1954.75
-1649.57
-1248.38
-777.425
-263.923
-2425.21
-2040.99
-1541.87
-959.71
-325.833
-2650.01
-2228.42
-1681.49
-1045.3
-354.615
-3146.25
-2638.69
-1990.6
-1239.99
-421.502
-3749.79
-3124.42
-2352.1
-1468.9
-500.77
-4451.89
-3666.9
-2758.25
-1739.17
-597.986
-6088.79
-4918.46
-3721.6
-2414.17
-847.047
-6082.96
-4794.28
-3713.03
-2583.99
-996.658
-7052.35
-5465.36
-4333.16
-3197.21
-1296.92
-4142.31
-3476.01
-2624.51
-1636.45
-556.698
-4625.97
-3865.01
-2915.18
-1821.94
-621.493
-4701.11
-3903.22
-2943.64
-1850.54
-635.032
-4432.39
-3642.13
-2753.16
-1755.65
-610.603
-3556.28
-2876.24
-2195.93
-1450.16
-525.567
-3073.49
-2441.45
-1891.76
-1306.26
-494.326
-415.42
-666.944
-1125.24
-1727.91
-2424.2
-3098.82
-300.651
-655.521
-1301.66
-2163.11
-3131.22
-4070.73
-329.446
-151.243
-612.661
-391.994
-1128.13
-849.594
-1787.88
-1543.52
-2451.22
-2461
-3003.07
-3456.72
-3784.16
-4498.82
-5362.68
-7331.33
-7631.49
-9107.68
-4861.17
-5345.02
-5366.45
-5039.1
-4124.45
-3725.62
-375.488
-318.308
-241.925
-151.121
-51.3818
-602.701
-510.799
-388.15
-242.436
-82.4268
-1016.35
-860.924
-653.917
-408.322
-138.812
-1559.52
-1319.99
-1001.99
-625.464
-212.608
-2185.41
-1847.62
-1401.39
-874.528
-297.267
-2788.12
-2352.88
-1782.8
-1112.48
-378.254
-271.7
-230.295
-175.014
-109.315
-37.1645
-592.238
-501.827
-381.272
-238.118
-80.954
-1175.36
-995.341
-755.868
-471.942
-160.436
-1951.58
-1651.27
-1253.2
-782.242
-265.908
-2821.32
-2384.14
-1807.93
-1128.26
-383.559
-3660.16
-3087.11
-2338.66
-1459.58
-496.399
-297.881
-252.585
-192.02
-119.973
-40.8011
-136.778
-116.003
-88.2044
-55.1182
-18.7474
-553.832
-469.525
-356.885
-222.953
-75.8158
-354.413
-300.526
-228.473
-142.751
-48.546
-1019.33
-863.751
-656.257
-409.858
-139.349
-767.804
-650.762
-494.528
-308.888
-105.025
-1614.28
-1366.86
-1037.85
-647.927
-220.253
-1393.9
-1180.48
-896.458
-559.694
-190.262
-2210.69
-1869.71
-1418.46
-885.204
-300.881
-2219.94
-1877.86
-1424.76
-889.118
-302.199
-2702.63
-2281.16
-1728.53
-1078.5
-366.643
-3112.25
-2627.79
-1991.31
-1242.22
-422.234
-3393.17
-2855.03
-2160.84
-1349.47
-459.344
-4008.55
-3355.68
-2537.81
-1590.42
-543.178
-4719.2
-3913.52
-2962.74
-1876.81
-646.731
-6294.46
-5124.4
-3906.36
-2547.96
-895.784
-6234.32
-4952.45
-3862.7
-2701.42
-1044.25
-7114.93
-5533.53
-4401.05
-3254.45
-1320.53
-4356.41
-3663.96
-2772.73
-1731.94
-589.742
-4765.13
-3991.16
-3017.94
-1889.96
-645.391
-4744.34
-3949.17
-2986.53
-1881.99
-646.681
-4388.31
-3614.54
-2740.92
-1753.61
-611.07
-3488.84
-2826.62
-2165.53
-1436.84
-522.693
-3043.77
-2419.6
-1878.64
-1301.09
-493.419
-18849.9
-14197.5
-4795.54
-3821.62
-3220.26
-4964.91
-3507.56
-13145.8
-14242.1
-11859.2
-13639.7
-7312.4
-11444.1
-5331.17
-5600.18
-3941.57
-21175.4
-11040.2
-3563.5
-5706.8
-8319.23
-5603.33
-6821.49
-5204.23
-2543.14
-4545.1
-3996.01
-4429.82
-18894.9
-12049.3
-12408.4
-7941.38
-8393.32
-8518.93
-4685.63
-5810.26
-5749.97
-12809.5
-12280.4
-10589.9
-10586.8
-9671.96
-10197.5
-7636.03
-6374.42
-5320.64
-2435.27
-4270.68
-3571.98
-2700.17
-1691.94
-577.294
-3429.71
-2887.57
-2185.69
-1364.41
-464.166
-2885.59
-2425.78
-1834.13
-1144.58
-389.556
-4462.39
-3761.65
-2848.03
-1776.69
-604.099
-3140.13
-2637.96
-1994.75
-1245.76
-424.23
-9755.32
-8845.34
-7544.83
-7074.5
-7246.57
-10087.4
-9311.88
-7719.54
-6540.27
-4998.7
-9187.24
-6960.95
-5618.49
-4295.83
-1899.32
-10004.1
-8678.11
-6970.39
-5695.31
-3572.12
-6222.36
-5010.63
-3789.32
-2467.6
-895.94
-9284.7
-7150.23
-5498.03
-3805.04
-1542.16
-4630.59
-3792.44
-2857.2
-1818.86
-637.296
-4846.23
-3956.82
-2981.19
-1903.79
-670.1
-3446.58
-2837.99
-2136.85
-1351.56
-469.229
-15268.7
-13122.5
-11274.2
-10524.6
-9634.7
-8896.19
-6965.76
-5509.93
-4014.77
-1700.75
-3090.06
-2529.52
-1910.72
-1222.83
-430.456
-4960.52
-4075.3
-3090.44
-1985.22
-698.906
-7054.73
-5697.25
-4371.16
-2917.33
-1072.07
-4867.03
-3992.4
-3028.69
-1946.61
-680.328
-6005.92
-4974.08
-3763.29
-2382.17
-816.372
-4604.01
-3831.07
-2894.86
-1822.72
-626.222
-2251.48
-1873.17
-1411.92
-885.468
-303.653
-4052.53
-3392.56
-2562.27
-1602.47
-546.984
-3507.57
-2898.81
-2186.02
-1381.45
-478.239
-3908.57
-3245.66
-2451.72
-1546.52
-533.206
-12887.6
-11722.5
-10207.1
-9990.67
-8969.62
-9084.5
-6903.48
-5653.68
-4486.45
-2027.82
-10305.4
-8606.44
-7034.28
-5581.99
-2511.53
-6620.73
-5127.85
-3993.23
-2770.11
-892.509
-7183
-5783
-4416.57
-2903.1
-992.012
-7110.65
-5493.15
-4280.46
-2971.52
-942.644
-4120.37
-3412.69
-2582.87
-1637.96
-565.659
-5170.62
-4322.13
-3265.04
-2045.33
-698.753
-5033.11
-4152.84
-3141.97
-1998.64
-692.389
-462.546
-1265.35
-1931.74
-2550.35
-3177.72
-3750.95
-2372.52
-6122.51
-5753.26
-2381.43
-6986.46
-6284.33
-7493.57
-10010.4
-1340.87
-173.542
-2536.84
1233
-9919.74
-8250.52
1935.78
-1732.41
-4848.25
-4658.52
-1833.84
-5328.51
-2974.61
-5973.13
-6142.02
-593.916
905.585
-1094.48
3376.78
-6993.48
-4490.81
3775.59
-1073.24
-3309.83
-3411.89
-1263.81
-3335.23
-508.198
-4461.97
-4478.53
-169.808
1097.44
80.503
3548.66
-4306.07
-454.342
4304.46
-720.034
-2370.58
-2758.27
-973.524
-1806.34
816.441
-3769.18
-4227.27
32.2608
797.741
417.555
2983.14
-3275.55
1534.78
4113.15
-622.851
-2228.95
-2639.34
-894.369
-1686.07
535.589
-4004.05
-5459.66
109.023
611.837
525.322
2600.91
-3124.15
1549.76
2864.63
-601.166
-2197
-2574.78
-867.991
-2077.03
-219.983
-3931.52
-5369.33
155.461
957.462
431.197
2701.85
-3622.19
663.934
2142.41
-1321.18
-3142.05
-4189.66
-1706.34
-6453.83
-11536
-6981.73
-12338.9
-1623.49
-1448.2
-5225.59
-4408.69
-2357.43
-9493.65
-4756.08
-1294.24
-3062.11
-3744.78
-1479.32
-6110.72
-9859.48
-6276.57
-9042.78
-1693.77
-1341.84
-5100.79
-4216.02
-1723.3
-8786.01
-4645.82
-1199.17
-2858.66
-3127.22
-1199.75
-5534.66
-8600.84
-5295.57
-8020.78
-1459.41
-1721.37
-4495.7
-5005.91
-2010.83
-7791.37
-5215.91
-1204.78
-3114.8
-2890.58
-1063.24
-5867.49
-8419.59
-5221.4
-7862.11
-1525.53
-2123.32
-4639.55
-6140.42
-2546.92
-8539.7
-6303.84
-1214.06
-3091.37
-2840.88
-1025.72
-5775.43
-9048.14
-5227.71
-8631.11
-1652.17
-2708.6
-4983.08
-7799.15
-3612.48
-10097.1
-8166.71
-1228.12
-3086.2
-2806.42
-1013.11
-5861.32
-9276.18
-5111.26
-8526.95
-1855.28
-3370.96
-5491.05
-8908.92
-4805.18
-11132.2
-9139.32
7294.14
8833.47
18168.5
28339.9
27450.1
53542.6
18975.8
57097.1
19580.3
45787.7
24086
39579.4
18450.3
24344.6
8541.66
8645.57
12921.3
14619.7
17717
16058.9
12315.3
18533.5
18371.6
18388.3
4799.54
3495.76
6475.71
4637.47
11819.9
7661.56
21818.4
15209
18177.6
18438.8
18464.6
18672.6
4249.4
3786.26
42348.1
52368.5
22525.5
30064.8
54594.3
67186
25280.7
31111.1
31718
41468.5
25274.1
35009.7
14531.8
18399.7
2787.46
890.661
3565.97
1242.6
6634.39
2736.07
11504.6
4225.93
7558.59
2510.29
7631.21
2160.77
15027.4
4376.53
19699.5
6176.33
25375.9
14502.4
21464.5
14824.2
26000.1
16746
20632.7
16684.8
16633.2
11990.9
18245.3
11534.1
20859.4
15383.4
21561.9
15793.3
20228.7
17079.2
21022.2
17429.4
17179.4
12720.7
18526.5
13204.1
18323.2
7519.25
10446
11917.6
19702.5
8667.78
10346.6
12454.1
18386.5
7020.47
10953.6
11758.7
19015.6
7068.53
11526.1
11870.6
2692.65
3014.08
953.847
1868.21
8257.84
9679.99
3402.6
6453.44
13454.1
15973.6
6065
10869.7
17587.2
9271.88
17816.5
21375.3
10750.2
6789.12
10865.2
12445.9
21713
13820.1
10061.3
13191.6
14615.7
14144.9
17632.9
2934.59
3007.22
1794.77
1944.91
9420.18
8976.26
6087.21
6167.67
14131.3
12946.5
8976.37
9020.52
9723.82
10870.6
15369.8
16305.4
17129.4
16119.4
20336.1
18673.2
14031.7
13990.6
13088
14235.2
16882.3
15470.2
15890
13334.8
14218.8
11420.2
15792.4
12585.3
14269
7696.45
11198.1
10911.8
15734.2
18328.4
16065.9
20948.6
9440.35
9321.09
12925.3
5903.22
10809.6
17062.2
11169.9
18203.8
16298.3
25673.1
16836.3
26255.2
9142.85
14977.1
9449.95
16220.9
11261
8401.14
14416.9
6515.12
12208
4606.86
13645.8
3351.36
11683.3
12017.5
15089.3
7787.1
10530
13847.9
13853.4
9901.24
2785.14
2591.54
2250.73
1832.01
1794.99
1575.63
8268.51
7140.51
6246.08
5404.59
4527.15
3829.19
10836.7
9199.48
8418.97
7777.18
6269.94
5676.99
9771.9
7941.52
7545.36
15219.9
11350.6
9232.57
13700.3
10053.6
7806.19
15241.6
11953.6
10072.6
11800.6
8031.75
5990.16
18275.2
14879.2
13221.2
13401.5
10618.6
8803.92
11824.2
8887.8
6989.69
10559.8
7888.13
6255.56
11391.1
6825.9
4248.63
11468.2
18700.3
9725.78
13935.4
9311.41
19185.9
7794.18
15732
201.895
1599.95
-200.105
932.019
3521.42
6702.7
2191.62
4047.54
1833.23
3919.39
10992.1
16393.5
8720.75
6480.07
11663.7
10196.2
15650.7
16754.3
-565.346
-5522.12
8386.17
5886.82
6555.63
3778.48
1444.23
941.31
1153.54
713.736
3901.3
1245.18
1933.48
226.842
9971.25
2993.88
7490.34
2317.81
8522.23
2568.18
9658.4
3191.64
12271.3
12167.2
9563.9
12081
18597.6
16782.8
15241.6
15978
7107.54
9357.07
8286.94
8629.13
8966.65
12027.6
9437.73
12154
14562.1
15688.8
15099.7
15815.6
6293.45
9506.07
6104.36
9638.65
824.868
1482.62
7553.22
4267.15
797.84
1250.86
6607.68
3608.14
822.943
1338.05
7988.01
4703.29
1136.3
1462.64
8080.85
4966.91
-169.017
-297.135
453.193
314.023
-849.126
-1375.95
780.316
520.936
1184.75
139.889
2590.74
2274.38
-7684.99
-3903.58
-4511.54
-2982.4
66.7081
-7088.07
-10381.7
-4925.98
-4963.59
46.6509
9382.78
6872.77
5664.83
5858.58
3476
-503.72
-399.761
164.149
266.146
-1482.04
-1653.39
549.613
755.298
-1262.54
-1868.7
1472.62
1792.53
-3113.06
-1625.29
-8061.17
-5718.89
-4303.27
-3093.61
-3887.79
-3232.83
346.504
1122.96
4945.32
3426.21
-487.372
-2215.86
-660.564
-1947.19
429.449
-662.207
897.628
1297.19
4070.81
4512.3
9714.31
6165.19
8641.62
8424.33
12996.7
10162.5
7459.63
4591.2
2531.98
3236.96
11501.4
4858.51
12335
4478.37
14929.6
9788.67
15888.9
9400.64
8988.27
3348.07
9767.75
2893.56
5661.71
4635.05
4347.84
7642.57
2804.83
3739.87
2874.33
6428.67
6235.16
4336.41
5268.99
8770.68
7523.92
4107.31
6213.25
8692.07
-544.426
-699.984
-816.301
154.555
-149.508
-196.279
-2046.85
-2476.24
-2671.05
294.872
-584.444
-715.335
-2489.36
-3542.64
-3995.88
958.766
-1035.83
-1451.9
-884.631
-1436.12
-1293.74
-4422.2
-4747.1
-4405.45
-3460.18
-4060.83
-3931.3
-3674.14
-4619.2
-4780.94
551.762
-1510.71
-1445.22
4026.29
1973.42
1132.33
-1362.06
-2570.35
-2958.46
-1606.72
-2916.58
-3248.24
-965.716
-2567.17
-2903.36
1798.12
-1023.83
-1219.22
71.4093
-5.63969
-32.9384
-69.5317
-100.181
-96.1119
-111.993
-110.584
201.691
-8.17404
-100.54
-202.099
-243.716
-236.388
-261.956
-271.213
407.23
50.0316
-105.254
-310.842
-43.6447