/*--------------------------------*- C++ -*----------------------------------*\
| =========                 |                                                 |
| \\      /  F ield         | OpenFOAM: The Open Source CFD Toolbox           |
|  \\    /   O peration     | Version:  2412                                  |
|   \\  /    A nd           | Website:  www.openfoam.com                      |
|    \\/     M anipulation  |                                                 |
\*---------------------------------------------------------------------------*/
FoamFile
{
    version     2.0;
    format      ascii;
    arch        "LSB;label=32;scalar=64";
    class       volScalarField;
    location    "2.1";
    object      gradTy;
}
// * * * * * * * * * * * * * * * * * * * * * * * * * * * * * * * * * * * * * //

dimensions      [0 -1 0 1 0 0 0];

internalField   nonuniform List<scalar> 
5712
(
12908.3
7092.41
22483.2
14721.5
21651.1
18410.5
31914
39540.5
48580.8
61516
25736.3
22610.8
15845.6
10917.7
10457.1
5953.58
21466.7
19351.4
19404.8
19205.7
24644.1
23633.3
28471.5
24491.2
7595.68
5321.37
3956.26
2736.02
11058.3
7136.52
6130.79
3972.57
21826
23108.1
19574
15944.6
15819.9
12360.5
13404.1
12798.8
17911.4
17598.6
36478.8
40172
26126.9
27625.1
18858.1
14843.1
19248.3
13514.6
8177.06
7058.13
6110.3
9089.25
3039.69
4135.28
8100.46
12126.8
5091.11
6970.96
8262.21
14527.6
6303.03
10350.4
1969.82
6950.61
343.609
4974.22
18367.7
22112.4
19286
21895.2
23197.7
23620
23657.7
23057.9
17187.3
20779.4
17175.3
20485.7
19328.1
21730.6
18968
21584.7
23840.7
22729.2
23847.5
22542.2
16140
20812.8
14721.5
20717.5
17738.7
18990.6
22341.2
31278.5
18572.3
21910.7
22218
34170.8
16786.6
16828.4
22221.2
29701.3
16135
15456.4
22187.8
28928.1
4506.33
5693.71
12282.4
20030.5
5407.18
6057.59
15192.1
22476.5
6441.9
6711.45
18573.7
25339.9
25078.8
27850.3
21101.6
19289.1
26233.9
28381.5
24527.7
21116.4
17821.2
29684.1
26011.6
23946.3
20068.4
20581
38575
1622.27
2137.17
4360.4
8976.97
2299.97
3193.64
5786.24
10481.5
3465.71
3347.68
7757.68
12474.9
27711.5
27711.2
22968.3
22038.8
19326.3
17238
14088.2
12503.1
10877.4
16164.8
24502.9
22190.8
22597.6
21258.9
19041.8
17644.2
16367.4
14498.8
12945.1
17704.3
23200
24714.8
23999.1
26356.4
23428.7
21660.4
23752.9
22782.7
20939.5
21180.8
20653.8
20539.1
24399.4
26989.8
24202.3
26709.6
24044.4
23720.8
23749.1
23525.4
20739
21014.6
20988.6
21160.3
17950.9
17747.6
12321.1
14703.4
18109.2
17482.4
12683.9
15217.4
17452.8
17489.9
12167.9
14713
17603.3
17291.2
12048
14356.2
1845.63
1508.08
1114.9
1026.82
884.572
872.75
2764.08
1964.79
1537.83
2391.67
2141.05
1857.54
2941.32
2851.91
3034.73
4321.81
3765.75
3451.57
26480.1
23614.5
21613.2
22044.5
20702.6
19582.6
15056
14429.4
14098.9
10674.6
10128.9
9892.78
7028.09
5197.43
4247.86
20934.1
19328.6
18169.2
20885.6
19484.4
18664
15551.1
13848.8
12915.8
11194.3
9884.69
9292.86
7414.27
5482.77
4484.04
28482.5
29529.9
30309.3
27842.8
27812.4
27805.7
33176.9
28581
18176.7
19998.3
18116.7
17857.4
24120.9
21214.2
23592.9
18638.5
26020.2
27152.2
22270.9
25001.7
29192.4
25642.5
28952.5
30049.8
30662.3
32854.6
24913.1
25544.6
21640.9
21319.4
24738.5
23881.6
16707.6
9537.73
15623.3
10547.4
16215.6
9340.02
15043.1
10215.8
14819.2
8641.63
13965.4
9705.79
13716.8
10081
13170.4
10066.7
22730.4
17963.6
22249.1
18062.7
25403.7
22757
25448.6
22357.3
20523.8
14228.2
21347.6
13771.4
22654.6
18107.8
23248.8
18062.7
26031.8
22199.4
26459.7
22091.7
19954.6
14395.1
19801.1
14389.1
12217.1
8444.45
10803.6
6891.3
11292.2
7554.94
10118.8
6310.29
12489.7
8953.45
11103
7219.34
12560.5
9290.76
11179.1
7415.14
2702.37
1465.59
5048.47
2856.06
2792.51
1688.51
5115.09
3146
3037.01
2250.72
5062.43
3614.87
13605.7
22749.5
8821.16
7981.3
5692.57
23284.9
14995.4
8411.04
7470.49
4430.94
22455.6
16266.9
11920.5
8717.5
5381.14
1044.89
1010.64
1972.37
1843.34
1298.27
1016.39
2384.91
2172.35
1829.91
1607.47
2886.46
2593.41
23637.5
22598.9
15072.8
13764.8
9459.44
9075.62
7239.43
6920.75
4081.27
3692.42
20610
17702.9
15030.1
12929.7
11227.2
10208.6
7944.73
7612.77
4983.95
5552.75
14208.9
11238.6
14335.3
10587.2
18142.5
13435.2
18397.4
13195.3
11672.2
9390.38
11556.4
10027.8
14795.4
10085.8
14910.1
10189.5
19280.2
13533
19219.6
13626.4
11743.7
8810.49
11927.7
9166.97
8332.41
7609.64
5504.7
7334.28
8452.88
7981.95
5602.66
7239.42
8296.5
7390.28
5350.74
7656.45
8723.12
7452.51
5567.19
7569.97
2354.15
1881.35
1473.24
8770.68
4317.59
3311.39
2172.18
2026.35
1721.75
9192.02
5029.8
4054.96
2683.63
2838.89
2841.95
9677.51
6199.17
5426.63
20274.1
18313.3
16938.9
12909.4
12078.8
11536.1
9308.21
8894.51
8672.17
8115.5
7635.55
7425.28
11132.8
8094.18
7236.81
15037.6
13451.1
12401.2
11383.1
10338.1
9731.86
9956.99
8924.93
8202.03
9465.77
8404.33
7837.42
14360.4
10078.3
9174.64
5158.06
3094.64
2224.32
1999.09
5774.53
3333.07
2312.62
2051.33
5008.32
3048.19
2217.99
2022.49
5733.79
3342.26
2337.99
2069.02
4741.04
2982.8
2241.55
1998.64
5575.76
3373.37
2404
2042.14
5847
3509.7
2417.55
2152.4
6010.62
3655.8
2512.77
2230.46
5045.26
3159.34
2326.52
2028.74
4095.31
2781.72
2174.28
1906.27
4380.01
2862.98
2221.56
1868.66
3679.56
2585.26
2081.54
1815.2
5440.53
3377.07
2410.38
2126.34
4354.8
2936.63
2243.41
1964.49
5667.28
3533.31
2489.93
2174.79
4504.64
3052.49
2307.97
1989.8
3914.72
2693.85
2087.3
1888.39
2603.66
2217.76
1908.99
1741
3795.19
2652.7
2084.93
1888.34
2585.69
2211.76
1906.92
1749.98
3611.42
2590.57
2088.5
1878.12
2653.99
2242.1
1912.31
1781.92
3416.66
2493.91
2049.38
1869.55
2676.46
2248.93
1945.9
1785.95
3136.54
2392.24
1966.27
1747.71
1174.4
1768.09
1529.51
477.943
-492.248
1520.47
1342.59
456.97
1340.14
1830.43
1556.93
504.488
-241.523
1593.3
1364.79
464.923
1606.78
1924.33
1582.25
501.922
146.754
1710.38
1391.43
467.208
1978.3
2041.08
1621.82
534.283
597.039
1854.41
1436.18
484.293
2499.09
2198.3
1692.99
597.303
1049.41
1991
1480.16
498.282
2852.42
2384.33
1737.72
559.567
962.688
2145.81
1573.55
518.842
2801.9
2302
1699.28
562.055
1023.37
2086.63
1523
505.54
2832.66
2445.22
1773.6
527.261
852.765
2200.14
1612.31
519.712
2818.61
2523.15
1843.13
543.205
1005.76
2279.7
1666.54
533.854
1847.08
1394.22
960.188
559.103
183.293
1852.75
1396.09
961.408
559.762
183.497
1880.14
1405.8
965.468
561.48
183.976
1880.85
1409.61
968.154
562.911
184.417
1899.93
1418.27
971.339
564.13
184.736
1889.65
1428.63
978.343
567.799
185.869
1954.71
1454.73
992.834
575.05
188.066
1989.76
1479.21
1007.38
582.468
190.325
1952.02
1444.32
984.749
570.612
186.678
2002.99
1451.8
986.08
570.888
186.723
1916.39
1431.78
977.545
566.951
185.552
1988.36
1443.96
981.687
568.666
186.038
1978.18
1459.01
993.471
575.09
188.051
2026.61
1466.18
994.53
575.22
188.054
2002.06
1484.6
1009.23
583.182
190.525
2054.42
1490.98
1009.85
583.13
190.484
1841.93
1392.71
958.929
558.392
183.071
1866.88
1393.33
958.264
557.969
182.937
1863.83
1402.02
962.964
560.14
183.561
1887.03
1401.73
961.826
559.495
183.364
1896.87
1414.5
968.217
562.421
184.201
1928.62
1413.79
966.72
561.598
183.952
1945.81
1428.3
974.055
565.02
184.94
1971.27
1425.3
971.961
563.961
184.614
1975.52
1437.15
978.2
566.955
185.51
8694.06
13460.9
9157.09
13826.2
9926.07
14422.7
10844.6
15479.9
11853.4
17298.7
10904.8
13454.8
11215.7
14445.4
10838.4
13277.4
10706.5
13233.6
6982.09
1250.54
275.217
61.88
10.9106
8309.7
2295.76
559.225
126.893
22.1788
7142.58
1234
266.57
59.3882
10.4119
8476.91
2307.96
554.967
124.297
21.6491
7434.57
1236.7
260.499
57.2708
9.97331
8800.88
2344.34
553.528
122.509
21.1859
7785.58
1234.15
253.435
55.1748
9.57988
9217.76
2389.98
555.589
122.067
21.0468
8072.89
1229.53
250.829
54.8839
9.58861
9595.75
2427.76
563.528
124.469
21.5823
7825.78
1416.47
320.644
74.5443
13.4877
8810.25
2513.89
630.226
147.203
26.4964
7969.49
1344.04
289.912
65.3485
11.6064
9145.77
2487.18
599.826
135.926
23.9741
7748.73
1464.14
340.982
80.8942
14.8304
8703.15
2530.84
648.041
154.319
28.1824
7695.77
1442.56
337.416
80.7038
14.8938
8642.77
2509.72
647.07
155.298
28.5185
35692.3
49686.5
44478.3
33566.5
18775.2
19709
29912.3
29994.2
20180.9
21546.6
32158.3
42824.7
47525.6
64499.6
24234.2
26610.5
19592.1
19099.8
13586.9
13964.8
4140.55
2937.04
785.958
616.621
739.248
633.52
771.628
4131.77
4215.31
2704.79
3609.45
3260.37
1529.51
2144.17
1868.11
1268
1437.61
1200.06
3595.95
2127.25
1364.98
1255.13
1538.65
1331.93
1043.55
1048.77
984.367
884.269
1138.6
1067.47
3691.92
2376.53
2524.7
1767.52
1487.8
2075.34
1076.17
862.597
1194.97
8738.36
9131.41
9414.42
11628.1
20250.6
6610.47
7581.8
8300.18
9777.29
11485.3
2071.06
2966.97
3655.64
4130.9
4377.28
1635.09
2364.01
2932.96
3324.65
3525.44
1954.74
2813.25
3474.18
3923.57
4152.12
1679.8
2427.92
3010.05
3408.63
3611.88
2036.43
2923.18
3604.41
4070.09
4308.84
9132.16
9856.59
9827.5
11170.7
18283.4
9014.79
9423.06
9409.41
10228.1
12280.1
6259.18
7360.27
7910.59
8702.21
9559.96
7862.39
8458.21
8500.55
8893.25
9796.84
7201.86
7919.03
7969.36
8247.99
8816.33
3825.41
5075.68
5895.42
6469.4
6808.83
5112.63
6313.91
6977.13
7543.45
7992.99
4540.58
5757.26
6445.79
6932.84
7245.79
3243.08
4443.46
5275.95
5830.88
6126.14
3620.44
4846.99
5652.38
6188.7
6483.72
3087.74
4266.13
5092.95
5636.37
5917.21
8139.84
9108.23
9351.39
10901.4
17983.8
5133.66
6432.84
7239.18
8086.22
8814.42
3470.68
4717.29
5583.16
6192.85
6541.46
3219.51
4433.2
5302.12
5916.01
6260.88
3863.68
5155.25
6042.91
6734.64
7181.78
3405.31
4663.57
5566.42
6233.36
6619.69
2713.97
3813.64
4636.3
5219.08
5534.09
2729.27
3838.1
4661.18
5230.56
5533.07
2573.2
3639.87
4429.07
4955.62
5223.51
2323.21
3311.6
4057.09
4560.23
4816.93
2944.41
4100.75
4933.74
5494.68
5789.36
2774.88
3895.12
4718.75
5280.02
5575.26
8093.72
8808.32
9128.89
11037.3
18634
5570.8
6760.06
7597.24
8768.9
9947.03
6327.96
7784.59
8412.83
9799.02
11306.8
4398.04
5759.16
6702.37
7591.88
8199.08
3772.72
5091.98
6026.5
6773.18
7224.58
5101.16
6452.18
7275.07
8223.54
8864.42
2794.98
3919.3
4753.94
5340.06
5656.18
2266.46
3232.13
3964.54
4464.26
4721.87
3079.9
4270.36
5135.44
5747.01
6085.13
19130.6
12456.7
20276.8
15305.5
24502.7
34669.6
26127.4
36135.6
21196.9
20761.6
18718
19426.3
22370.5
22225.1
27475.1
23570.3
14690.6
12881.3
6573.43
5192.96
17130.6
13638
9114.13
6094.01
22056.1
24287.5
20231.7
18028
21071.6
14085.3
13259.9
12803.3
17959
17613.2
36387.7
40190.9
25717.5
27521.9
19303.9
14966.1
19769.6
13619.1
8603.83
7139.31
13522
16180.3
5474.98
6616.05
14500.2
18095.3
7369.08
9291.46
12666.9
18390.9
7922.41
12138.7
2241.18
7584.86
362.578
5097.99
18791.1
20659.1
19061.6
21110.4
21709.6
21620.8
22712.9
21958.1
17684.8
20446.4
18956.9
19865.1
19167.5
21328.3
18910.3
21453.4
23362.9
22168.3
23711.8
22361.7
16279.6
20633.8
14738
20656.4
18298.6
20051.2
22455.3
31615.9
19534.8
23908.6
22468.7
34894.4
17040.9
17309.3
22259
29846.4
16201.3
15585.4
22193.8
28969
18059.8
20610.2
23745.9
33479.4
17239.3
18628.3
24515.6
33231.2
15060.3
15569.9
24692.2
31887.1
18985.4
20905
19389.4
19826.8
29142.1
20508
17917.4
20429.9
18381.8
33175.7
20735.2
19741.9
18318.9
20999.8
39963.7
13045.2
12524
10830.3
13548.9
12704.5
12322.6
11057.7
14041.1
11686
10672.9
10933.5
14130.9
20111.8
19567.7
17410.7
16658.1
18605.1
17142.2
14709
13119.2
12131.4
16116.3
19995.6
18748
19060.9
18619.1
17400.3
16257.5
16368.8
14169
13068.4
16677.8
21275.6
22941
22902.9
25258.6
21206
19970.2
22539.2
21819.7
20268.7
20436.5
19525
19362.5
23871.5
26483.5
24044
26559.1
23469.1
23292.5
23578.8
23398.7
20398.3
20636.3
20884.7
21049.7
17659.3
17323.6
12241.6
14481.7
17739.9
16881.8
12662.8
14876.3
17283
17252.7
12102
14577.9
17545.4
17215.2
12021.6
14308.6
12142.1
13135.3
4677.16
4803.28
11829.3
11937.3
5366.73
5585.53
9556.61
9318.05
5857.32
5700.21
19073.7
18135.6
17145.2
16942.6
15335.8
14857.5
11265.4
10357.3
7397.01
5751.67
18619.8
17837.5
19358.5
18412.4
14736.6
13455.2
11038.5
9887.17
6720.35
5224.65
23813
23794.5
28077.4
25159.8
25209.2
24370
32950.4
27091.2
19418.1
15263.2
20771.6
16349.6
20299.1
15311.6
21638
16315.5
22462.7
20792.5
19739.4
19177.2
21004.2
22282.1
27637
29655.3
29862.2
32611.1
23220.6
25014.2
20524.2
21003.3
22975.6
23357
12808.3
10266.4
13812.1
10647.1
12460.9
9987.03
13461.3
10323.9
11833.7
9200.45
12704
9719.29
12980.6
10013
12950.6
10032.9
18702.2
16696.2
20343.3
17190.7
22187.1
20556.4
23872.2
21110.1
18600.4
13857.6
17360.3
13511.7
21722.5
17614.4
22970.1
17897.6
25248.3
21550.7
26228.3
21881.2
19036.7
14137.5
19536.5
14294.9
11740.2
8740.96
10930.8
7313.82
11046.8
8454.9
10694.8
7217.83
12152
9036.02
11106.2
7416.67
12440.9
9298.53
11175.9
7487.13
11189.2
11668.2
9525.86
9185.99
10685.3
11301.2
9181.92
8848.57
10009.7
10475.8
8336.26
7936.8
16591.9
20654.1
14637.3
10331.7
8044.24
20110.9
17707.5
16173.5
10525.1
7597.72
20116.3
16557.7
13444.1
10799.3
7231.52
13392.7
16080.2
9842.35
11304.7
12606.1
14544.4
9224.58
10406.5
11211.7
12311.8
7835.46
8197.95
19486
18193.3
15957.8
14989.8
14741.9
15288.1
10872.1
11682.8
7463.19
7570.46
18139.4
15628.3
14946.4
12974.3
12741.7
11982.7
10291
10307.3
6879.87
7792.47
13832.6
11314.7
14089.9
10697.6
16723
12640.6
17595
12826.3
11883.3
9841.63
12020.7
10842.8
14626.4
10131.6
14849.2
10197.9
18868.6
13365.6
19093.3
13577.5
11783
8983.72
11909.1
9201.5
8767.7
8230.52
6002.95
8154.93
9413.31
9209.59
6638.29
8777.07
8457.57
7651.64
5577.21
8076.44
8779.15
7537.43
5660.69
7705.44
21147.4
22256.4
26270.8
21860.4
18350.9
19353.4
24613.1
20596
14945.3
15706.9
21270.7
18129
16975.3
16089.9
14806.2
14575.1
16040.9
16278.1
13728.1
13419.1
20088
17503.3
13433
12958.4
11901.9
11898.2
12299.3
12211.6
13106.6
12686.8
21222
17670.7
6562.15
4057.55
2812.64
2437.36
6760.89
4142.59
2848.82
2463.85
6289.47
3947.03
2754.43
2427.8
6577.93
4051.25
2802.25
2430.71
5835.48
3781.96
2703.41
2338.69
6203.97
3942.72
2793.13
2336.52
6207.71
3869.83
2695.42
2367.59
6127.7
3779.63
2605.07
2305.71
5620.05
3620.2
2635.77
2275.02
4606.06
3181.93
2426.16
2106.92
5344.28
3534.82
2622.13
2160.94
4517.56
3190.43
2426.84
2062.4
5743.89
3643.43
2598.24
2282.17
4631.26
3162.52
2402.56
2103.1
5757.5
3622.81
2557.25
2230.81
4595.41
3126.44
2364
2037.51
6138.12
3885.22
2752.58
2353.42
5458.08
3618.39
2652.79
2218.94
5821.13
3781.98
2709.87
2326.95
5152.17
3534.6
2616.34
2212.46
5355.96
3621.28
2657.14
2275.43
4731.65
3405.89
2548.18
2206.84
4869.97
3381.33
2525.43
2194.39
4423.44
3278.27
2491.29
2141.3
4375.75
3182.07
2399.98
2011.4
4267.73
3269.42
2229.88
645.196
2157.94
3036.3
2050.2
644.671
4082.35
3233.36
2223.95
670.126
2127.42
3007
2039.3
646.173
3809.15
3154.15
2174.52
647.088
2050.05
2948.39
1997.68
630.956
3780.63
3087.1
2156.15
675.182
2190.16
2896.13
1965.55
630.835
3810.3
3010.95
2141.53
728.021
2303.25
2815.34
1917.56
624.108
3296.99
2773.94
2045.68
673.228
1227.15
2520.93
1823.73
599.512
3607.51
2896.51
2091.62
688.536
1617.59
2667.53
1866.03
608.863
3045
2661.71
1969.1
603.646
937.614
2405.54
1763.35
570.312
2871.19
2591.41
1908.92
569.362
1019.16
2343.48
1716.08
550.743
2189.17
1597.93
1073.05
614.971
200.084
2172.43
1592.03
1071.03
614.19
199.869
2206.65
1595.18
1069.68
612.971
199.444
2169.84
1585.09
1065.91
611.387
198.995
2201.8
1590.72
1065.65
610.663
198.712
2124.37
1570.11
1057.03
606.824
197.607
2106.5
1543.05
1042.3
599.684
195.486
2046.76
1513.71
1026.86
592.2
193.262
2159.32
1567.54
1053.09
604.494
196.869
2211.83
1575
1054.11
604.578
196.854
2184.78
1584.64
1061.01
608.138
197.924
2251.05
1585.91
1058.92
606.775
197.487
2118.25
1547.58
1043.36
599.939
195.536
2162.71
1554.73
1044.6
600.171
195.57
2049.17
1514.6
1026.32
591.741
193.111
2100.54
1522.18
1027.79
592.128
193.207
2215.5
1606.21
1075.55
615.875
200.327
2278.51
1613.95
1077.23
616.427
200.472
2227.63
1605.65
1073.4
614.466
199.862
2290
1613.78
1075.45
615.229
200.075
2246.32
1604.13
1070.23
612.518
199.229
2316.1
1612.66
1072.55
613.434
199.49
2275.24
1599.69
1065.93
610.15
198.481
2334.33
1606.02
1068.18
611.142
198.763
2277.93
1593.11
1062.28
608.341
197.935
11021.2
14754
10986.6
14728
11028
14732.2
11413.2
15345.8
11934.9
16686.1
10864.3
13321.8
11203.8
14211.4
10801.5
13196.8
10693.6
13208
7910.3
1371.26
295.907
65.7554
11.5147
9153.89
2494.07
600.128
134.85
23.4158
7909.12
1333.3
283.747
62.645
10.9236
9141.07
2470.87
589.315
131.052
22.7114
7940.51
1303.51
272.473
59.6192
10.3505
9185.09
2451.48
577.573
127.435
21.979
8041.64
1268.25
260.019
56.561
9.81266
9341.52
2440.75
568.847
125.03
21.548
8128.65
1238.54
253.177
55.4811
9.6992
9519.46
2436.81
568.394
125.819
21.8349
7793.42
1410.93
319.786
74.4438
13.4816
8749.28
2501.58
628.262
146.963
26.4788
7953.49
1341.89
290.024
65.4935
11.6446
9067.32
2478.51
599.758
136.21
24.0542
7722.11
1459.32
340.08
80.7413
14.8108
8662.77
2521.33
646.146
153.994
28.1399
7686.08
1440.76
337.056
80.6366
14.8842
8629.16
2506.36
646.35
155.162
28.4993
35260.7
49569.3
44221.7
32285.3
24156.2
28688.4
23978.2
28715.3
26945.8
41887.3
29059.1
45571.8
189.487
205.486
241.17
298.316
378.057
481.917
202.997
218.881
254.065
309.694
387.074
488.214
178.477
172.98
194.722
189.168
231.443
226.065
292.074
288.782
377.244
380.203
490.284
505.944
610.56
779.899
1019.52
1384.4
1746.16
2037.94
616.517
779.087
983.606
1224.83
1449.02
1598.97
507.356
744.309
935.212
1068.89
1137.7
549.976
806.363
1012.63
1156.89
1231.08
645.063
944.809
1185.33
1353.19
1439.4
797.082
1165.6
1460.15
1665.12
1770.25
1008.56
1471.35
1839.26
2094.43
2225.12
1282.57
1864.48
2323.8
2641.37
2804.03
543.375
796.846
1000.9
1143.68
1217.14
585.639
858.261
1077.38
1230.5
1309.21
679.272
994.322
1246.81
1422.88
1513.28
827.039
1208.48
1512.93
1724.68
1833.27
1031.91
1503.98
1878.75
2138.69
2271.94
1298.23
1885.11
2347.82
2668.15
2832.64
477.923
701.277
881.355
1007.52
1072.48
463.208
679.737
854.382
976.775
1039.79
521.253
764.47
960.308
1097.36
1167.86
506.408
742.788
933.211
1066.51
1135.09
619.178
907.228
1138.58
1300.15
1383.15
604.841
886.377
1112.63
1270.69
1351.89
780.594
1141.93
1430.99
1632.2
1735.39
771.875
1129.38
1415.51
1614.74
1716.89
1006.61
1468.95
1836.64
2091.56
2222.01
1014.51
1480.48
1850.99
2107.73
2239.03
1304.97
1897.24
2364.43
2686.9
2851.74
1346.38
1956.67
2437.26
2768.23
2937.08
1618.8
2340.44
2904.65
3294.38
3494.88
2054.47
2943.25
3629.18
4106.03
4355.33
2653.78
3738.53
4560.48
5149.11
5471.69
3524.38
4811.34
5763.57
6515.77
6979.62
4321.63
5688.5
6695.75
7619.27
8299.8
4932.34
6304.88
7323.51
8399.99
9288.76
1633.07
2358.29
2925.11
3317.86
3520.86
2051.56
2938.35
3624.08
4102.8
4354.39
2567.41
3632.98
4446.91
5027.23
5343.07
3158.77
4397.37
5332.58
6028.73
6431.3
3689.21
5050.86
6073.73
6879.94
7382.76
4034.84
5461.62
6534.02
7419.72
8001.72
192.329
214.14
256.225
320.629
408.532
521.292
205.903
227.704
269.222
331.715
416.359
524.674
181.245
175.702
203.234
197.568
246.428
240.933
314.78
311.579
409.05
412.461
533.666
552.548
658.018
832.693
1071.6
1424.23
1769.33
2044.87
658.884
824.453
1027.05
1259.97
1471.39
1606.53
514.975
755.546
949.438
1085.25
1155.17
573.267
840.821
1056.31
1207.17
1284.81
685.615
1004.9
1261.64
1441.17
1533.51
857.297
1255.1
1574.15
1796.9
1911.39
1091.03
1594.49
1996.86
2277.29
2421.41
1389.56
2025.28
2530.94
2883
3064.19
551.183
808.388
1015.53
1160.54
1235.15
609.405
893.471
1122.07
1282.01
1364.29
720.134
1054.96
1323.91
1511.88
1608.53
886.505
1296.97
1625.78
1855.24
1973.19
1111.19
1622.44
2030.46
2314.84
2461.09
1397.29
2034.01
2539.66
2891.98
3073.65
485.352
712.233
895.211
1023.44
1089.47
470.513
690.507
867.995
992.409
1056.47
544.141
798.293
1003.13
1146.61
1220.46
528.985
776.131
975.4
1115.01
1186.88
659.521
966.954
1214.35
1387.43
1476.47
644.853
945.579
1187.69
1357.12
1444.27
841.851
1232.94
1546.86
1766.09
1878.76
833.368
1220.72
1531.79
1749.07
1860.73
1092.71
1597.59
2001.38
2282.8
2427.36
1101.92
1611.27
2018.73
2302.7
2448.52
1422.99
2074.92
2593.72
2954.76
3140.37
1473.44
2148.64
2685.9
3059.57
3251.55
1748.57
2537.36
3160.78
3595.47
3820.48
2200.41
3168.36
3926.51
4459.91
4740.68
2800.9
3972.32
4877.56
5534.61
5896.58
3642.76
5010.75
6046.61
6873.18
7382.51
4395.87
5821.97
6893.02
7878.18
8601.01
4956.51
6351.08
7394.16
8496.21
9403.79
1748.82
2533.76
3153.13
3585.74
3810.44
2176.55
3130.26
3876.55
4402.38
4680.08
2688.74
3822.87
4701.19
5333.34
5678.64
3258.98
4558.52
5553.47
6299.88
6732.07
3754.58
5158.9
6225.04
7069.31
7595.69
4057.33
5499.53
6587.9
7488.12
8079.42
4126.66
2938.97
849.902
670.857
819.242
699.025
846.469
3882.14
3779.09
2658.29
3153.1
1600.63
2120.58
1367.77
1536.59
1297.88
3502.32
2163.68
1451.97
1343.19
1613.67
1406.98
1110.79
1133.17
1099.76
988.235
1238.85
1162.49
3655.94
2393.12
2521.68
1809.93
1548.71
2113.02
1152.64
948.691
1278.95
8738.04
9177.15
9507.53
11808.5
20612.9
6630.9
7636.32
8393.28
9920.34
11672.4
2248.47
3242.14
4021.03
4567.53
4853.76
1783.57
2589.85
3227.45
3671.58
3901.03
2175.82
3154.43
3925.44
4461.42
4738.35
1859.32
2701.49
3367.55
3830.7
4069.45
2243.93
3244.8
4031.24
4579.93
4865.11
8956.6
10321.3
10982.5
13195.8
22007
8781.69
10237.4
11161
13161.3
16746.2
6394.43
7989.72
9101.1
10496.3
11846.2
7788.92
9595.59
10561.1
12090.1
14174.1
4113.15
5686.74
6864.69
7768.55
8323.63
5289.09
6976.23
8177.07
9272.84
10113
3565.34
5033.49
6154.11
6964.64
7418.08
3971.66
5538.49
6718.68
7597.55
8114.01
3397.89
4826.85
5923.71
6705.07
7131.11
8114.93
9447.08
10108.6
12188.3
20366.4
5335.06
6924.13
8069.32
9262.11
10243.5
3757.29
5250.7
6384.63
7235
7734.4
3490.02
4906.41
5989.77
6792.4
7252.78
4118.21
5640.73
6784.92
7715.36
8317.98
3635.39
5065.18
6150.22
6979.3
7465.17
2906.69
4125.71
5066.09
5747.32
6119.63
2973.01
4236.75
5214.39
5913.51
6291.93
2901.53
4167.2
5151.47
5840.83
6204.13
2613.77
3767.28
4668.98
5298.84
5628.16
3246.77
4619.81
5677.89
6432.69
6843.48
3052.52
4355.54
5363.89
6081.32
6468.51
8110.25
8975.62
9446.53
11582.3
19713.4
5648.22
6930.42
7871.34
9158.53
10430.3
6430.51
8111.55
8992.55
10682.1
12439
4540.71
6027.24
7109.51
8134.36
8827.12
3964.09
5432.84
6528.53
7422.9
7965.49
5278.61
6850.06
7925.71
9137.34
9953.19
3016.31
4282.16
5258.46
5964.14
6350.44
2507.63
3611.36
4474.36
5079.45
5397.04
3331
4697.62
5745.51
6515.7
6949.32
8862.79
8260.31
7305.72
6082.4
4431.56
1732.83
19190.2
20423.7
21875.8
22522.1
20701.6
20957.7
21067.2
21611.6
16734
19187.7
18948
19161.1
25247.8
17535.3
27388.4
18091.4
19389.2
20560.7
20804.3
19911.6
21121.6
20154.7
21302.9
17269.8
25407.8
19461.2
24722.2
26150.9
21347.3
31622.6
16862.1
17980.9
18724
18598.8
18796.1
20506.9
18807.8
20591.3
19497
24562.3
21881.7
24208.5
27307.9
23948.8
30406.6
15662.4
16698.2
16972.4
16637.5
17807.2
20077.2
17438.3
19794.1
17729
22621.3
19757.8
21503
24051.4
21154.8
27364
14475.1
15534.3
15596.7
15204.5
16919.1
19594.5
16097.1
18361
15717.6
18415.7
17769.3
17235.2
20993.5
17929.8
22040.2
13340.5
14372.9
14498.2
14098.1
15519.8
17694.2
14999.4
16941.6
13568.1
14856.1
15524.7
14412.9
18464.8
15128.7
19232.4
22148
22281.6
23013.5
24030.6
22874.9
23552.3
22070.9
22881.5
19068.9
12245.6
20221.5
12080.3
20335.1
16800.4
17361.9
21178.8
21621.5
21397.6
21909.7
22236.5
23004.9
20893.8
21874.3
16974
12240.3
17758.8
11951.5
17610.7
15834
16102.3
18604.2
19071.5
19148.5
19203.2
19835.4
20489
19142.5
20468.1
15670.9
12927.9
16573.7
12321.1
17077.2
14326
16648.3
16120
16736.9
17048.1
16818.5
17711.8
18387.4
17569.7
19013.6
13821.5
13890.8
14787.7
13055
15424
13000.6
17439.8
14465.7
15219.4
15510.6
15197.4
16334.9
17562.3
16057.7
17390.1
12851.5
15227.9
14214.4
15092.6
15536.6
14238.4
19683.2
13013.2
13864.2
14336.7
13986.1
15459.3
17148.4
14899.9
16458.3
12494.7
16367.2
14295.5
16995.1
16207.7
14964.8
21810.5
12623.7
6805.49
22466.4
14679.3
21646.7
18395.6
31908.4
39529.5
48575.7
61499.3
25742.2
22600.8
15851.7
10896.7
10103.5
5625.94
21461.8
19348.7
19399.3
19203.3
24640.4
23631
28466.7
24489
7419.97
5230.02
3832.46
2680.37
11050
7129.91
6131.51
3977.03
21820.9
23101.9
19571.2
15942.5
15816.4
12361.3
13402.4
12798.2
17910.1
17597.9
36476.7
40170.8
26125.5
27624.1
18857.7
14843.2
19247.8
13514.4
8177.02
7058.14
6004.6
8913.47
2972.23
4025.84
8104.72
12137.6
5100.67
6984.05
8264.77
14532.8
6306.79
10355.2
1970.35
6952.34
343.607
4974.79
18366.4
22111.7
19285
21894.6
23196.4
23619.1
23656.5
23057.3
17187.2
20779.2
17174.4
20485.4
19327.4
21730.1
18967.5
21584.3
23839.8
22728.7
23846.7
22541.7
16139.8
20812.7
14721.3
20717.5
17739.2
18992.6
22341.7
31279.6
18572.8
21913.3
22218.6
34172.1
16787
16829.6
22221.6
29702.1
16135.3
15457.3
22188.1
28928.8
4449.16
5649.92
12109.1
19875.9
5416.34
6067.65
15206.8
22495.4
6445.67
6715.25
18580.2
25345.7
25077.6
27849.4
21100.1
19289.6
26236.9
28380.5
24526.5
21114.4
17821.7
29687
26010.8
23945.5
20067.9
20581.9
38576.8
1596.9
2106.67
4305.8
8902.47
2309.39
3198.98
5798.16
10492.7
3469.04
3350.13
7762.74
12479.3
27710.7
27710.6
22967.4
22038.2
19325.1
17237.2
14089.1
12503.9
10879.9
16166.9
24502.3
22190.3
22597
21258.6
19041.6
17644.1
16368
14499.3
12946.2
17705.2
23199.6
24714.5
23998.8
26356.2
23428.2
21660
23752.5
22782.5
20939.4
21180.8
20653.7
20539
24399.2
26989.6
24202
26709.5
24044.1
23720.6
23748.8
23525.2
20738.9
21014.5
20988.6
21160.2
17951.1
17747.7
12321.4
14703.6
18109.5
17482.6
12684.4
15217.8
17453
17490
12168.1
14713.2
17603.4
17291.2
12048.2
14356.3
1809.68
1480.03
1095.88
1014.59
875.328
865.914
2766.42
1966.59
1540.27
2396.66
2145.3
1861.67
2942.61
2852.99
3035.79
4323.75
3767.38
3453.32
26479.5
23614.1
21612.9
22044
20702.3
19582.5
15055.7
14429.2
14099
10675
10129.2
9893.22
7029.06
5198.18
4248.6
20933.7
19328.3
18169
20885.3
19484.3
18663.9
15551
13848.9
12915.9
11194.7
9884.96
9293.17
7414.68
5483.11
4484.38
28487
29532.1
30313.2
27844.4
27810.2
27804.8
33173.7
28580
18033.5
19963.8
17937.2
17814.5
24143.2
21208
23619.7
18631.9
26025.8
27158.6
22273.2
25004.3
29192.2
25642.3
28953
30049.7
30661.5
32853.8
24915
25545.2
21641.8
21319.6
24739.2
23882.1
16690.7
9517.87
15603.2
10531
16212.6
9340.8
15040.4
10215.8
14818.3
8641.63
13964.7
9705.63
13717
10081
13170.7
10066.9
22731.2
17963.6
22249.6
18062.6
25403.2
22756.6
25448.1
22356.9
20524.3
14228.4
21348.1
13771.6
22654.7
18107.6
23248.7
18062.5
26031.2
22199
26459.1
22091.2
19955
14395.2
19801.3
14389.1
12217.5
8444.5
10803.7
6891.38
11292.7
7555.03
10119
6310.39
12490
8953.54
11103.1
7219.41
12560.7
9290.91
11179.2
7415.22
2689.54
1451.7
5033.47
2837.79
2795.09
1690.99
5116.34
3147.46
3037.91
2251.51
5062.82
3615.43
13605.6
22748.9
8821.3
7981.68
5692.82
23284.2
14995.1
8410.84
7470.64
4431.31
22455.1
16266.7
11920.5
8717.69
5381.29
1026.87
991.51
1949.01
1831.17
1299.44
1017.02
2386.11
2172.73
1830.5
1607.88
2887
2593.6
23636.8
22598.2
15072.3
13764.1
9458.87
9074.77
7239.32
6920.45
4081.58
3692.54
20609.5
17702.5
15029.8
12929.4
11227
10208.4
7944.82
7612.75
4984.1
5552.77
14208.7
11238.5
14335.2
10587.1
18142.2
13435
18397.2
13195.1
11672.2
9390.35
11556.3
10027.7
14795.3
10085.7
14910
10189.4
19280
13532.9
19219.4
13626.3
11743.7
8810.45
11927.7
9166.93
8332.47
7609.67
5504.75
7334.33
8452.97
7981.98
5602.75
7239.52
8296.53
7390.28
5350.77
7656.48
8723.12
7452.5
5567.21
7569.99
2321.51
1853.38
1450.92
8719.57
4280.59
3278.37
2171.3
2026.15
1722.34
9198.49
5035.3
4059.73
2684.06
2839.25
2842.24
9679.88
6201.31
5428.69
20273.5
18312.7
16938.5
12908.6
12078.1
11535.5
9307.14
8893.58
8671.43
8115.14
7635.13
7424.91
11134.1
8095.41
7238.08
15037.3
13450.8
12400.9
11382.8
10337.8
9731.58
9956.75
8924.69
8201.83
9465.78
8404.31
7837.41
14361.1
10079
9175.51
5157.53
3095.89
2224.69
1998.41
5772.64
3333.45
2312.65
2049.92
5006.87
3047.88
2217.9
2022.34
5732.83
3342.25
2338.02
2068.98
4740.46
2982.65
2241.5
1998.56
5575.32
3373.31
2403.99
2042.1
5846.81
3509.67
2417.55
2152.38
6010.62
3655.83
2512.8
2230.46
5045.12
3159.32
2326.52
2028.72
4095.3
2781.74
2174.3
1906.26
4379.83
2862.94
2221.54
1868.63
3679.56
2585.28
2081.56
1815.2
5440.47
3377.07
2410.39
2126.34
4354.81
2936.66
2243.44
1964.5
5667.31
3533.35
2489.97
2174.8
4504.69
3052.54
2308.01
1989.81
3914.04
2695.12
2087.95
1888.08
2599.52
2217.34
1909.28
1740.3
3793.78
2652.4
2084.8
1888.17
2584.85
2211.74
1906.79
1749.93
3610.93
2590.45
2088.44
1878.05
2653.89
2242.18
1912.31
1781.9
3416.58
2493.93
2049.4
1869.54
2676.52
2249.03
1945.94
1785.95
3136.58
2392.29
1966.3
1747.71
1169.42
1767.69
1530.23
478.152
-496.919
1518.95
1342.34
456.843
1341.21
1831.18
1557.17
504.678
-239.749
1594.14
1365.18
465.062
1607.29
1924.68
1582.39
502.007
147.635
1710.85
1391.66
467.288
1978.59
2041.27
1621.91
534.324
597.53
1854.67
1436.31
484.337
2499.24
2198.4
1693.04
597.328
1049.66
1991.15
1480.24
498.307
2852.44
2384.37
1737.74
559.572
962.71
2145.85
1573.58
518.852
2801.96
2302.05
1699.32
562.065
1023.45
2086.7
1523.04
505.554
2832.68
2445.25
1773.62
527.266
852.764
2200.18
1612.34
519.721
2818.63
2523.2
1843.17
543.216
1005.76
2279.74
1666.57
533.866
1845.77
1393.59
959.902
558.974
183.255
1850.91
1395.36
961.061
559.602
183.449
1880.05
1405.75
965.444
561.47
183.973
1880.81
1409.57
968.14
562.909
184.419
1899.86
1418.23
971.323
564.125
184.736
1889.61
1428.6
978.33
567.797
185.871
1954.69
1454.71
992.822
575.047
188.066
1989.74
1479.2
1007.37
582.465
190.325
1951.99
1444.29
984.736
570.608
186.678
2002.97
1451.78
986.067
570.883
186.722
1916.34
1431.75
977.53
566.946
185.552
1988.32
1443.93
981.673
568.661
186.037
1978.16
1458.99
993.459
575.086
188.051
2026.59
1466.16
994.519
575.216
188.053
2002.05
1484.59
1009.22
583.178
190.525
2054.42
1490.97
1009.84
583.126
190.483
1840.93
1392.17
958.69
558.286
183.039
1865.95
1392.84
958.047
557.879
182.914
1863.75
1401.96
962.935
560.13
183.56
1886.97
1401.66
961.79
559.485
183.366
1896.8
1414.46
968.197
562.415
184.202
1928.56
1413.74
966.695
561.592
183.954
1945.75
1428.27
974.038
565.014
184.94
1971.21
1425.26
971.942
563.955
184.614
1975.48
1437.12
978.184
566.949
185.51
8660.71
13422.7
9158.05
13828.9
9927.04
14424.1
10845.2
15480.7
11853.8
17299.2
10905
13455
11216
14445.8
10838.6
13277.6
10706.6
13233.8
6971.52
1244.5
273.745
61.5495
10.8532
8296.27
2291.33
558.12
126.638
22.1346
7140.34
1231.93
265.882
59.2049
10.3767
8474.91
2305.69
554.085
124.043
21.5981
7433.44
1235.96
260.211
57.1841
9.95548
8800.11
2343.25
553.044
122.356
21.1535
7785.13
1233.88
253.314
55.1339
9.5709
9217.51
2389.51
555.352
121.985
21.0286
8072.78
1229.44