/*--------------------------------*- C++ -*----------------------------------*\
| =========                 |                                                 |
| \\      /  F ield         | OpenFOAM: The Open Source CFD Toolbox           |
|  \\    /   O peration     | Version:  2412                                  |
|   \\  /    A nd           | Website:  www.openfoam.com                      |
|    \\/     M anipulation  |                                                 |
\*---------------------------------------------------------------------------*/
FoamFile
{
    version     2.0;
    format      ascii;
    arch        "LSB;label=32;scalar=64";
    class       volScalarField;
    location    "2.1";
    object      T;
}
// * * * * * * * * * * * * * * * * * * * * * * * * * * * * * * * * * * * * * //

dimensions      [0 0 0 1 0 0 0];

internalField   nonuniform List<scalar> 
5712
(
540.503
556.898
527.748
547.395
510.705
533.389
484.314
508.972
487.786
512.693
512.232
536.77
523.461
545.877
534.008
553.373
501.911
485.938
519.022
494.303
475.982
458.666
492.028
465.854
548.172
554.742
561.044
564.326
538.492
547.113
553.702
558.811
537.354
524.704
512.234
505.226
538.512
548.914
538.743
544.266
502.229
509.235
515.319
521.064
473.755
479.856
550.096
555.001
521.381
530.671
560.329
565.921
559.419
567.332
566.861
570.617
552.535
564.759
562.012
568.844
543.115
560.366
552.011
564.934
558.441
567.155
562.323
568.542
472.555
458.195
479.83
461.291
439.306
426.464
446.936
430.283
506.798
489.099
500.502
485.946
484.842
463.398
487.763
464.523
452.306
432.823
455.374
434.183
511.539
491.24
514.269
492.316
531.952
558.403
516.641
547.878
526.244
554.625
512.806
544.561
535.954
560.282
518.907
549.794
538.09
561.066
519.909
550.975
555.144
545.444
564.427
557.166
547.56
537.821
561.243
553.059
536.492
526.109
555.702
546.318
457.899
419.462
491.929
518.505
547.625
418.172
455.923
487.823
513.019
539.32
417.453
452.845
482.163
507.627
537.874
526.055
508.151
529.883
512.83
520.83
502.921
527.862
510.402
512.153
494.67
524.243
506.584
411.284
398.468
448.793
436.209
478.579
463.496
501.033
484.504
520.691
502.888
410.085
395.903
444.407
430.995
472.553
457.987
496.403
480.167
517.974
499.515
443.176
432.448
442.179
431.452
409.071
388.965
407.821
385.67
471.608
463.246
472.082
462.861
441.598
430.369
442.227
431.128
407.747
384.327
408.828
385.855
471.038
462.398
471.68
463.125
498.268
490.321
521.009
513.803
497.794
488.714
520.174
510.893
497.833
489.659
521.093
514.333
498.008
489.944
521.022
513.809
487.412
470.202
460.782
490.453
472.525
462.959
482.789
465.249
455.839
487.762
469.128
459.29
473.809
455.799
446.044
483.334
463.65
453.331
381.902
369.891
363.753
418.962
403.07
394.484
445.203
427.216
417.118
463.995
445.57
435.669
478.232
457.28
446.197
378.102
365.458
358.567
415.186
400.712
393.126
440.408
423.806
414.945
459.051
439.919
429.66
472.507
451.43
440.541
414.792
401.532
418.648
405.836
443.895
427.975
452.302
434.178
386.734
366.504
387.976
368.49
387.585
366.98
389.37
369.564
387.493
384.27
386.938
380.477
365.946
370.169
408.607
411.511
438.514
442.364
389.092
391.488
389.496
391.264
372.571
374.219
344.856
325.893
350.425
329.22
346.372
325.628
351.887
329.429
347.466
325.124
354.24
330.106
357.339
332.349
359.485
334.178
380.171
368.482
387.4
373.417
406.959
393.913
415.069
398.896
366.637
353.257
359.218
348.615
391.488
376.364
393.957
377.989
419.9
401.883
422.712
403.415
370.433
356.078
372.568
357.703
349.2
327.371
337.473
321.607
342.628
323.2
333.635
318.844
352.979
330.192
339.978
323.493
355.2
332.166
341.577
324.743
327.405
316.444
319.164
311.977
328.553
318.063
318.882
312.113
330.03
321.609
318.413
312.928
360.269
384.429
343.109
331.846
317.524
382.473
356.818
337.159
325.286
313.339
382.724
358.758
341.102
328.389
315.589
307.583
299.159
304.45
296.275
310.042
301.553
305.462
297.476
314.323
306.29
307.177
299.512
375.713
363.283
349.994
338.903
331.978
323.513
320.071
312.078
309.4
302.168
375.475
362.648
352.334
341.453
335.325
326.166
322.858
314.2
312.142
304.862
355.405
341.955
356.496
341.298
376.831
360.378
377.717
358.129
339.598
327.522
338.401
327.402
357.445
340.833
358.857
342.245
378.983
356.4
380.479
357.857
340.525
327.685
341.755
328.843
325.378
315.591
314.612
305.446
325.068
314.928
313.903
305.237
325.629
316.291
315.009
305.48
327.176
317.044
315.696
306.672
288.777
283.071
280.848
282.076
278.1
276.777
291.82
285.773
283.257
283.336
279.193
277.689
296.678
290.32
287.778
285.29
280.789
279.195
349.643
340.138
335.629
328.231
320.804
317.574
313.638
307.092
304.532
301.912
295.387
292.733
287.169
282.546
280.72
348.04
337.806
332.866
329.453
320.732
316.483
315.266
307.719
304.226
302.556
296.357
293.941
288.364
283.91
281.687
310.854
301.441
295.465
290.623
312.31
302.021
295.743
290.671
310.741
301.471
295.57
290.777
312.547
302.227
295.98
290.893
310.472
301.478
295.739
291.025
312.856
302.519
296.298
291.18
314.055
303.228
296.609
291.301
315.252
304.014
296.973
291.45
311.856
302.288
296.283
291.383
309.664
301.562
295.897
291.544
309.883
301.383
295.835
291.302
308.338
300.9
295.558
291.5
313.355
303.076
296.619
291.446
310.777
302.189
296.208
291.656
314.541
303.791
296.998
291.644
311.716
302.784
296.578
291.906
308.443
300.542
295.081
290.635
305.605
299.524
294.604
290.723
308.287
300.532
295.134
290.756
305.635
299.572
294.65
290.824
308.021
300.506
295.214
290.968
305.923
299.746
294.781
291.012
307.581
300.444
295.276
291.24
306.077
299.876
294.919
291.248
307.041
300.334
295.244
291.457
303.017
298.686
294.056
291.131
301.535
298.284
293.816
291.293
303.419
298.851
294.161
291.215
301.998
298.466
293.918
291.37
304.08
299.138
294.335
291.357
302.773
298.785
294.092
291.505
304.884
299.49
294.594
291.569
303.737
299.194
294.34
291.689
305.91
299.954
294.906
291.793
304.677
299.629
294.598
291.882
307.358
300.855
295.365
292.138
305.98
300.53
295.132
292.295
306.688
300.388
295.127
291.97
305.423
300.087
294.864
292.088
307.977
301.342
295.604
292.292
306.542
301.008
295.396
292.499
308.72
301.889
295.939
292.529
307.287
301.548
295.733
292.757
285.874
282.635
280.297
278.794
278.061
285.886
282.643
280.302
278.797
278.063
285.937
282.665
280.314
278.804
278.068
285.963
282.683
280.324
278.81
278.073
286.005
282.7
280.332
278.815
278.076
286.074
282.745
280.359
278.831
278.088
286.231
282.836
280.412
278.864
278.112
286.384
282.928
280.467
278.898
278.137
286.156
282.782
280.379
278.843
278.097
286.187
282.788
280.38
278.843
278.097
286.079
282.737
280.352
278.827
278.084
286.14
282.76
280.364
278.833
278.089
286.248
282.838
280.412
278.864
278.112
286.277
282.842
280.412
278.863
278.111
286.41
282.938
280.472
278.901
278.139
286.434
282.939
280.471
278.9
278.138
285.863
282.626
280.292
278.791
278.058
285.862
282.621
280.289
278.788
278.057
285.912
282.649
280.304
278.797
278.063
285.906
282.642
280.299
278.794
278.061
285.977
282.679
280.319
278.806
278.07
285.968
282.669
280.313
278.802
278.066
286.051
282.713
280.337
278.817
278.077
286.031
282.7
280.329
278.812
278.073
286.1
282.738
280.351
278.825
278.083
538.293
533.744
537.597
533.007
536.275
531.673
534.683
529.888
533.352
528.233
534.046
531.061
533.595
529.883
534.26
531.431
534.519
531.671
565.67
571.386
572.635
572.919
572.979
559.598
569.753
572.264
572.84
572.961
565.777
571.438
572.65
572.923
572.981
559.552
569.787
572.278
572.844
572.962
565.775
571.475
572.663
572.926
572.981
559.366
569.8
572.289
572.848
572.963
565.802
571.517
572.675
572.929
572.982
559.109
569.787
572.292
572.849
572.963
565.829
571.532
572.676
572.928
572.982
558.881
569.737
572.277
572.844
572.962
564.67
571.112
572.558
572.898
572.973
558.297
569.339
572.142
572.806
572.951
565.128
571.298
572.614
572.913
572.978
558.502
569.523
572.209
572.826
572.957
564.365
570.988
572.519
572.887
572.97
558.178
569.233
572.1
572.793
572.947
564.486
571.007
572.52
572.886
572.969
558.268
569.236
572.093
572.79
572.945
422.144
460.408
457.439
419.792
401.351
403.197
408.505
411.676
421.402
424.642
447.79
454.827
452.15
458.871
429.837
432.391
420.655
423.08
412.125
414.109
362.233
344.507
300.375
294.906
298.955
295.474
299.958
361.873
355.928
338.098
345.164
339.433
318.171
328.199
323.12
312.915
316.064
311.401
356.268
330.814
315.488
313.208
319.545
315.396
307.963
308.086
306.201
303.372
310.172
308.501
356.518
335.719
342.293
325.511
319.309
331.025
308.849
302.699
311.867
346.64
332.061
319.154
305.193
285.948
334.227
323.207
311.482
298.306
282.15
297.624
293.769
288.723
282.802
276.33
292.748
289.693
285.656
280.894
275.682
296.368
292.721
287.928
282.299
276.157
293.257
290.118
285.973
281.088
275.747
297.257
293.463
288.487
282.649
276.277
346.248
330.364
316.674
302.542
284.935
339.981
324.727
311.442
297.876
281.992
328.631
317.968
306.55
294.236
280.444
331.537
318.04
305.928
293.678
280.43
327.289
314.64
303.234
291.758
279.552
312.818
305.93
297.591
288.244
278.183
320.694
311.789
301.752
290.857
279.122
316.581
308.564
299.309
289.226
278.511
308.477
302.552
295.147
286.724
277.654
311.032
304.483
296.491
287.526
277.925
307.201
301.537
294.402
286.259
277.493
342.678
328.225
315.38
301.707
284.453
323.369
314.349
304.07
292.632
279.811
310.711
304.394
296.559
287.644
277.98
308.815
302.922
295.515
287.015
277.767
314.159
307.184
298.694
289.056
278.49
310.735
304.514
296.744
287.815
278.044
304.31
299.299
292.869
285.39
277.212
304.415
299.374
292.901
285.39
277.209
302.755
297.989
291.836
284.702
276.969
300.277
295.96
290.342
283.789
276.662
306.187
300.769
293.884
285.968
277.4
304.765
299.643
293.079
285.486
277.239
342.616
328.662
316.2
302.681
284.823
327.401
317.818
307.121
295.027
280.814
333.094
321.338
309.686
296.707
280.848
319.325
311.433
302.047
291.326
279.271
314.102
307.247
298.826
289.167
278.506
323.762
314.684
304.405
292.859
279.734
305.082
299.926
293.325
285.664
277.304
299.68
295.468
289.984
283.575
276.591
307.684
302.03
294.873
286.623
277.632
503.775
543.768
495.929
533.804
472.15
513.894
479.406
525.006
486.727
475.842
514.001
490.087
462.512
450.268
488.159
462.631
521.322
535.676
552.135
557.994
515.419
529.955
545.67
552.931
531.348
509.284
507.816
495.129
525.22
543.687
537.084
543.914
500.418
508.794
513.889
520.71
472.404
479.507
548.301
554.655
519.589
530.249
558.942
565.707
548.356
563.545
563.054
569.327
541.966
561.283
558.193
567.583
534.612
557.599
548.227
563.667
557.063
566.65
562.049
568.432
469.601
458.862
478.042
461.684
439.098
429.849
446.598
432.122
504.351
488.662
496.184
485.032
484.024
463.666
487.553
464.63
452.176
433.814
455.356
434.522
510.42
491.082
513.971
492.284
529.635
557.542
515.994
547.605
521.935
553.02
511.491
544.014
534.909
559.883
518.632
549.678
537.814
560.957
519.836
550.945
537.044
524.446
558.394
549.824
530.523
518.499
555.942
546.701
522.873
511.583
551.631
541.828
460.501
430.841
488.004
512.38
545.267
431.049
458.665
482.567
505.164
536.385
427.426
455.758
480.881
505.261
536.929
505.182
490.005
520.726
507.14
501.794
486.488
520.428
506.173
497.839
483.045
519.536
504.73
423.904
413.485
451.502
440.655
474.17
461.33
494.556
480.683
518.269
502.974
420.227
407.346
448.417
437.551
472.772
461.399
495.412
482.269
517.591
501.361
446.299
436.932
444.353
434.396
415.371
396.713
411.738
390.591
472.606
464.936
473.134
465.273
442.84
431.999
442.628
431.636
409.78
386.799
409.464
386.616
471.701
463.411
471.906
463.451
498.655
491.207
521.207
514.288
497.93
489.971
520.242
511.644
498.16
490.228
521.269
514.642
498.135
490.146
521.085
513.912
478.573
472.536
494.709
488.902
474.759
468.15
493.221
486.133
471.201
464.282
490.672
481.631
402.699
396.792
430.446
423.33
450.962
442.989
468.804
460.523
486.968
475.932
392.813
387.998
427.435
421.354
450.429
442.861
468.204
458.51
481.744
470.768
407.064
399.127
415.4
405.507
433.907
422.714
449.26
432.374
388.503
370.258
392.955
373.767
386.644
370.171
391.646
373.861
388.673
383.413
388.582
381.905
369.703
373.673
408.793
411.629
437.839
442.202
390.154
391.928
390.664
391.698
374.854
375.07
356.489
337.781
358.568
338.674
357.094
336.74
358.919
337.728
357.148
335.032
359.795
336.708
360.677
336.451
360.629
335.594
386.051
377.116
390.304
378.269
410.018
400.465
416.381
402.441
371.14
358.88
367.675
358.133
393.009
378.938
394.425
378.842
420.574
403.738
422.923
404.032
372.797
359.127
373.298
358.718
354.965
333.12
343.207
326.748
352.676
331.859
342.873
326.521
356.064
333.522
343.177
326.473
356.155
333.245
342.657
325.738
352.778
349.403
335.47
331.779
353.113
349.82
334.216
330.571
352.488
349.39
332.274
328.874
380.512
402.918
362.755
349.296
329.472
403.833
381.224
362.232
347.554
327.314
398.924
376.248
357.431
342.511
325.901
345.296
339.017
325.871
315.71
346.044
340.245
325.212
315.549
345.728
339.884
324.125
315.085
397.19
387.865
375.8
368.099
358.479
352.652
343.768
337.185
323.733
315.533
391.624
379.38
370.519
360.268
352.652
343.876
337.789
329.01
322.967
315.446
365.998
352.58
362.628
347.472
386.244
370.483
383.207
364.183
345.759
333.317
348.847
337.356
360.552
343.858
359.822
343.166
381.722
359.364
381.323
358.758
343.705
330.55
342.758
329.726
330.939
320.536
319.431
309.413
334.422
323.323
321.418
311.686
328.614
318.842
317.678
307.563
328.19
317.874
316.503
307.293
332.32
329.575
297.108
294.307
335.299
332.003
297.855
294.844
333.821
329.17
298.424
294.793
378.802
373.512
360.685
356.416
345.669
341.601
329.065
324.144
298.658
294.35
367.046
363.108
349.761
345.98
333.864
330.19
317.478
314.468
296.735
293.385
319.046
306.638
298.867
292.817
319.514
306.766
298.924
292.749
318.435
306.381
298.79
292.845
318.93
306.472
298.85
292.773
317.377
305.926
298.694
292.949
318.026
306.003
298.677
292.729
317.4
305.532
298.164
292.274
316.439
304.843
297.541
291.817
316.126
305.178
298.281
292.731
313.499
304.196
297.75
292.887
315.784
305.237
298.438
293.037
313.741
304.485
297.968
293.15
315.973
304.894
297.917
292.37
313.081
303.811
297.391
292.563
315.433
304.419
297.446
291.956
312.489
303.335
296.985
292.22
318.039
306.325
298.762
293.001
316.461
305.847
298.5
293.27
317.446
306.101
298.687
293.042
315.989
305.682
298.424
293.298
316.475
305.722
298.566
293.147
315.243
305.387
298.311
293.365
315.019
305.126
298.329
293.274
314.457
305.053
298.185
293.44
313.734
304.632
298.036
293.334
314.59
305.379
298.053
293.967
313.261
305.131
297.891
294.303
314.363
305.277
298.033
293.969
313.075
305.031
297.861
294.291
313.912
305.064
297.959
293.949
312.714
304.83
297.778
294.256
313.458
304.789
297.903
293.943
312.347
304.561
297.69
294.216
312.867
304.414
297.796
293.916
311.79
304.21
297.55
294.149
311.15
303.523
297.198
293.551
309.715
303.22
296.973
293.749
312.093
304.02
297.549
293.785
310.799
303.757
297.306
293.995
310.222
302.98
296.754
293.203
308.724
302.647
296.538
293.413
309.455
302.436
296.328
292.84
307.992
302.089
296.114
293.064
287.097
283.338
280.705
279.045
278.245
287.068
283.326
280.7
279.042
278.243
287.07
283.314
280.689
279.035
278.237
287.019
283.292
280.678
279.029
278.233
287.035
283.287
280.672
279.024
278.229
286.925
283.236
280.644
279.007
278.217
286.765
283.145
280.592
278.976
278.194
286.593
283.05
280.538
278.942
278.169
286.897
283.208
280.627
278.996
278.209
286.926
283.212
280.626
278.995
278.208
286.991
283.256
280.653
279.012
278.22
286.986
283.241
280.642
279.005
278.215
286.784
283.149
280.594
278.976
278.194
286.813
283.155
280.595
278.976
278.194
286.593
283.045
280.534
278.94
278.167
286.625
283.052
280.536
278.941
278.168
287.136
283.351
280.711
279.049
278.248
287.17
283.36
280.715
279.051
278.249
287.122
283.335
280.7
279.041
278.242
287.16
283.346
280.705
279.044
278.244
287.101
283.312
280.684
279.031
278.234
287.141
283.325
280.691
279.035
278.237
287.065
283.283
280.666
279.02
278.226
287.097
283.296
280.673
279.024
278.229
287.026
283.261
280.653
279.012
278.22
533.806
529.89
533.889
529.946
533.823
529.863
533.438
529.253
533.074
528.499
534.204
531.332
533.67
530.208
534.391
531.615
534.567
531.733
564.976
571.266
572.612
572.914
572.979
558.459
569.518
572.219
572.831
572.959
565.206
571.339
572.631
572.919
572.98
558.616
569.591
572.24
572.837
572.961
565.389
571.406
572.649
572.923
572.981
558.748
569.662
572.261
572.842
572.962
565.604
571.479
572.667
572.927
572.982
558.811
569.71
572.274
572.845
572.963
565.775
571.518
572.673
572.928
572.982
558.822
569.709
572.269
572.842
572.961
564.701
571.117
572.559
572.898
572.973
558.366
569.35
572.143
572.807
572.951
565.139
571.297
572.613
572.913
572.977
558.547
569.523
572.207
572.825
572.956
564.393
570.993
572.52
572.887
572.97
558.232
569.243
572.102
572.794
572.947
564.497
571.009
572.52
572.887
572.969
558.287
569.24
572.094
572.79
572.945
422.005
460.026
456.01
418.862
412.386
418.703
410.212
417.95
439.589
455.766
443.517
458.846
279.969
280.546
281.834
283.884
286.714
290.338
280.459
281.029
282.293
284.279
287.012
290.524
279.568
279.367
280.156
279.954
281.485
281.292
283.666
283.55
286.693
286.8
290.638
291.18
294.701
300.192
307.399
317.161
325.43
331.45
294.866
300.165
306.494
313.473
319.513
323.376
279.306
278.352
277.073
275.547
273.866
279.827
278.794
277.408
275.756
273.937
280.99
279.778
278.156
276.222
274.096
282.84
281.344
279.343
276.963
274.348
285.391
283.499
280.977
277.982
274.694
288.652
286.25
283.058
279.278
275.134
279.748
278.727
277.358
275.725
273.927
280.263
279.163
277.688
275.931
273.997
281.404
280.128
278.421
276.388
274.152
283.195
281.643
279.57
277.104
274.396
285.657
283.723
281.145
278.087
274.729
288.816
286.386
283.16
279.342
275.156
278.943
278.045
276.839
275.401
273.817
278.761
277.891
276.722
275.328
273.792
279.475
278.495
277.181
275.614
273.889
279.292
278.341
277.064
275.541
273.864
280.675
279.512
277.954
276.096
274.053
280.501
279.364
277.841
276.026
274.029
282.644
281.178
279.218
276.885
274.321
282.539
281.09
279.151
276.844
274.307
285.373
283.485
280.966
277.975
274.691
285.469
283.566
281.027
278.013
274.704
288.922
286.478
283.231
279.385
275.17
289.41
286.888
283.54
279.576
275.235
292.564
289.539
285.543
280.825
275.659
297.463
293.639
288.633
282.751
276.315
303.831
298.928
292.616
285.247
277.168
312.315
305.895
297.881
288.605
278.334
319.318
311.592
302.253
291.505
279.395
324.317
315.634
305.403
293.664
280.203
292.708
289.658
285.633
280.883
275.68
297.438
293.621
288.623
282.748
276.315
303.051
298.3
292.152
284.959
277.07
309.186
303.384
295.994
287.386
277.908
314.441
307.721
299.289
289.499
278.649
317.779
310.472
301.395
290.87
279.135
280.075
280.872
282.403
284.734
287.889
291.882
280.568
281.362
282.868
285.12
288.143
291.954
279.671
279.468
280.475
280.269
282.05
281.851
284.529
284.417
287.921
288.05
292.347
293.034
296.61
302.409
309.766
319.282
326.924
331.992
296.566
302.048
308.391
315.124
320.648
323.782
279.402
278.434
277.135
275.586
273.88
280.122
279.045
277.6
275.876
273.978
281.506
280.218
278.491
276.433
274.168
283.611
282.001
279.846
277.279
274.455
286.459
284.411
281.675
278.421
274.843
290.058
287.453
283.982
279.86
275.333
279.847
278.811
277.422
275.765
273.941
280.565
279.42
277.885
276.054
274.039
281.925
280.573
278.76
276.601
274.225
283.959
282.295
280.068
277.417
274.502
286.685
284.601
281.818
278.51
274.874
290.118
287.5
284.016
279.881
275.34
279.037
278.124
276.9
275.439
273.83
278.853
277.969
276.782
275.365
273.805
279.764
278.741
277.369
275.732
273.929
279.577
278.583
277.249
275.657
273.904
281.187
279.948
278.287
276.305
274.124
281.008
279.796
278.171
276.233
274.1
283.428
281.846
279.729
277.206
274.43
283.326
281.761
279.664
277.165
274.417
286.489
284.438
281.696
278.434
274.848
286.606
284.538
281.772
278.481
274.864
290.48
287.812
284.255
280.031
275.391
291.1
288.337
284.654
280.279
275.475
294.307
291.035
286.695
281.553
275.908
299.495
295.392
289.99
283.612
276.61
306.016
300.828
294.099
286.195
277.495
314.297
307.642
299.265
289.502
278.646
320.731
312.851
303.265
292.172
279.631
324.835
316.1
305.782
293.918
280.293
294.26
290.99
286.658
281.53
275.901
299.162
295.106
289.771
283.476
276.564
304.797
299.812
293.328
285.708
277.328
310.714
304.717
297.039
288.057
278.139
315.498
308.649
300.021
289.973
278.814
318.159
310.806
301.66
291.043
279.196
363.08
345.258
303.099
297.102
302.322
298.141
303.14
370.657
368.775
347.058
359.613
325.336
336.983
319.439
323.984
317.573
362.138
337.079
321.447
318.333
325.093
319.757
311.17
312.211
311.597
307.942
315.709
313.308
359.142
337.845
346.665
328.578
323.068
335.943
312.613
306.502
316.417
347.539
332.917
319.914
305.779
286.189
334.971
323.896
312.063
298.716
282.301
300.125
295.929
290.398
283.866
276.696
294.754
291.416
286.984
281.733
275.97
299.454
295.385
289.991
283.608
276.607
295.694
292.213
287.59
282.111
276.098
300.178
295.985
290.443
283.892
276.704
355.976
339.851
325.036
308.727
287.498
354.478
338.566
323.479
306.654
285.52
337.754
326.546
313.785
299.242
282.296
347.777
333.132
318.751
302.767
283.986
319.734
312.197
302.674
291.603
279.368
329.561
320.056
308.633
295.525
280.814
314.652
308.059
299.551
289.597
278.657
318.606
311.3
301.99
291.144
279.198
313.03
306.73
298.55
288.959
278.434
348.902
334.227
320.64
305.571
286.046
329.506
319.992
308.733
295.784
280.947
316.365
309.449
300.613
290.295
278.908
313.632
307.192
298.913
289.222
278.536
319.445
311.932
302.523
291.577
279.377
314.832
308.147
299.637
289.697
278.699
307.282
301.894
294.905
286.696
277.663
308.245
302.725
295.534
287.082
277.794
307.748
302.343
295.247
286.888
277.724
304.483
299.607
293.181
285.6
277.285
311.373
305.349
297.513
288.315
278.215
309.239
303.569
296.172
287.477
277.928
345.376
331.253
318.459
304.362
285.525
329.469
319.703
308.677
296.089
281.202
337.476
325.393
313.1
299.068
281.657
322.244
314.051
304.162
292.723
279.759
317.648
310.402
301.349
290.816
279.08
328.548
319.051
307.998
295.274
280.586
308.578
302.987
295.732
287.212
277.839
303.182
298.505
292.348
285.082
277.109
311.94
305.784
297.847
288.548
278.3
279.787
292.802
304.568
314.719
322.815
328.88
484.813
479.563
456.007
461.269
471.617
465.011
448.331
439.485
504.673
522.076
500.631
517.436
495.191
486.07
512.468
474.689
470.866
448.182
452.228
464.274
459.409
441.761
434.87
494.016
507.803
491.426
504.596
486.998
479.46
500.782
460.556
458.196
437.081
439.868
453.472
450.703
432.208
427.099
478.006
491.818
476.408
489.86
473.648
468.477
487.336
446.336
444.756
425.352
427.502
441.261
439.54
421.314
416.872
462.911
476.704
461.853
475.158
459.65
455.337
473.069
436.082
434.715
416.772
418.749
431.332
429.402
412.831
407.838
451.471
464.045
450.717
463.45
448.842
444.76
461.822
428.979
427.658
410.967
412.887
424.308
422.294
407.114
402.213
442.851
455.664
442.13
455.499
440.586
436.763
453.881
405.887
402.968
429.143
432.903
399.091
391.89
423.484
414.474
382.819
363.501
380.41
362.906
375.279
373.911
361.907
401.734
398.867
423.478
426.739
395.109
388.25
418.323
410.219
377.817
361.227
375.3
360.919
370.711
369.765
359.859
395.61
392.948
415.041
417.689
389.427
383.371
410.664
403.919
375.643
359.601
373.36
358.717
369.073
368.059
357.099
388.739
386.059
405.638
407.99
382.01
375.538
401.501
394.62
371.553
356.783
369.039
355.055
364.446
362.617
352.392
383.722
381.022
398.768
401.038
377.051
370.539
394.662
387.748
368.339
355.268
365.493
352.286
360.477
357.796
348.334
380.653
377.924
394.243
396.486
374
367.451
390.187
383.459
367.251
353.778
364.157
349.922
358.268
354.989
345.358
541.137
557.322
527.746
547.366
510.706
533.379
484.32
508.973
487.795
512.694
512.243
536.764
523.478
545.865
534.854
553.946
501.909
485.936
519.017
494.301
475.984
458.667
492.029
465.854
548.623
555.075
561.325
564.531
538.485
547.097
553.671
558.782
537.342
524.697
512.229
505.222
538.5
548.9
538.742
544.266
502.227
509.234
515.319
521.064
473.755
479.855
550.092
555
521.379
530.67
560.326
565.92
559.678
567.449
567.022
570.683
552.514
564.754
561.988
568.838
543.103
560.362
552.001
564.931
558.437
567.154
562.321
568.542
472.553
458.194
479.828
461.289
439.306
426.463
446.936
430.283
506.794
489.097
500.498
485.943
484.841
463.397
487.761
464.522
452.305
432.822
455.374
434.182
511.537
491.238
514.267
492.314
531.948
558.401
516.639
547.877
526.238
554.623
512.803
544.56
535.952
560.281
518.906
549.794
538.088
561.066
519.907
550.975
555.396
545.68
564.566
557.319
547.532
537.788
561.235
553.049
536.477
526.096
555.697
546.315
457.897
419.462
491.925
518.498
547.622
418.171
455.921
487.819
513.012
539.318
417.453
452.843
482.16
507.624
537.873
526.257
508.318
530.023
512.939
520.815
502.903
527.872
510.408
512.144
494.662
524.245
506.586
411.283
398.468
448.792
436.208
478.576
463.494
501.029
484.5
520.691
502.889
410.084
395.903
444.405
430.994
472.551
457.985
496.401
480.166
517.974
499.515
443.175
432.447
442.178
431.451
409.071
388.964
407.821
385.67
471.606
463.245
472.08
462.86
441.598
430.369
442.226
431.127
407.747
384.327
408.828
385.855
471.037
462.397
471.679
463.124
498.267
490.32
521.008
513.803
497.792
488.713
520.173
510.892
497.832
489.658
521.092
514.333
498.007
489.943
521.021
513.809
487.583
470.387
460.985
490.568
472.665
463.116
482.778
465.241
455.836
487.767
469.133
459.298
473.805
455.797
446.044
483.336
463.653
453.334
381.902
369.891
363.754
418.961
403.07
394.484
445.202
427.215
417.118
463.993
445.569
435.669
478.232
457.281
446.199
378.102
365.458
358.568
415.186
400.712
393.126
440.407
423.806
414.945
459.05
439.919
429.66
472.507
451.431
440.542
414.8
401.535
418.656
405.838
443.901
427.978
452.307
434.181
386.609
366.45
387.821
368.414
387.572
366.968
389.355
369.554
387.491
384.268
386.939
380.477
365.942
370.166
408.609
411.513
438.516
442.365
389.093
391.49
389.497
391.265
372.571
374.221
344.806
325.885
350.36
329.203
346.371
325.62
351.886
329.425
347.464
325.121
354.238
330.104
357.339
332.348
359.486
334.178
380.172
368.483
387.401
373.418
406.96
393.913
415.07
398.897
366.637
353.258
359.219
348.615
391.489
376.365
393.959
377.989
419.901
401.883
422.712
403.416
370.434
356.079
372.57
357.703
349.2
327.37
337.473
321.607
342.628
323.199
333.636
318.844
352.979
330.191
339.979
323.493
355.201
332.167
341.578
324.743
327.364
316.38
319.157
311.952
328.554
318.067
318.874
312.109
330.031
321.612
318.411
312.928
360.27
384.429
343.11
331.847
317.524
382.473
356.819
337.161
325.288
313.34
382.725
358.759
341.103
328.39
315.589
307.502
299.067
304.424
296.243
310.052
301.565
305.469
297.485
314.328
306.297
307.18
299.517
375.714
363.283
349.995
338.904
331.98
323.515
320.074
312.082
309.401
302.171
375.476
362.649
352.335
341.454
335.327
326.168
322.859
314.202
312.143
304.863
355.406
341.955
356.496
341.298
376.831
360.378
377.718
358.129
339.599
327.522
338.401
327.402
357.446
340.833
358.857
342.245
378.983
356.4
380.479
357.857
340.525
327.685
341.756
328.843
325.378
315.591
314.612
305.446
325.069
314.929
313.903
305.238
325.629
316.292
315.009
305.48
327.177
317.045
315.697
306.672
288.691
282.99
280.77
282.07
278.086
276.761
291.839
285.791
283.271
283.351
279.204
277.698
296.687
290.328
287.785
285.296
280.795
279.2
349.644
340.138
335.63
328.233
320.806
317.575
313.64
307.095
304.535
301.916
295.392
292.737
287.173
282.549
280.722
348.04
337.807
332.867
329.454
320.734
316.484
315.267
307.721
304.227
302.558
296.359
293.943
288.366
283.912
281.689
310.855
301.438
295.459
290.615
312.301
302.013
295.732
290.66
310.739
301.47
295.569
290.776
312.547
302.227
295.98
290.893
310.471
301.478
295.738
291.025
312.855
302.519
296.297
291.18
314.055
303.228
296.609
291.301
315.252
304.014
296.973
291.45
311.856
302.288
296.283
291.383
309.664
301.562
295.897
291.544
309.883
301.383
295.835
291.302
308.338
300.9
295.558
291.5
313.355
303.076
296.619
291.446
310.778
302.189
296.208
291.657
314.542
303.791
296.998
291.644
311.716
302.784
296.578
291.907
308.446
300.541
295.077
290.629
305.6
299.521
294.601
290.719
308.285
300.531
295.133
290.756
305.634
299.572
294.649
290.824
308.02
300.506
295.214
290.967
305.923
299.746
294.781
291.012
307.581
300.444
295.276
291.24
306.078
299.876
294.919
291.248
307.041
300.334
295.244
291.457
303.012
298.683
294.054
291.127
301.524
298.279
293.812
291.29
303.423
298.853
294.161
291.214
302.003
298.467
293.918
291.369
304.081
299.139
294.335
291.357
302.775
298.785
294.092
291.505
304.885
299.49
294.593
291.568
303.738
299.194
294.34
291.689
305.911
299.954
294.906
291.793
304.677
299.629
294.598
291.882
307.358
300.856
295.365
292.138
305.98
300.53
295.132
292.295
306.688
300.388
295.127
291.97
305.424
300.087
294.864
292.088
307.977
301.343
295.604
292.292
306.543
301.008
295.396
292.499
308.721
301.889
295.939
292.53
307.288
301.548
295.733
292.757
285.871
282.633
280.296
278.793
278.06
285.882
282.641
280.301
278.796
278.063
285.937
282.665
280.314
278.804
278.068
285.963
282.683
280.324
278.81
278.073
286.005
282.7
280.332
278.815
278.076
286.074
282.745
280.359
278.832
278.088
286.231
282.836
280.412
278.864
278.112
286.384
282.928
280.467
278.898
278.137
286.156
282.782
280.379
278.843
278.097
286.187
282.788
280.38
278.844
278.097
286.079
282.737
280.352
278.827
278.085
286.14
282.76
280.364
278.834
278.089
286.248
282.838
280.412
278.864
278.112
286.277
282.842
280.412
278.864
278.111
286.41
282.938
280.472
278.901
278.139
286.435
282.939
280.471
278.9
278.138
285.86
282.625
280.291
278.79
278.058
285.859
282.62
280.288
278.788
278.056
285.912
282.649
280.304
278.798
278.063
285.905
282.641
280.299
278.794
278.061
285.977
282.679
280.319
278.807
278.07
285.968
282.669
280.313
278.802
278.067
286.051
282.713
280.338
278.817
278.077
286.031
282.7
280.329
278.812
278.074
286.1
282.738
280.351
278.826
278.084
538.35
533.808
537.612
533.023
536.283
531.68
534.686
529.891
533.353
528.234
534.045
531.061
533.595
529.883
534.259
531.431
534.518
531.67
565.706
571.395
572.637
572.919
572.98
559.624
569.759
572.266
572.84
572.961
565.79
571.442
572.651
572.923
572.981
559.566
569.792
572.28
572.844
572.962
565.78
571.477
572.663
572.926
572.982
559.373
569.802
572.29