/*--------------------------------*- C++ -*----------------------------------*\
| =========                 |                                                 |
| \\      /  F ield         | OpenFOAM: The Open Source CFD Toolbox           |
|  \\    /   O peration     | Version:  2412                                  |
|   \\  /    A nd           | Website:  www.openfoam.com                      |
|    \\/     M anipulation  |                                                 |
\*---------------------------------------------------------------------------*/
FoamFile
{
    version     2.0;
    format      ascii;
    arch        "LSB;label=32;scalar=64";
    class       volVectorField;
    location    "0.4";
    object      flux;
}
// * * * * * * * * * * * * * * * * * * * * * * * * * * * * * * * * * * * * * //

dimensions      [0 1 -1 1 0 0 0];

internalField   nonuniform List<vector> 
5712
(
(-0.46047 0.691228 0.453633)
(-0.572132 0.379732 1.36153)
(-1.02661 1.17133 0.349912)
(-1.64809 0.780582 1.46915)
(-1.58819 1.1308 0.187879)
(-3.10798 0.984157 1.5178)
(-1.0673 1.57928 0.301088)
(-3.20692 2.04135 2.29989)
(-1.08257 2.43984 0.482443)
(-2.54854 3.20203 2.86228)
(-1.33467 1.33121 0.50868)
(-2.23441 1.19764 2.09823)
(-1.00798 0.816752 0.552696)
(-1.37569 0.575787 1.8954)
(-0.546409 0.554923 0.551322)
(-0.569417 0.316988 1.65621)
(-0.852087 1.04396 0.247263)
(-1.00995 0.810708 0.146943)
(-1.112 0.974652 0.76581)
(-1.04658 0.872288 0.3806)
(-0.733173 1.16768 0.229288)
(-1.08339 1.01699 0.107067)
(-1.07408 1.41997 0.792059)
(-1.07672 1.11117 0.319187)
(-0.328885 0.390503 0.361934)
(-0.261478 0.257284 0.289882)
(-0.445324 0.206675 1.05846)
(-0.340606 0.145643 0.832454)
(-0.764853 0.541472 0.242029)
(-0.553213 0.334208 0.210902)
(-1.38408 0.303062 1.05828)
(-1.0277 0.202752 0.861893)
(-1.1503 1.22921 0.549355)
(-1.19173 1.2345 0.206484)
(-1.26439 0.992287 0.43705)
(-1.35388 0.686436 0.17497)
(-0.349408 0.784778 0.216406)
(-0.283426 0.660654 0.544111)
(-2.53684 0.667288 2.35454)
(-3.12891 0.645367 0.706992)
(-1.41115 0.830703 0.72077)
(-1.85072 0.840516 0.307598)
(-3.1029 1.90074 2.73289)
(-3.82665 2.12048 0.837363)
(-1.47079 1.2342 0.631341)
(-1.80908 1.34239 0.266913)
(-1.99214 1.10719 1.65017)
(-2.59923 0.875489 0.544846)
(-1.66063 1.01068 0.839993)
(-2.25053 0.678772 0.370793)
(-0.981236 0.439912 1.42042)
(-1.21715 0.394383 0.446029)
(-0.219355 0.389701 0.475944)
(-0.0728488 0.708375 0.253497)
(-0.278945 0.196963 0.671375)
(-0.100791 0.307808 0.285095)
(-0.498936 0.507731 0.448637)
(-0.211211 0.923037 0.266838)
(-0.825568 0.330393 0.69709)
(-0.314537 0.509414 0.279238)
(-0.595894 0.491238 0.562644)
(-0.202352 1.08547 0.354823)
(-0.560916 0.387597 0.448246)
(-0.166847 0.742582 0.203272)
(-1.05743 0.107785 0.733858)
(-0.322022 0.490577 0.279111)
(-1.37359 0.00729372 0.282654)
(-0.450048 0.349143 0.109619)
(-1.50588 0.746863 0.866712)
(-0.89072 0.901356 0.66527)
(-1.28159 0.857221 0.49515)
(-0.887035 0.928794 0.449178)
(-1.40543 0.89209 0.805731)
(-0.89779 0.851751 0.691634)
(-1.13492 0.98443 0.423034)
(-0.864455 0.87407 0.431344)
(-1.10582 0.870368 0.521959)
(-0.820252 1.05526 0.468948)
(-1.22124 0.815662 0.761365)
(-0.801814 1.01387 0.654851)
(-1.25577 0.890662 0.346972)
(-0.905338 0.945263 0.298305)
(-1.30832 0.885976 0.178414)
(-0.927134 0.951991 0.150143)
(-1.12778 1.03441 0.29694)
(-0.870242 0.888533 0.281539)
(-1.18331 1.05828 0.145308)
(-0.886299 0.895762 0.140163)
(-1.1311 0.835713 0.3717)
(-0.85533 1.07275 0.306486)
(-1.21443 0.763585 0.197482)
(-0.884854 1.07772 0.141792)
(-1.25391 1.1159 0.488466)
(-0.562185 1.35999 0.290682)
(-0.80443 1.39512 0.516983)
(-0.978916 2.2888 0.581292)
(-1.35025 1.17252 0.708534)
(-0.657606 1.61886 0.549513)
(-0.79941 1.38684 0.768458)
(-1.02753 2.5597 1.01294)
(-1.25418 1.05526 0.331165)
(-0.517642 1.18429 0.153433)
(-0.835718 1.38805 0.317139)
(-0.963993 2.14936 0.338754)
(-1.30026 1.01681 0.172987)
(-0.519144 1.07942 0.0660646)
(-0.87241 1.39072 0.133038)
(-0.974171 2.08925 0.124384)
(-0.211259 0.384414 0.619268)
(-0.240034 0.510881 1.15198)
(-0.0771741 1.07114 0.426044)
(-0.168273 1.85406 1.303)
(-0.601392 0.44144 0.667213)
(-0.70624 0.514498 1.13953)
(-0.269115 1.27961 0.500884)
(-0.546071 2.00673 1.36221)
(-0.97137 0.493779 0.817593)
(-1.13744 0.516033 1.07994)
(-0.506285 1.5108 0.667953)
(-0.930542 2.14573 1.34355)
(-0.7893 1.11252 0.685383)
(-0.367835 0.987806 0.639219)
(-1.00216 1.15535 0.67302)
(-1.4078 1.23536 0.714133)
(-0.811566 2.03368 0.819034)
(-0.220278 0.985144 0.405477)
(-0.381816 1.01908 0.588801)
(-0.666537 1.1275 0.913259)
(-1.39367 1.09315 1.16128)
(-1.10859 2.39085 1.72296)
(-0.531556 0.888852 0.561607)
(-0.783245 0.952038 0.577052)
(-0.98406 0.962336 0.636619)
(-1.08612 1.26613 0.840772)
(-1.46996 2.98786 1.33268)
(-0.212739 0.110534 1.39017)
(-0.197541 0.143366 1.27523)
(-0.142398 0.325246 1.63038)
(-0.139087 0.752174 1.56348)
(-0.622538 0.152844 1.32038)
(-0.518978 0.213245 1.24576)
(-0.453232 0.408253 1.61082)
(-0.416825 0.820867 1.52272)
(-0.916729 0.216218 1.16149)
(-0.724262 0.19721 1.1356)
(-0.68565 0.521101 1.50252)
(-0.617784 0.903602 1.43848)
(-0.36152 0.879362 0.47666)
(-0.363979 0.744258 0.466722)
(-0.598705 0.858092 0.610857)
(-0.597131 0.689183 0.604911)
(-0.884145 0.897341 0.806538)
(-0.765432 0.662683 0.795974)
(-1.19914 0.735862 1.03869)
(-0.99003 0.5616 0.987569)
(-1.01464 0.689484 1.40841)
(-0.926218 1.09054 1.36208)
(-0.542734 0.778788 0.413268)
(-0.471734 0.600331 0.434378)
(-0.764647 0.826178 0.564139)
(-0.550127 0.660428 0.616819)
(-0.84073 0.830098 0.725499)
(-0.560394 0.654992 0.800144)
(-0.88109 0.872054 0.930864)
(-0.569534 0.672451 1.01823)
(-1.14075 0.790337 1.31684)
(-0.7805 1.12096 1.39563)
(-0.63741 0.879805 0.528704)
(-0.222173 0.867729 0.331302)
(-0.551051 0.917185 0.406208)
(-0.396881 0.942843 0.344167)
(-0.620996 0.780378 0.498203)
(-0.56271 0.665127 0.458324)
(-0.647521 0.807099 0.389689)
(-0.672175 0.721641 0.418478)
(-0.551362 0.931364 0.434621)
(-0.396309 0.8883 0.375579)
(-0.668782 0.925654 0.581825)
(-0.179407 0.855723 0.389616)
(-0.556687 0.933142 0.18753)
(-0.643319 0.966744 0.237774)
(-0.5899 0.934741 0.0566798)
(-0.705295 0.968333 0.0756757)
(-0.672863 0.826305 0.231681)
(-0.844388 0.759273 0.296534)
(-0.710628 0.826262 0.0702093)
(-0.891994 0.763026 0.0973992)
(-0.562999 0.909852 0.190961)
(-0.656595 0.870858 0.245531)
(-0.596916 0.928193 0.0562929)
(-0.727339 0.882966 0.0782958)
(-0.76011 0.948805 0.467529)
(-0.435597 0.890254 0.353338)
(-1.07371 0.712241 0.541192)
(-0.409373 0.875794 0.315796)
(-0.758346 0.971142 0.691323)
(-0.165072 0.882609 0.466026)
(-0.995703 0.746645 0.866865)
(-0.146889 0.932492 0.551535)
(-0.795123 0.907237 0.234658)
(-0.626979 0.863755 0.215781)
(-1.12633 0.697044 0.2995)
(-0.501443 0.860789 0.158748)
(-0.745999 0.906844 0.15268)
(-0.728788 0.847913 0.142545)
(-1.0565 0.681687 0.171206)
(-0.624034 0.832535 0.117702)
(-0.15794 0.0989662 1.06187)
(-0.120561 0.060527 0.667116)
(-0.0761141 0.0340623 0.217439)
(-0.106306 0.0463282 1.1616)
(-0.0864417 0.0277783 0.698328)
(-0.0595419 0.023796 0.234397)
(-0.399532 0.155908 1.01883)
(-0.260231 0.0756674 0.636475)
(-0.162231 0.0428212 0.215798)
(-0.295242 0.111999 1.13311)
(-0.187269 0.0761615 0.683421)
(-0.114479 0.0465531 0.226109)
(-0.484632 0.141005 0.92651)
(-0.292375 0.0879902 0.56666)
(-0.19611 0.0677441 0.183033)
(-0.43274 0.202004 1.07569)
(-0.250457 0.125855 0.650826)
(-0.163801 0.0838184 0.214954)
(-0.259716 0.536947 0.326968)
(-0.127461 0.313059 0.187846)
(-0.0785305 0.197126 0.0556007)
(-0.473808 0.51191 0.490292)
(-0.220417 0.320278 0.310721)
(-0.111826 0.212765 0.0975901)
(-0.533179 0.402565 0.655584)
(-0.256418 0.258713 0.418671)
(-0.123286 0.182615 0.135036)
(-0.672028 0.358901 0.803085)
(-0.360931 0.23152 0.493261)
(-0.204293 0.160991 0.15733)
(-0.675408 0.331207 1.00236)
(-0.334713 0.16239 0.598935)
(-0.167316 0.0880399 0.199644)
(-0.469975 0.423262 0.333193)
(-0.24926 0.255718 0.179552)
(-0.140934 0.164847 0.059873)
(-0.427173 0.479886 0.459414)
(-0.223875 0.290688 0.28563)
(-0.111191 0.192159 0.0993392)
(-0.466737 0.415495 0.59459)
(-0.234818 0.234723 0.370978)
(-0.109732 0.151915 0.126416)
(-0.507033 0.364461 0.75029)
(-0.259635 0.208559 0.450523)
(-0.125 0.136347 0.150217)
(-0.67932 0.313918 0.942447)
(-0.302375 0.147876 0.525144)
(-0.118503 0.0784065 0.175879)
(-0.529994 1.21113 -0.0213442)
(-0.815733 1.17808 0.0315507)
(-0.478073 1.34877 0.00938924)
(-0.64299 1.16056 0.0942686)
(-0.505606 1.27994 0.0957751)
(-0.960593 1.18067 0.0824686)
(-0.454217 1.61226 0.239639)
(-0.822906 1.27169 0.192084)
(0.00523667 0.697056 0.0227376)
(-0.050963 0.6841 0.0278032)
(0.0197735 0.71209 0.0240293)
(-0.0323498 0.632941 0.0291011)
(-0.122165 0.94407 0.0107662)
(-0.221105 0.746347 0.0256588)
(-0.0818176 0.955776 0.0198982)
(-0.14602 0.681218 0.0382629)
(-0.101603 1.03725 0.0456532)
(-0.17038 1.03881 0.0332348)
(-0.460764 0.869102 0.118822)
(-0.641169 0.935518 0.0892318)
(-0.297415 1.03608 0.0472927)
(-0.250293 0.955025 0.06728)
(-0.559212 1.24792 0.114469)
(-0.508156 1.32779 -0.00868573)
(-0.839068 1.41459 0.295756)
(-0.91706 1.5596 0.0635111)
(-0.00367842 1.01247 -0.214257)
(0.209033 1.0647 -0.0909882)
(-0.369306 0.871823 -0.00511522)
(-0.265627 0.879814 -0.022588)
(-0.25344 0.941312 -0.0502824)
(-0.140628 0.921034 -0.0599262)
(-0.0510596 0.52471 0.285227)
(-0.0317003 0.263434 0.0956581)
(-0.0464274 0.50328 0.0726101)
(-0.0306532 0.294619 0.0331038)
(-0.13709 0.519987 0.281093)
(-0.0415059 0.258297 0.09394)
(-0.0844059 0.493628 0.0760516)
(-0.0246799 0.283931 0.0357418)
(-0.354515 0.484246 0.266237)
(-0.0904766 0.235472 0.0952871)
(-0.291094 0.471667 0.0873391)
(-0.0878661 0.269271 0.040489)
(-0.321181 0.469894 0.0582095)
(-0.0888259 0.279737 0.0201959)
(-0.353183 0.453172 0.00146689)
(-0.0993363 0.276399 0.00204773)
(-0.575063 0.817084 0.507059)
(-0.488989 0.561168 0.417859)
(-0.449831 0.840727 0.206448)
(-0.472861 0.59357 0.254604)
(-0.943305 0.96113 0.685652)
(-0.766127 0.776237 0.610532)
(-0.774578 1.02319 0.323856)
(-0.716742 0.801963 0.365738)
(-0.294563 0.730075 0.148145)
(-0.306812 0.42074 0.174792)
(-0.341304 0.725542 0.354922)
(-0.29064 0.388245 0.268831)
(-0.421135 0.8867 0.116966)
(-0.462214 0.612825 0.153994)
(-0.438968 0.928792 0.0443247)
(-0.462434 0.619487 0.0707944)
(-0.746001 1.09043 0.204787)
(-0.696807 0.821683 0.226172)
(-0.776694 1.13466 0.0936998)
(-0.700253 0.830698 0.109217)
(-0.261475 0.729035 0.0661847)
(-0.3046 0.43622 0.104401)
(-0.250227 0.733188 0.015402)
(-0.303187 0.439854 0.0482434)
(-0.0319939 0.378375 0.10481)
(-0.0262916 0.218859 0.0490203)
(-0.194821 0.285532 0.113944)
(-0.0687547 0.161656 0.0484153)
(-0.0393686 0.333071 0.205355)
(-0.0211967 0.190757 0.0793558)
(-0.173944 0.25602 0.16152)
(-0.0582887 0.1445 0.0675037)
(-0.0290583 0.394583 0.0457578)
(-0.0220236 0.233595 0.025117)
(-0.200975 0.298923 0.0709533)
(-0.0740429 0.170431 0.0278758)
(-0.0338166 0.399423 0.00623625)
(-0.0217737 0.241123 0.00559444)
(-0.198842 0.301757 0.0340898)
(-0.0761005 0.173433 0.0109835)
(0.00260636 0.0733014 0.311013)
(0.00715559 0.0337819 0.156123)
(-0.0133091 0.125136 0.113759)
(-0.00571546 0.0661166 0.0895326)
(0.0162607 0.0746536 0.311465)
(0.0293031 0.0380393 0.160657)
(-0.0206996 0.125521 0.108862)
(-0.0075333 0.0718633 0.0867332)
(-0.0404643 0.0785344 0.319409)
(-0.0106458 0.0496753 0.164463)
(-0.0552314 0.121884 0.105945)
(-0.0371901 0.0812884 0.0807115)
(0.186485 0.359275 0.500821)
(0.0939197 0.689335 0.591936)
(0.0949757 0.221259 0.381152)
(0.0575567 0.195726 0.235074)
(0.0028037 0.131804 0.0876324)
(0.223969 0.688406 0.341015)
(0.29233 0.384118 0.328377)
(0.111643 0.186717 0.280086)
(0.102499 0.16293 0.207442)
(0.00774333 0.0974001 0.0916943)
(-0.409477 0.675434 0.496004)
(-0.273635 0.438232 0.358748)
(-0.184503 0.294635 0.237833)
(-0.144262 0.198763 0.148281)
(-0.0521364 0.118081 0.0605238)
(0.00882447 0.0178444 0.0902527)
(0.00626969 0.0114907 0.0586356)
(-0.00194578 0.0405422 0.0677404)
(-0.000831955 0.0295072 0.0529497)
(0.0252069 0.0224296 0.0973589)
(0.0215053 0.0127088 0.0644609)
(-0.00444612 0.0481962 0.068035)
(-0.00160652 0.0349354 0.0545335)
(0.0200012 0.0322999 0.10681)
(0.0234954 0.0196467 0.0751309)
(-0.0162094 0.0583571 0.0676439)
(-0.00927218 0.0432584 0.0563421)
(0.0505278 0.653621 0.360876)
(-0.0117346 0.517017 0.314453)
(0.179607 0.355297 0.265758)
(0.084887 0.258615 0.203287)
(0.0724593 0.190747 0.15651)
(0.030279 0.139006 0.13073)
(0.0640079 0.136326 0.111188)
(0.0382264 0.0956818 0.0906368)
(0.00496 0.0814104 0.06156)
(0.00175201 0.0609828 0.0576394)
(-0.227213 0.569716 0.272834)
(-0.150518 0.406528 0.27861)
(-0.042837 0.364245 0.189124)
(0.000998355 0.248255 0.187097)
(-0.0126899 0.241966 0.129663)
(0.0110264 0.165881 0.124738)
(-0.0135161 0.155672 0.0894127)
(0.00703848 0.107307 0.084848)
(0.000801277 0.0989792 0.045399)
(0.00296251 0.0808075 0.0550592)
(-0.16881 0.359925 0.181128)
(-0.137491 0.219703 0.128534)
(-0.318636 0.378469 0.120192)
(-0.177113 0.214298 0.0712305)
(-0.345659 0.522402 0.315491)
(-0.257799 0.325168 0.207883)
(-0.480756 0.55343 0.243777)
(-0.30937 0.337421 0.145481)
(-0.200467 0.270993 0.0689236)
(-0.105389 0.16025 0.042595)
(-0.0873863 0.260854 0.107247)
(-0.0795732 0.165432 0.0835375)
(-0.366045 0.404289 0.124831)
(-0.153913 0.209134 0.0577848)
(-0.39089 0.413882 0.0406543)
(-0.151495 0.215339 0.0205106)
(-0.545822 0.598018 0.198276)
(-0.310522 0.357928 0.107838)
(-0.585905 0.605154 0.0612055)
(-0.31332 0.366295 0.0379612)
(-0.234155 0.278132 0.0787456)
(-0.0844143 0.154083 0.0341056)
(-0.250206 0.285259 0.0269364)
(-0.0788299 0.162199 0.0117287)
(-0.109925 0.173885 0.0350641)
(-0.0631025 0.111619 0.0343322)
(-0.038867 0.109777 0.0237695)
(-0.0552982 0.101177 0.0327685)
(-0.054726 0.172688 0.0596617)
(-0.0507588 0.11388 0.0565753)
(-0.0196603 0.111569 0.0292936)
(-0.0432297 0.0974533 0.0424712)
(-0.118218 0.174373 0.040589)
(-0.0557207 0.109683 0.0231255)
(-0.0486375 0.106793 0.0151898)
(-0.0629972 0.10492 0.0228608)
(-0.14112 0.183754 0.00955377)
(-0.0507134 0.112958 0.00143624)
(-0.0626867 0.111383 -0.00745088)
(-0.0569698 0.103903 -0.000238998)
(0.00382897 0.0113242 0.0366911)
(0.00222606 0.00599559 0.0160014)
(0.00182872 0.0031924 0.00436369)
(-0.000696648 0.0389389 0.0299792)
(0.0002967 0.0134349 0.00842916)
(0.000323715 0.00717295 0.00223039)
(0.0131278 0.0105934 0.0420058)
(0.00815765 0.00662082 0.0194848)
(0.00620336 0.00377526 0.00569486)
(-0.00101076 0.0432575 0.0319964)
(0.00155905 0.016127 0.0095623)
(0.00147673 0.00891312 0.00263247)
(0.0166885 0.0152797 0.0496207)
(0.0128862 0.0102841 0.0239494)
(0.00983375 0.00670842 0.00656973)
(-0.00500456 0.0495131 0.0340464)
(0.00292242 0.0208058 0.0107432)
(0.00304817 0.0121531 0.00288913)
(-0.0291071 0.32977 0.199682)
(-0.00303155 0.19059 0.107443)
(-0.000179121 0.121234 0.0308627)
(0.0239077 0.164248 0.125053)
(0.0241773 0.0943837 0.0665445)
(0.018313 0.0606159 0.0194121)
(0.0143387 0.0932668 0.0876007)
(0.0147131 0.0531998 0.0446836)
(0.0122698 0.0344324 0.0131782)
(0.0199507 0.062919 0.0590094)
(0.0157724 0.0346327 0.0285869)
(0.012427 0.0218775 0.00790581)
(-0.00321526 0.0625829 0.0363671)
(0.00371447 0.0287433 0.0115905)
(0.00279548 0.0168493 0.0031143)
(-0.140828 0.247147 0.209298)
(-0.0607116 0.139049 0.104605)
(-0.0271165 0.0849839 0.0332102)
(-0.0298505 0.145445 0.138959)
(-0.0046984 0.0796297 0.0685874)
(0.00374477 0.048259 0.0215232)
(-0.0133538 0.0998162 0.0929466)
(0.00199957 0.0528623 0.0451076)
(0.00585833 0.0308565 0.0138135)
(-0.00751857 0.0718508 0.061785)
(0.00302724 0.0372444 0.0276219)
(0.00501508 0.0216529 0.00813574)
(-0.0129027 0.0857274 0.0418781)
(0.000566641 0.0362148 0.0128188)
(0.00172975 0.0208779 0.00393217)
(-0.00265375 0.101467 0.025304)
(-0.000591988 0.0349023 0.00630322)
(-0.000137688 0.0120587 0.00193328)
(-4.69053e-05 0.00407376 0.000524353)
(-0.00121424 0.115744 0.00997059)
(-0.000123664 0.0388152 0.00255211)
(0.000179092 0.0129986 0.000822624)
(7.04738e-05 0.00437535 0.000224474)
(-0.00669028 0.0970996 0.0247817)
(-0.0015348 0.0339305 0.0063049)
(-0.000275354 0.0118954 0.00208046)
(-9.92154e-05 0.00406696 0.000587156)
(-0.00284052 0.113157 0.0102751)
(-0.000303316 0.0384696 0.0027698)
(0.000316417 0.0132307 0.0010769)
(0.000109935 0.00456282 0.000323777)
(-0.0103564 0.0895528 0.026346)
(-0.00255492 0.0323554 0.00691922)
(-0.00055018 0.0121944 0.00245873)
(-0.000110854 0.00426295 0.000725416)
(-0.00749645 0.107269 0.0133354)
(-0.00151453 0.0379525 0.00393767)
(-0.000299976 0.014017 0.00115655)
(-3.07962e-05 0.00494187 0.000342271)
(-0.00441815 0.110972 0.00467838)
(-0.000943672 0.0389856 0.00175684)
(-0.000391226 0.0132705 9.50781e-05)
(-0.000106961 0.00455682 2.27829e-05)
(-0.00482863 0.111311 0.00166283)
(-0.00118552 0.039444 0.000975851)
(-0.000257183 0.0130366 7.98905e-05)
(-4.72322e-05 0.0043764 1.86977e-05)
(-0.0175178 0.0924144 0.0174512)
(-0.00455918 0.0337678 0.00500186)
(-0.00166354 0.0128153 0.00153206)
(-0.000397368 0.00449162 0.000413504)
(-0.0194037 0.072697 0.0151548)
(-0.00503866 0.0279489 0.00426472)
(-0.00225052 0.011092 0.00162652)
(-0.000510032 0.00376903 0.000440779)
(-0.0147305 0.0797563 0.0252863)
(-0.00384416 0.0298632 0.0068526)
(-0.00131988 0.0120174 0.00249466)
(-0.000174563 0.00428285 0.00069529)
(-0.016057 0.0658118 0.0204334)
(-0.00417988 0.0257473 0.00550401)
(-0.00198944 0.0105121 0.00219797)
(-0.0004659 0.00359114 0.00048991)
(-0.0157174 0.098994 0.00962606)
(-0.00413493 0.0360135 0.00297917)
(-0.0014231 0.012993 0.000831254)
(-0.000361905 0.00446739 0.000284539)
(-0.0208786 0.0765745 0.00919812)
(-0.0054245 0.029351 0.0027305)
(-0.00237265 0.0113296 0.00102839)
(-0.000549731 0.00380096 0.000311267)
(-0.0152334 0.101528 0.00337255)
(-0.00407883 0.0370869 0.00126246)
(-0.00125229 0.0130939 0.000346426)
(-0.000310613 0.00446447 0.000116416)
(-0.0214568 0.078041 0.00344844)
(-0.00558373 0.0300662 0.00117433)
(-0.00242308 0.0115394 0.00045957)
(-0.000585626 0.00387954 0.000154825)
(-0.00191727 0.0721984 0.0306926)
(-0.000478985 0.0282928 0.00773278)
(-0.000182157 0.0107272 0.00247852)
(-7.38547e-05 0.00369495 0.000667702)
(-0.00121591 0.0476881 0.028017)
(-0.000318856 0.0214058 0.00725696)
(-0.000190636 0.00907885 0.00270729)
(-5.45903e-05 0.00310743 0.000667518)
(-0.00489369 0.0693452 0.0295992)
(-0.00125226 0.027539 0.00753885)
(-0.000423644 0.0106532 0.00251949)
(-0.000155264 0.00368361 0.000670511)
(-0.00255501 0.0474324 0.0267191)
(-0.000667167 0.0212669 0.00692461)
(-0.000426731 0.00904506 0.00263665)
(-0.000132807 0.00309736 0.00062817)
(-0.0118625 0.0652996 0.0284801)
(-0.00314291 0.0264043 0.00735096)
(-0.00113032 0.0106937 0.00271311)
(-0.000329772 0.00370691 0.000727112)
(-0.0086114 0.0485305 0.0238895)
(-0.00226661 0.0215253 0.00617099)
(-0.000990517 0.00912485 0.00249549)
(-0.000193347 0.00308797 0.000587927)
(-0.00692334 0.0611905 0.024177)
(-0.00191906 0.0247357 0.00628506)
(-0.000741137 0.0103185 0.00253692)
(-3.193e-05 0.0035985 0.000752216)
(-0.00418955 0.0491036 0.0253069)
(-0.00111399 0.0215272 0.00646222)
(-0.000650655 0.00935045 0.00294269)
(-0.000113853 0.00315981 0.000737056)
(-0.0137624 0.0569417 0.0174413)
(-0.00360857 0.0232744 0.00454903)
(-0.00175021 0.00969768 0.00185935)
(-0.000292966 0.00332451 0.000463181)
(-9.22479e-05 0.0293543 0.019701)
(-3.35239e-06 0.0160503 0.00498294)
(-3.82115e-05 0.00662354 0.00195588)
(-1.77558e-06 0.00157437 0.00046484)
(0.000816772 0.0160458 0.00701975)
(0.000240713 0.0135439 0.00170237)
(5.36843e-05 0.00567077 0.000605129)
(1.89021e-05 0.00132178 0.000159789)
(-0.000924024 0.0311802 0.0195457)
(-0.000180029 0.0166364 0.00492745)
(-0.000189022 0.00683146 0.00192363)
(-2.52039e-05 0.00165718 0.000446408)
(0.00200916 0.0180039 0.00722391)
(0.000602527 0.0141736 0.00174968)
(0.000106675 0.00584797 0.000624993)
(4.20226e-05 0.0013625 0.000166178)
(-0.00226451 0.0343507 0.0185518)
(-0.000524284 0.017588 0.00461464)
(-0.000355134 0.00701284 0.00185615)
(-3.91316e-05 0.00166463 0.000415651)
(0.00305826 0.0214019 0.00711032)
(0.000885139 0.0152685 0.00170349)
(0.000154442 0.00606794 0.000630878)
(5.74617e-05 0.0013982 0.000171231)
(-0.00229309 0.0396224 0.015891)
(-0.000544565 0.0189136 0.00386566)
(-0.000434316 0.00744781 0.00170421)
(-5.54269e-05 0.00180968 0.000398959)
(0.00384602 0.0265302 0.00646624)
(0.00106944 0.016834 0.00149722)
(0.000137834 0.00646388 0.000633999)
(4.43491e-05 0.00149318 0.000176929)
(-0.00395231 0.0479226 0.01384)
(-0.000861209 0.0208658 0.00338276)
(-0.000787659 0.0081515 0.00152271)
(-0.000166466 0.00206461 0.000387118)
(0.00268525 0.0340425 0.00596412)
(0.000877381 0.0186117 0.00139607)
(-2.6056e-05 0.00686544 0.00062092)
(3.02656e-06 0.00157779 0.000173011)
(-0.0123996 0.0558613 0.00896942)
(-0.0025921 0.0233437 0.00241022)
(-0.00154967 0.0086033 0.000893008)
(-0.000333858 0.00204265 0.000229146)
(-0.00367231 0.0396816 0.00424652)
(-0.000466948 0.0210226 0.00119499)
(-0.000380247 0.00761751 0.000381281)
(-9.32885e-05 0.00170181 0.000111162)
(-0.00794083 0.0539886 0.0109769)
(-0.00159976 0.0223601 0.00278172)
(-0.00124809 0.00835047 0.0011928)
(-0.000271003 0.00202466 0.000301328)
(-0.00082355 0.038671 0.0050626)
(0.000210428 0.0201813 0.00128803)
(-0.000229069 0.00726346 0.000513348)
(-5.05854e-05 0.00164074 0.000150971)
(-0.0154894 0.0562478 0.00597284)
(-0.00343497 0.0238225 0.00174962)
(-0.0017746 0.00856435 0.0006058)
(-0.000403246 0.00194623 0.000174429)
(-0.0051652 0.0399166 0.00293519)
(-0.000939341 0.0215011 0.000903826)
(-0.000476925 0.00773156 0.000244942)
(-0.000125364 0.00169471 7.69461e-05)
(-0.0169416 0.0554224 0.00247368)
(-0.00396403 0.0241524 0.000854871)
(-0.00190702 0.00870108 0.000314642)
(-0.000452938 0.00196341 0.000103517)
(-0.00591221 0.0409996 0.00136699)
(-0.00126379 0.0218591 0.000497933)
(-0.000534968 0.00786329 0.000152859)
(-0.000144307 0.00171393 5.34467e-05)
(-1.16139e-05 0.00129905 9.14997e-05)
(-1.02829e-06 0.00043759 1.48354e-05)
(1.48315e-07 0.000141408 2.46787e-06)
(1.09736e-07 4.27007e-05 4.38891e-07)
(4.76471e-08 9.21951e-06 9.87624e-08)
(2.09163e-06 0.00137612 3.71497e-05)
(1.62154e-06 0.000451291 6.25128e-06)
(7.26211e-07 0.000143701 1.07308e-06)
(2.4482e-07 4.30875e-05 1.96438e-07)
(8.64033e-08 9.27598e-06 4.54504e-08)
(-3.23084e-05 0.00131127 9.18895e-05)
(-2.73909e-06 0.000438971 1.56527e-05)
(2.86469e-07 0.000141999 2.87369e-06)
(2.31448e-07 4.29357e-05 5.75998e-07)
(1.00209e-07 9.27595e-06 1.46434e-07)
(4.37745e-06 0.00140284 4.41481e-05)
(5.50865e-06 0.0004548 8.78431e-06)
(2.2377e-06 0.000144803 1.86434e-06)
(7.09091e-07 4.34545e-05 4.21216e-07)
(2.41038e-07 9.35835e-06 1.17574e-07)
(-3.17582e-05 0.00129841 0.000108116)
(-4.42959e-07 0.000437381 2.09142e-05)
(1.03219e-06 0.000142426 4.38169e-06)
(4.32554e-07 4.3189e-05 9.84081e-07)
(1.61392e-07 9.33959e-06 2.73332e-07)
(1.60544e-05 0.00140102 0.000100963)
(1.02512e-05 0.000459606 2.46078e-05)
(3.61473e-06 0.000146869 6.02301e-06)
(1.07392e-06 4.41115e-05 1.49481e-06)
(3.52006e-07 9.49877e-06 4.43509e-07)
(-1.61422e-06 0.00145192 8.09429e-05)
(2.30469e-06 0.000475938 2.18722e-05)
(1.00694e-06 0.000151454 5.59086e-06)
(3.18299e-07 4.53076e-05 1.41823e-06)
(1.07181e-07 9.73252e-06 4.26789e-07)
(-1.57355e-05 0.00145536 4.30836e-05)
(-1.32577e-06 0.000486377 1.42481e-05)
(1.3338e-07 0.000155059 4.113e-06)
(1.05901e-07 4.63136e-05 1.1314e-06)
(4.50694e-08 9.93444e-06 3.6118e-07)
(-2.41635e-05 0.00135262 0.000104828)
(1.92324e-07 0.000452332 2.20324e-05)
(9.70927e-07 0.000146526 4.96703e-06)
(3.78972e-07 4.42702e-05 1.17314e-06)
(1.37557e-07 9.5531e-06 3.37351e-07)
(-2.56345e-05 0.00121758 7.5884e-05)
(-2.80614e-06 0.000436384 1.64224e-05)
(-2.50501e-07 0.000144535 3.78921e-06)
(-2.08371e-09 4.40237e-05 9.07044e-07)
(9.99945e-09 9.52751e-06 2.62626e-07)
(1.402e-05 0.00125873 0.000110955)
(8.42645e-06 0.000436698 2.24416e-05)
(2.79852e-06 0.000143224 5.01893e-06)
(8.05113e-07 4.35201e-05 1.18708e-06)
(2.58987e-07 9.41555e-06 3.41772e-07)
(-1.45532e-05 0.00116993 5.58601e-05)
(-4.19585e-07 0.000428215 1.2753e-05)
(3.0428e-07 0.000142715 3.11976e-06)
(1.32587e-07 4.35919e-05 7.77917e-07)
(4.95486e-08 9.44658e-06 2.31261e-07)
(-4.62018e-05 0.0013946 9.55766e-05)
(-5.75048e-06 0.000465502 2.17734e-05)
(-6.26369e-07 0.000149848 5.0857e-06)
(-4.24266e-08 4.50804e-05 1.2247e-06)
(7.61768e-09 9.70604e-06 3.57122e-07)
(-2.75277e-05 0.00124217 6.66534e-05)
(-2.99065e-06 0.000447083 1.68222e-05)
(-2.59198e-07 0.000147492 4.22352e-06)
(1.71238e-10 4.47753e-05 1.06334e-06)
(1.12281e-08 9.67188e-06 3.1843e-07)
(-5.57727e-05 0.00141011 4.39498e-05)
(-7.45929e-06 0.000476782 1.33796e-05)
(-9.03356e-07 0.000153666 3.78398e-06)
(-8.86681e-08 4.61561e-05 1.03408e-06)
(-2.10777e-09 9.92328e-06 3.29339e-07)
(-3.57361e-05 0.00125811 4.06661e-05)
(-4.58864e-06 0.000457547 1.26764e-05)
(-5.84907e-07 0.000151122 3.63146e-06)
(-7.12866e-08 4.58135e-05 9.98123e-07)
(-8.40902e-09 9.88285e-06 3.1873e-07)
(-1.30952e-05 0.00117696 9.83855e-05)
(-1.24515e-06 0.000417281 1.48109e-05)
(4.49004e-08 0.000138206 2.36229e-06)
(7.1991e-08 4.21847e-05 4.07036e-07)
(3.39638e-08 9.14663e-06 8.89559e-08)
(-2.56191e-06 0.00104284 4.37862e-05)
(3.06086e-07 0.000400858 6.18115e-06)
(2.57154e-07 0.000135901 9.57277e-07)
(9.88118e-08 4.18326e-05 1.62114e-07)
(3.71761e-08 9.09824e-06 3.49188e-08)
(-2.51341e-05 0.00117386 9.48373e-05)
(-1.70131e-06 0.000417404 1.45834e-05)
(3.12356e-07 0.000138538 2.4779e-06)
(1.97529e-07 4.2341e-05 4.66411e-07)
(8.26818e-08 9.18573e-06 1.12478e-07)
(-3.37392e-06 0.00104641 4.12936e-05)
(1.30149e-06 0.000402032 5.89116e-06)
(7.07862e-07 0.000136348 9.51458e-07)
(2.46342e-07 4.19893e-05 1.71688e-07)
(8.84011e-08 9.13449e-06 3.98312e-08)
(-3.50874e-05 0.00116015 8.67324e-05)
(-1.76915e-06 0.000416792 1.41941e-05)
(5.04605e-07 0.000139044 2.63767e-06)
(2.65707e-07 4.25787e-05 5.4282e-07)
(1.05453e-07 9.24297e-06 1.41236e-07)
(7.63443e-06 0.0010533 3.75182e-05)
(3.88832e-06 0.000404276 6.21336e-06)
(1.27821e-06 0.000137181 1.2011e-06)
(3.73839e-07 4.22568e-05 2.58047e-07)
(1.22882e-07 9.19295e-06 6.97415e-08)
(2.37892e-05 0.0011406 9.50783e-05)
(8.14256e-06 0.00041843 1.88219e-05)
(2.30099e-06 0.000140168 4.15402e-06)
(6.18504e-07 4.29442e-05 9.75327e-07)
(1.92273e-07 9.32092e-06 2.78942e-07)
(2.04972e-05 0.00107703 4.84264e-05)
(5.12231e-06 0.000411794 9.24026e-06)
(1.29161e-06 0.000138994 2.0316e-06)
(3.30852e-07 4.27008e-05 4.78103e-07)
(1.00765e-07 9.27818e-06 1.37126e-07)
(1.92855e-05 0.00112138 5.6908e-05)
(5.61677e-06 0.000422477 1.45609e-05)
(1.49309e-06 0.000141407 3.73056e-06)
(3.88717e-07 4.32734e-05 9.54534e-07)
(1.18465e-07 9.3859e-06 2.88049e-07)
(-0.022148 0.806067 0.223867)
(-0.0310125 1.23464 0.39692)
(-0.0639061 0.826653 0.213442)
(-0.0923864 1.23672 0.385279)
(-0.103643 0.860462 0.200833)
(-0.156029 1.24003 0.356791)
(-0.129649 0.900208 0.192909)
(-0.215307 1.27495 0.336703)
(-0.128753 0.931735 0.192385)
(-0.212421 1.3497 0.355393)
(-0.137332 0.809067 0.0980596)
(-0.198429 0.977487 0.146199)
(-0.108963 0.846991 0.143718)
(-0.144494 1.07467 0.2309)
(-0.167509 0.797875 0.0594389)
(-0.240098 0.952136 0.082971)
(-0.175617 0.792076 0.0179852)
(-0.249365 0.944523 0.0294114)
(-0.049958 0.693343 0.801086)
(-0.0132619 0.129487 0.228581)
(-0.00426443 0.0314097 0.0759943)
(-0.00188825 0.0084739 0.034299)
(-0.00120553 0.00185797 0.0225478)
(-0.0153732 0.806407 0.219471)
(-0.00704532 0.238296 0.0700932)
(-0.000959201 0.064423 0.0263018)
(-0.000461495 0.0176959 0.0118082)
(-0.000174103 0.00391437 0.00745577)
(-0.162265 0.697565 0.785597)
(-0.0433817 0.126036 0.221416)
(-0.014056 0.0301019 0.0732178)
(-0.00627462 0.00808369 0.0329301)
(-0.00404418 0.00177605 0.021521)
(-0.0401514 0.807599 0.226858)
(-0.0108058 0.236238 0.0774257)
(-0.00341012 0.0632085 0.027035)
(-0.00145538 0.0172456 0.0122239)
(-0.000751603 0.00385382 0.00780323)
(-0.284324 0.704969 0.741611)
(-0.076814 0.123236 0.206344)
(-0.0252133 0.0288678 0.0678554)
(-0.0114123 0.00770708 0.0304609)
(-0.00744571 0.00169746 0.0198344)
(-0.0769558 0.812527 0.219459)
(-0.0240168 0.234103 0.0742277)
(-0.00843415 0.0618697 0.025663)
(-0.00397441 0.0168114 0.0114999)
(-0.00251594 0.00377103 0.00726452)
(-0.403532 0.713026 0.676931)
(-0.110633 0.119402 0.186137)
(-0.0371218 0.0274849 0.061266)
(-0.01716 0.00733512 0.0276632)
(-0.0113503 0.00162506 0.0180581)
(-0.116611 0.819948 0.207274)
(-0.0402515 0.231807 0.0684224)
(-0.0151764 0.0608181 0.0231897)
(-0.00748731 0.016566 0.0102392)
(-0.0049625 0.00374109 0.0063832)
(-0.559661 0.713739 0.578124)
(-0.159588 0.115698 0.158579)
(-0.0554772 0.0267357 0.0529402)
(-0.0263856 0.00725076 0.0243132)
(-0.0177383 0.00162931 0.0160226)
(-0.169846 0.821343 0.186108)
(-0.0651645 0.22944 0.0592145)
(-0.0256948 0.0607239 0.0197503)
(-0.012965 0.0168057 0.00865627)
(-0.0087616 0.0038473 0.00535683)
(-0.760733 0.66815 0.31913)
(-0.241444 0.130788 0.0952062)
(-0.0905866 0.0341273 0.0335688)
(-0.0453632 0.00999585 0.0159743)
(-0.0312212 0.00234641 0.0106898)
(-0.213083 0.724112 0.0892129)
(-0.0847806 0.232936 0.0262531)
(-0.0343928 0.0677547 0.00782296)
(-0.0177179 0.0201627 0.00302517)
(-0.0121479 0.00482822 0.00173094)
(-0.68936 0.688243 0.447352)
(-0.209862 0.124666 0.128735)
(-0.0759711 0.0307481 0.0442539)
(-0.0370979 0.00866749 0.0207318)
(-0.0252468 0.00199015 0.0137864)
(-0.200586 0.762496 0.128513)
(-0.0809246 0.231571 0.0396017)
(-0.0326314 0.0642458 0.0128754)
(-0.0166606 0.0183978 0.00553214)
(-0.0113562 0.00430127 0.00338262)
(-0.796331 0.658621 0.199538)
(-0.257977 0.135203 0.0614309)
(-0.0987192 0.0365033 0.022093)
(-0.0501683 0.0109697 0.0106247)
(-0.0347245 0.00261777 0.00713647)
(-0.21866 0.710226 0.0552088)
(-0.0843534 0.234478 0.016374)
(-0.033731 0.0701196 0.00464451)
(-0.017304 0.0214089 0.0015776)
(-0.0118579 0.00522404 0.000832859)
(-0.822303 0.655477 0.0723969)
(-0.266598 0.133481 0.0227287)
(-0.10282 0.0362813 0.00829822)
(-0.0527049 0.0110162 0.00403647)
(-0.0366131 0.00265244 0.0027274)
(-0.220235 0.704728 0.0243875)
(-0.0846746 0.233015 0.00674675)
(-0.0336254 0.0703673 0.00187544)
(-0.0167903 0.0216968 0.000732457)
(-0.011686 0.00534807 0.000307798)