/*--------------------------------*- C++ -*----------------------------------*\
| =========                 |                                                 |
| \\      /  F ield         | OpenFOAM: The Open Source CFD Toolbox           |
|  \\    /   O peration     | Version:  2412                                  |
|   \\  /    A nd           | Website:  www.openfoam.com                      |
|    \\/     M anipulation  |                                                 |
\*---------------------------------------------------------------------------*/
FoamFile
{
    version     2.0;
    format      ascii;
    arch        "LSB;label=32;scalar=64";
    class       volScalarField;
    location    "0.4";
    object      gradTz;
}
// * * * * * * * * * * * * * * * * * * * * * * * * * * * * * * * * * * * * * //

dimensions      [0 -1 0 1 0 0 0];

internalField   nonuniform List<scalar> 
5712
(
11340.8
34038.3
8747.8
36728.8
4696.96
37944.9
7527.21
57497.3
12061.1
71557
12717
52455.8
13817.4
47385.1
13783
41405.3
6181.58
3673.58
19145.3
9515
5732.2
2676.67
19801.5
7979.67
9048.34
7247.06
26461.5
20811.3
6050.73
5272.56
26457.1
21547.3
13733.9
5162.11
10926.2
4374.25
5410.16
13602.8
58863.6
17674.8
18019.2
7689.94
68322.4
20934.1
15783.5
6672.83
41254.3
13621.2
20999.8
9269.83
35510.6
11150.7
11898.6
6337.42
16784.4
7127.36
11215.9
6670.94
17427.2
6980.95
14066.1
8870.57
11206.2
5081.81
18346.4
6977.78
7066.35
2740.46
21667.8
16631.7
12378.8
11229.5
20143.3
17290.9
10575.9
10783.6
13049
11723.7
19034.1
16371.3
8674.31
7457.61
4460.35
3753.57
7423.51
7038.47
3632.69
3504.08
9292.5
7662.16
4937.05
3544.8
12211.7
7267.05
12924.6
14532.3
17713.3
13737.8
19211.5
25323.5
8279.12
3835.83
7928.48
8468.86
4324.67
1651.61
3325.95
3109.61
15481.7
28799.4
10651.1
32575
16680.3
28488.3
12522.1
34055.3
20439.8
26998.6
16698.8
33588.7
17134.6
15980.5
16825.5
17853.3
20475.9
10136.9
14720
22831.5
29032
43073.9
14040.2
14426.3
15915.5
21019.3
33317
34754.2
31880.8
40759.5
39087
33009.6
31144
40270.6
38067.9
29037.3
28390.1
37563
35962
11916.5
11668
15271.4
15122.8
20163.4
19899.3
25967.3
24689.2
35210.2
34052.1
10331.7
10859.5
14103.5
15420.5
18137.5
20003.6
23271.6
25455.7
32921.1
34890.7
13217.6
8282.55
10155.2
8604.17
12455.1
11458.1
9742.22
10462
10865.5
9389.49
14545.6
9740.4
4688.25
5944.36
1417
1891.89
5792.03
7413.34
1755.23
2434.98
4774.03
6138.28
1407.32
1957.39
11688.2
8833.44
13529.8
7894.9
17283.1
11650.7
21671.6
13788.4
5866.45
5394.54
7487.5
3968.7
3816.99
3563.62
4280.16
2942.54
26546.9
16677.9
5435.96
29040.1
17458.2
5859.92
25470.7
15911.9
5394.94
28327.8
17085.5
5652.74
23162.8
14166.5
4575.83
26892.2
16270.6
5373.86
8174.2
4696.14
1390.02
12257.3
7768.03
2439.75
16389.6
10466.8
3375.89
20077.1
12331.5
3933.25
25059
14973.4
4991.1
8329.83
4488.81
1496.82
11485.4
7140.75
2483.48
14864.8
9274.44
3160.39
18757.3
11263.1
3755.42
23561.2
13128.6
4396.97
-533.605
788.768
234.731
2356.71
2394.38
2061.72
5990.98
4802.1
568.441
695.079
600.734
727.527
269.155
641.471
497.456
956.572
1141.33
830.87
2970.56
2230.79
1182.32
1682
2861.73
-217.143
7393.9
1587.78
-5356.42
-2274.7
-127.881
-564.7
-1257.06
-1498.15
7130.67
2391.45
1815.25
827.594
7027.31
2348.5
1901.29
893.545
6655.94
2382.18
2183.48
1012.23
1455.24
504.898
36.6722
51.1933
12676.5
10446.5
5161.2
6365.09
17141.3
15263.3
8096.39
9143.45
3703.62
4369.8
8873.05
6720.77
2924.16
3849.85
1108.12
1769.86
5119.68
5654.29
2342.49
2730.42
1654.62
2610.03
385.049
1206.09
2620.26
1225.51
2848.59
1210.38
5133.88
1983.9
4038
1687.59
1143.95
627.926
1773.83
696.896
155.906
139.861
852.245
274.588
7775.33
3903.07
2843.98
2238.32
7786.62
4016.42
2721.54
2168.33
7985.23
4111.58
2648.62
2017.79
12520.5
14798.4
9528.8
5876.85
2190.81
8525.38
8209.43
7002.15
5186.04
2292.36
12400.1
8968.71
5945.84
3707.02
1513.09
2256.32
1465.89
1693.51
1323.74
2433.97
1611.52
1700.87
1363.34
2670.26
1878.27
1691.1
1408.55
9021.89
7861.33
6643.96
5082.17
3912.76
3268.25
2779.69
2265.92
1539
1440.99
6820.85
6965.26
4728.11
4677.43
3241.58
3118.46
2235.32
2121.2
1134.97
1376.48
4528.21
3213.36
3004.8
1780.76
7887.27
5197.07
6094.43
3637.02
1723.09
1064.87
2681.17
2088.44
3120.77
1444.62
1016.36
512.766
4956.89
2695.95
1530.14
949.031
1968.64
852.64
673.41
293.218
876.603
858.306
594.239
819.213
1491.54
1414.38
732.341
1061.78
1014.73
578.138
379.744
571.521
238.844
35.9061
-186.272
-5.97496
917.278
400.035
109.092
749.481
210.729
55.7596
1050.14
487.119
142.372
799.91
239.058
65.8119
1240.52
598.735
164.243
851.161
268.579
72.2282
4992.05
2686.07
771.568
3126.33
1663.61
485.302
2190.02
1117.09
329.454
1475.24
714.674
197.645
909.177
289.762
77.8576
5232.44
2615.12
830.256
3473.98
1714.69
538.079
2323.67
1127.69
345.338
1544.63
690.547
203.394
1046.95
320.469
98.3044
632.599
157.58
48.3319
13.1088
249.265
63.8028
20.5656
5.61186
619.543
157.623
52.0115
14.6789
256.878
69.2451
26.9224
8.09441
658.649
172.981
61.4682
18.1354
333.384
98.4418
28.9136
8.55677
116.96
43.9209
2.37695
0.569572
41.5709
24.3963
1.99726
0.467442
436.279
125.047
38.3015
10.3376
378.87
106.618
40.6629
11.0195
632.158
171.315
62.3665
17.3823
510.836
137.6
54.9493
12.2477
240.651
74.4793
20.7813
7.11348
229.953
68.2626
25.7097
7.78167
84.3136
31.5615
8.66064
2.91041
86.2109
29.3583
11.4893
3.87062
767.316
193.319
61.963
16.6926
700.424
181.424
67.6823
16.688
739.979
188.471
62.9872
16.7628
667.977
173.115
65.9162
15.7043
712.002
183.774
67.8278
18.1778
597.237
154.275
62.3871
14.6982
604.426
157.127
63.4231
18.8054
632.672
161.555
73.5672
18.4264
436.033
113.726
46.4837
11.5795
492.525
124.573
48.8971
11.621
175.494
42.5592
15.1282
3.99473
488.643
123.186
48.0907
11.1602
180.598
43.7419
15.6248
4.15444
463.794
115.366
46.4037
10.3913
177.758
42.5873
15.7719
4.28078
397.274
96.6416
42.6052
9.97397
161.656
37.4305
15.85
4.42322
346
84.5689
38.0678
9.67795
149.103
34.9019
15.523
4.32528
224.235
60.2556
22.3252
5.72866
106.163
29.8747
9.53203
2.77906
274.422
69.5431
29.8201
7.53321
126.565
32.2008
12.8337
3.77427
149.321
43.7404
15.145
4.36073
73.3796
22.5956
6.12354
1.92365
61.842
21.3718
7.86604
2.58793
34.1748
12.4483
3.82147
1.33617
2.28749
0.370886
0.0616968
0.0109723
0.00246906
0.928743
0.156282
0.0268271
0.00491096
0.00113626
2.29724
0.391317
0.0718422
0.0144
0.00366084
1.1037
0.219608
0.0466085
0.0105304
0.00293936
2.7029
0.522855
0.109542
0.024602
0.00683329
2.52408
0.615195
0.150575
0.0373701
0.0110877
2.02357
0.546804
0.139772
0.0354557
0.0106697
1.07709
0.356203
0.102825
0.028285
0.0090295
2.62069
0.55081
0.124176
0.0293285
0.00843378
1.8971
0.410561
0.0947301
0.0226761
0.00656566
2.77387
0.561039
0.125473
0.029677
0.00854431
1.3965
0.318825
0.0779939
0.0194479
0.00578152
2.38941
0.544335
0.127143
0.0306176
0.00892806
1.66633
0.420555
0.105588
0.0265834
0.00796075
1.09874
0.334491
0.0945995
0.0258519
0.00823348
1.01665
0.316911
0.0907866
0.0249531
0.00796825
2.45964
0.370273
0.0590572
0.0101759
0.0022239
1.09465
0.154529
0.0239319
0.00405284
0.00087297
2.37093
0.364585
0.0619474
0.0116603
0.00281194
1.03234
0.147279
0.0237864
0.0042922
0.00099578
2.16831
0.354852
0.0659418
0.0135705
0.00353091
0.937955
0.155334
0.0300275
0.00645118
0.00174354
2.37696
0.470548
0.103851
0.0243832
0.00697356
1.21066
0.231007
0.0507901
0.0119526
0.00342815
1.4227
0.364022
0.093264
0.0238634
0.00720123
5596.67
9922.99
5336.06
9631.96
5020.82
8919.79
4822.73
8417.59
4809.62
8884.83
2451.49
3654.98
3592.95
5772.51
1485.97
2074.27
449.631
735.284
20027.2
5714.53
1899.86
857.474
563.696
5486.79
1752.33
657.544
295.205
186.394
19639.9
5535.4
1830.44
823.253
538.026
5671.45
1935.64
675.875
305.597
195.081
18540.3
5158.61
1696.39
761.523
495.86
5486.48
1855.69
641.575
287.499
181.613
16923.3
4653.44
1531.65
691.58
451.453
5181.84
1710.56
579.742
255.979
159.58
14453.1
3964.48
1323.5
607.831
400.566
4652.69
1480.36
493.757
216.407
133.921
7978.24
2380.16
839.219
399.357
267.245
2230.32
656.329
195.574
75.6294
43.2735
11183.8
3218.36
1106.35
518.295
344.66
3212.83
990.042
321.884
138.304
84.5654
4988.45
1535.77
552.324
265.618
178.412
1380.22
409.349
116.113
39.4399
20.8215
1809.92
568.218
207.455
100.912
68.1851
609.688
168.669
46.886
18.3114
7.69495
-2914.58
-40.4789
5673.27
-4436.35
1101.36
1177.17
2939.29
3647.39
2553.89
4175.4
3685.75
5562.49
3881.1
5004.49
1841.3
2626.4
1837.91
2144.67
1231.03
1275.78
1920.6
1126.3
109.472
-20.4932
-2.95441
-25.7898
68.6649
10422
3893.73
3529.06
2899.5
725.727
435.132
2089.04
276.028
277.114
202.016
86.3247
5004.69
2396.48
1193.33
621.99
1631.21
832.194
259.393
364.141
44.3569
88.0565
555.039
494.189
6859.57
2527.77
3188.4
1433.51
1418.78
2355.23
319.164
83.6495
472.871
1107.32
792.365
547.102
379.607
204.145
770.1
519.531
346.047
210.564
70.8039
89.6537
67.676
46.0261
26.4872
8.62326
-16.626
-12.3166
-8.17015
-4.58957
-1.46979
-2.88509
-2.56071
-1.90786
-1.11905
-0.364054
-21.8178
-16.9793
-11.7317
-6.74991
-2.19013
57.2076
43.9318
30.3098
17.5938
5.73858
6572.57
4792.44
3185.83
2099.47
1229.84
2801.46
1818.41
1225.39
757.304
270.081
2518.02
1693.78
1119.97
676.549
239.287
1976.23
1280.33
833.64
492.296
165.461
501.721
319.431
208.987
121.694
43.2076
354.009
264.68
179.012
103.202
33.7184
1553.64
1073.87
699.108
403.938
135.163
236.873
181.602
123.807
72.077
23.7581
222.557
165.038
111.176
64.0013
20.9705
171.395
132.628
91.6768
53.5096
17.596
66.1133
46.8518
30.5775
17.34
5.67075
2922.58
2262.65
1537.03
1065.1
678.354
1731.35
1166.93
779.731
471.411
157.282
947.177
692.806
463.538
267.1
87.4786
492.569
359.451
239.974
137.892
45.0167
1246.42
881.073
579.25
333.102
109.566
673.384
495.996
332.708
190.507
60.5031
206.52
151.607
101.899
58.7662
19.0873
297.28
222.92
150.837
86.5631
28.0493
36.7004
28.0654
19.4944
11.5113
3.81376
71.728
53.7761
36.4652
21.0307
6.86343
446.077
329.924
220.985
126.341
41.125
399.023
296.316
199.026
113.875
37.0136
3978.81
2671.89
1856.31
1287.85
704.165
1739.7
1176.62
781.77
473.699
163.733
2179.67
1501.15
1004.8
635.636
216.788
1010.02
712.587
477.249
286.755
104.404
1099.53
787.404
522.591
301.45
98.4154
1757.2
1127.16
743.06
442.367
115.064
258.648
192.665
130.169
74.8674
24.2513
67.8055
50.5435
34.1035
19.599
6.379
381.585
282.009
189.561
108.828
35.0685
-49121.5
-73883.1
-37817.8
-62557.4
-37968.9
-82581.7
-49302.8
-100515
-28750.6
-20364.1
-30402.5
-17486.2
-25701.6
-17489.8
-29488.6
-15091.4
-43122.6
-32158.4
-57206.5
-43336.9
-34525.7
-26872
-48978.8
-38443.9
-25518.6
-27595.7
-18628.2
-19820.4
-24069.9
-23579.5
-67647.4
-20761.2
-22932.2
-11037.4
-76082.5
-24380.5
-20267.4
-10147.6
-49741.9
-16380.1
-25641.5
-12128.3
-43640.7
-13148.3
-22424.6
-9796.61
-29441
-11328.9
-19802
-9172.81
-27115.7
-9994.49
-20717
-10637.3
-16830
-6764.93
-22782.4
-8405.9
-8873.05
-3405.27
-18854.8
-14606.5
-15243.7
-11949.1
-15291.5
-13195.6
-12786.6
-10970
-16071.4
-12718.5
-19349.5
-16188.8
-11311.2
-8736.53
-6726.57
-5199.17
-9749.83
-8090.78
-5808.95
-4841.47
-11851.1
-8916.81
-7006.15
-4868.18
-14925.8
-8270.43
-13864.1
-15000
-20029.6
-14701.5
-19807.1
-25681.1
-10342.7
-4577.46
-8905.37
-8908.81
-5892.4
-2221.45
-4301.48
-3507.41
-20721.4
-27156.1
-12449.2
-32747.7
-20699.9
-26378.5
-13836.6
-33945.3
-22956.9
-25248.6
-17442.8
-33186
-12266.2
-7845.81
-16477.2
-19926.7
-21258.3
-9897.57
-14887.1
-23041.1
-28589
-42845.7
-9634.54
-11995.8
-15156
-20970.4
-33422.6
-28728.8
-22893.9
-37830.7
-30699.6
-27546.5
-23011.1
-37771.3
-30800.1
-24978.3
-21683.2
-35528.5
-30293.5
-12789.2
-11121.4
-15174.6
-13203.3
-18232.5
-16332.8
-22633.6
-20014.3
-33520.9
-29871.9
-9649.83
-9874.33
-12635.6
-12838.1
-16156.2
-16427.5
-21237.2
-21381.1
-31826.3
-30806.4
-11995.6
-7643.99
-9955.33
-8421.24
-10744.1
-10590.3
-9184.01
-9998.69
-10960.8
-9374.78
-13882.8
-9233.82
-5069.8
-6090.34
-2050.34
-2207.86
-5955.58
-7358.09
-2255.84
-2601.71
-5242.52
-6379.1
-2055.12
-2322.23
-11929.8
-8896.66
-13779.4
-7953.92
-17014.7
-11229.4
-21677.5
-13378.6
-6298.85
-5653.24
-7829.44
-4180.63
-4359.98
-3915.21
-4651.9
-3209.83
-16339.4
-6211.22
-19005.9
-6591.32
-16531.1
-6256.91
-19753.3
-7234.09
-16009.5
-5879.95
-20670.3
-7997.37
-6710.83
-2029.52
-9135.07
-3301.06
-11764.4
-4493.78
-14900.9
-5485.89
-20345
-7776.89
-6827.17
-1873.07
-8565.2
-3158.39
-10964
-4107.61
-14362.8
-5253
-18793.3
-6370.23
-9927.22
-9095.47
-7563.06
-6628
-16455.8
-12923
-13404
-10316.4
-7082.2
-5233.78
-2891.25
-1983.13
-6723.19
-5312.78
-2776.94
-2221.74
-4610.6
-7360.47
-5544.42
-8442.51
-5508.51
-3665.77
-5900.72
-2765.1
-11059.5
-4982.77
2111
-694.019
-2121.49
-1777.84
-727.926
-625.252
-2613.98
-991.111
-1128.28
-365.059
-2744
-1107.06
-1393.23
-458.894
-3187.88
-1305.02
-2193.03
-669.22
-2179.12
-528.543
-1219.46
-266.537
-7306
-6664.77
-5771.18
-5689.06
-11354.8
-10450.7
-9423.92
-8738.92
-3646.4
-3668.48
-4968.94
-4286.81
-4315.99
-4174.59
-2662.48
-2488.77
-6994.35
-6324.67
-4281.75
-3788.61
-2475.07
-2671.66
-1453.8
-1601.32
-2149.32
-876.382
-2281.55
-891.826
-2850.35
-1195.22
-2622.45
-1092.46
-1459.55
-589.103
-1697.85
-584.587
-755.695
-242.595
-1015
-268.861
-2619.58
-2144.15
-1294.44
-1418.86
-2765.48
-2346.21
-1328.84
-1437.96
-3291.84
-2516.02
-1465.5
-1413.75
-4228.24
-5505.96
-3723.94
-2650.69
-1191.42
-7134.02
-5305.37
-4007.84
-3107.8
-1549.11
-7316.99
-4943.26
-3333.36
-2178.17
-876.9
-2200.82
-2248.15
-1744.31
-2323.66
-2308.21
-2220.39
-1635.66
-2154.97
-2441.66
-2455.59
-1515.34
-1924.76
-9898.76
-8078.04
-6822.4
-5476.58
-3908.09
-3669.63
-2640.56
-2587.92
-1335.72
-1744.72
-6472
-6669.21
-4210.65
-4529.03
-2685.25
-2970.62
-1790.74
-2003.64
-738.367
-1334.91
-3216.41
-2686.63
-2408.16
-1435.84
-6199.14
-4550.61
-5404.8
-3233.39
-1261.22
-788.898
-1803.6
-1696.81
-3020.43
-1337.81
-1207.27
-552.431
-4931.07
-2597.69
-1863.59
-1029.38
-1840.01
-755.231
-754.043
-302.77
-570.482
-670.098
-413.354
-714.991
-955.61
-1161.9
-462.011
-951.798
-898.367
-501.489
-287.14
-515.441
-243.011
-25.4027
214.168
24.1614
-1817.73
-694.294
-1556.11
-236.761
-1818.77
-790.527
-1473.68
-243.392
-1787.71
-660.614
-1192.69
-131.399
-4682.56
-1377.92
-3318.33
-1042.36
-2612.81
-891.083
-1668.95
-494.159
-1108.96
-142.686
-4582.32
-1134.65
-3211.25
-809.655
-2253.44
-590.421
-1482.9
-315.982
-1158
-180.614
-324.969
-90.4722
-32.7944
-9.55413
-124.685
-34.8414
-13.6854
-4.12778
-335.735
-92.0952
-36.1988
-10.8244
-123.946
-34.0918
-17.5391
-5.71334
-389.378
-105.701
-43.7077
-12.867
-178.946
-46.7848
-10.3158
-1.60587
-52.9849
-8.87917
13.2768
5.52565
-17.1416
5.53717
13.0766
5.1682
-301.327
-81.2496
-22.9596
-4.82165
-257.512
-66.7644
-27.7826
-6.41628
-417.008
-113.116
-45.596
-11.2321
-330.811
-86.4509
-41.3309
-7.18733
-179.031
-45.0914
-8.36344
-2.39622
-163.236
-40.3531
-14.8584
-3.54455
-60.8684
-9.92907
2.44042
1.70567
-49.8401
-8.46961
-2.10826
0.088755
-426.669
-117.894
-46.1782
-12.8198
-466.359
-121.136
-59.5482
-13.7272
-423.66
-115.837
-47.8234
-12.9094
-456.741
-117.753
-58.6248
-12.9256
-434.457
-116.433
-53.9932
-14.4865
-424.07
-108.179
-56.5017
-12.136
-345.741
-89.347
-47.4344
-13.0413
-428.241
-106.76
-65.0849
-14.8314
-260.5
-65.9759
-33.7796
-5.2923
-387.418
-86.7141
-45.5949
-9.77604
-155.944
-30.5113
-13.5548
-3.38094
-355.131
-80.1149
-43.5535
-9.16534
-146.228
-28.8695
-13.4215
-3.38443
-307.337
-68.213
-40.8529
-8.43456
-128.263
-24.9376
-12.8204
-3.28498
-261.77
-57.2181
-37.4336
-8.14631
-115.234
-22.2063
-12.9968
-3.29557
-210.31
-46.9787
-31.0369
-7.13424
-86.9078
-17.0866
-11.4448
-2.7355
-150.54
-35.697
-14.7638
-2.58313
-45.2266
-9.19252
-3.39542
-0.440498
-186.195
-43.9468
-23.3435
-4.70217
-58.6616
-11.83
-7.32
-1.65079
-96.6129
-22.2857
-7.68272
-1.31258
-31.9968
-5.5281
-0.457979
0.291922
-27.3456
-3.61587
-1.06762
0.266691
-7.81869
1.2606
1.1641
0.689319
-1.63429
-0.238005
-0.0320515
-0.00386551
-0.000364406
-0.641746
-0.0953712
-0.0128093
-0.00148308
-0.000108484
-1.45443
-0.193379
-0.0225833
-0.00173512
0.00025471
-0.486575
-0.0577294
-0.00353491
0.000957031
0.000685211
-1.26223
-0.147527
-0.00991198
0.00197519
0.00156265
-0.420614
-0.00457143
0.0205895
0.00959731
0.00398697
-0.12057
0.0433706
0.0320014
0.0127602
0.00504284
0.703479
0.21287
0.0670841
0.0202338
0.00696799
-1.06284
-0.10545
0.000552581
0.0050069
0.00263162
-0.650677
-0.0630653
0.00212676
0.00399424
0.00204215
-0.992332
-0.0869516
0.00240829
0.00475946
0.00239376
-0.132498
0.0103285
0.010275
0.00427007
0.00174289
-0.883515
-0.0730757
0.011089
0.0084415
0.00387312
-0.284651
0.00750981
0.0196957
0.00881352
0.00364386
0.464811
0.175894
0.0590965
0.0182498
0.00635836
0.430464
0.166097
0.0558985
0.0173193
0.00605971
-1.82173
-0.248703
-0.0329546
-0.00406227
-0.000439397
-0.826498
-0.105902
-0.013726
-0.00169154
-0.000188826
-1.66313
-0.211876
-0.0258372
-0.00264532
-7.26534e-05
-0.760678
-0.0931011
-0.0114855
-0.00128856
-9.43664e-05
-1.34632
-0.160654
-0.0171712
-0.000943515
0.000392116
-0.518363
-0.0546402
-0.00464583
0.000109374
0.000287161
-0.740994
-0.0586626
0.00377684
0.00405875
0.00195224
-0.385408
-0.0233216
0.00314929
0.00221779
0.000997266
0.275145
0.0720222
0.0217375
0.0066428
0.00238213
-5664.54
-9122.85
-5460.33
-8973.21
-5147.77
-8434.3
-4930.46
-8056.56
-4804.45
-8460.24
-2605.67
-3729.68
-3664.69
-5682.93
-1701.7
-2229.33
-691.897
-920.545
-20729
-5874.58
-1933.71
-864.116
-565.093
-5630.85
-1798.25
-669.401
-297.59
-186.836
-20270.6
-5679.45
-1861.07
-829.278
-539.304
-5831.48
-1988.09
-688.151
-308.152
-195.628
-19027.3
-5273.09
-1721.14
-766.448
-496.92
-5640.98
-1903.83
-652.729
-289.81
-182.113
-17252.6
-4734.4
-1549.63
-695.222
-452.257
-5307.01
-1749.59
-588.835
-257.865
-159.991
-14647.2
-4015.13
-1335.06
-610.202
-401.096
-4730.34
-1507.25
-500.221
-217.77
-134.225
-8064.29
-2400.81
-843.883
-400.33
-267.474
-2278.53
-670.6
-198.964
-76.3425
-43.4432
-11305.8
-3249.82
-1113.57
-519.791
-345.002
-3257.91
-1006.53
-325.946
-139.167
-84.7635
-5052.43
-1550.21
-555.523
-266.295
-178.576
-1438.04
-424.032
-119.436
-40.1357
-20.9895
-1861.08
-579.222
-209.847
-101.416
-68.3058
-672.989
-183.829
-50.1962
-18.9936
-7.83957
-1484.65
-4385.27
-10465.4
-916.205
-10559.2
-4735.03
-10199.7
-4950.82
-18249.1
-9948.31
-21227.4
-11460
-1.77592
-5.69874
-10.0508
-13.1284
-8.44446
20.7901
-4.00523
-13.09
-24.1351
-34.6552
-34.0082
3.98818
-0.918082
-0.668851
-2.79586
-2.2395
-3.8556
-3.95058
0.0146582
-3.16898
7.4502
-1.89232
15.0928
2.12314
125.099
394.231
955.012
810.709
763.026
276.933
129.32
400.388
798.308
985.208
895.151
358.015
-1.53316
-1.22563
-0.873715
-0.516915
-0.170358
-4.91499
-3.92452
-2.79454
-1.652
-0.544228
-8.64759
-6.88453
-4.88777
-2.88279
-0.948526
-11.2678
-8.9433
-6.3302
-3.72482
-1.22404
-7.2877
-5.81666
-4.13697
-2.44178
-0.803462
17.264
13.2025
9.03317
5.19335
1.68797
-3.44532
-2.74215
-1.94606
-1.14729
-0.377391
-11.2434
-8.93302
-6.32923
-3.72705
-1.22528
-20.6589
-16.3468
-11.5362
-6.77307
-2.22323
-29.5292
-23.2417
-16.3195
-9.54649
-3.12777
-28.8426
-22.5805
-15.7786
-9.19935
-3.00911
3.1644
2.28962
1.48458
0.821662
0.262381
-0.79551
-0.638765
-0.457456
-0.271655
-0.0897164
-0.580926
-0.46785
-0.336102
-0.200098
-0.0661764
-2.42026
-1.94109
-1.38849
-0.823793
-0.271932
-1.94204
-1.56097
-1.11912
-0.665175
-0.219788
-3.33255
-2.66745
-1.90415
-1.12788
-0.371974
-3.41477
-2.73366
-1.95162
-1.15603
-0.38125
-0.0234023
-0.0518685
-0.0602294
-0.0460888
-0.0170125
-2.73699
-2.18849
-1.56023
-0.92301
-0.304157
6.27399
4.87204
3.37706
1.95703
0.638177
-1.63844
-1.31202
-0.934897
-0.551901
-0.181505
12.601
9.69857
6.67858
3.85857
1.25711
1.71069
1.26362
0.840888
0.476792
0.154213
103.835
79.4172
54.4235
31.3613
10.2088
322.337
242.886
164.797
94.6195
30.7803
761.166
560.673
376.136
216.018
70.4673
631.432
466.206
314.479
182.583
61.4689
602.968
443.425
296.106
169.433
54.9757
229.729
172.091
114.773
64.6427
20.7313
107.146
81.7768
55.9318
32.1881
10.4717
328.343
248.103
168.549
96.7568
31.4702
646.04
482.436
325.522
186.66
60.7904
788.781
585.202
393.753
226.061
73.9596
713.53
526.537
352.957
202.294
65.9666
286.476
211.745
142.046
81.4265
26.5553
1.85822
5.84982
10.3845
13.884
10.1536
-16.9294
4.14214
13.3024
24.5002
35.2442
34.9179
-2.49145
0.969783
0.704867
2.90126
2.3234
4.08928
4.15553
0.426038
3.52228
-6.07389
1.35032
-9.25694
0.154056
-117.695
-382.285
-932.634
-794.782
-765.064
-293.158
-126.698
-395.716
-790.491
-979.273
-896.313
-365.798
1.60693
1.28744
0.920081
0.545553
0.180032
5.04964
4.0367
2.87818
1.7034
0.561542
8.94344
7.12928
5.06892
2.99346
0.985686
11.9331
9.48918
6.73078
3.96785
1.30532
8.78055
7.02987
5.01835
2.97216
0.980022
-13.9212
-10.5156
-7.10329
-4.04282
-1.30703
3.56905
2.84683
2.02536
1.19666
0.394141
11.4353
9.09543
6.45228
3.80365
1.25126
20.989
16.6262
11.7477
6.90476
2.26791
30.0606
23.6904
16.6585
9.75706
3.19914
29.6549
23.2582
16.2844
9.51053
3.11402
-1.86211
-1.23515
-0.721416
-0.363904
-0.110337
0.84156
0.677086
0.485997
0.289179
0.0956148
0.612947
0.494428
0.355844
0.212193
0.0702442
2.51363
2.01824
1.44552
0.858599
0.283612
2.01626
1.62219
1.1643
0.69271
0.22902
3.53815
2.83592
2.02759
1.20267
0.396969
3.59515
2.88152
2.06002
1.22174
0.403219
0.407199
0.362351
0.284668
0.180569
0.0616769
3.04578
2.43945
1.74259
1.03279
0.340721
-5.08281
-3.91568
-2.69102
-1.5484
-0.50288
1.19332
0.978905
0.714463
0.42981
0.142842
-7.57256
-5.68294
-3.81298
-2.15837
-0.695454
0.261576
0.322359
0.299876
0.204816
0.0718869
-97.4813
-74.3739
-50.8479
-29.2516
-9.51387
-312.205
-234.95
-159.244
-91.3797
-29.7205
-742.184
-545.745
-365.608
-209.826
-68.4303
-615.97
-452.273
-303.374
-175.389
-59.0112
-601.133
-438.976
-290.866
-165.216
-53.3216
-239.371
-176.124
-115.13
-63.5314
-20.043
-104.935
-80.056
-54.7382
-31.498
-10.2476
-324.482
-245.167
-166.562
-95.634
-31.111
-639.473
-477.323
-321.959
-184.588
-60.1159
-783.174
-580.238
-389.842
-223.553
-73.1003
-713.123
-524.928
-350.877
-200.581
-65.3012
-291.108
-213.576
-142.011
-80.7208
-26.1742
-1988.03
-1156.56
-83.0262
39.1686
29.722
60.4259
-22.1044
-9373.44
-2789.24
-2939.62
-1421.94
-144.21
-1953.69
-10.541
417.206
15.4748
-4659.82
-2055.92
-887.346
-501.437
-1534.14
-709.306
-224.203
-285.379
105.372
21.3383
-407.983
-392.06
-6767.99
-2508.17
-3053.67
-1379.57
-1352.28
-2142.6
-246.78
5.64352
-366.126
-1142.11
-803.517
-545.214
-372.347
-199.207
-786.66
-525.353
-345.321
-207.445
-69.0194
-66.918
-49.5659
-33.1236
-18.8336
-6.09293
32.7728
25.2634
17.4554
10.127
3.30587
25.8092
20.7368
14.7986
8.74103
2.88005
51.4243
40.4093
28.3195
16.5436
5.41965
-17.3243
-12.2914
-7.84623
-4.29201
-1.34193
-5869.81
-4355.37
-2931.42
-1986.24
-1257.25
-1933.31
-1201.5
-814.394
-511.62
-172.155
-2064.91
-1372.4
-907.286
-553.579
-197.407
-956.686
-611.86
-420.274
-262.002
-85.6729
-114.581
-83.5042
-55.1981
-31.2354
-9.94715
-1461.23
-1021.34
-674.733
-395.847
-133.414
-5.20359
-1.61427
-0.311989
-0.146526
-0.0983721
328.154
238.458
158.914
91.6064
30.3926
16.6108
15.2435
11.324
6.52728
2.03663
-2641.32
-2041.7
-1382.82
-977.488
-663.942
-1444.58
-944.373
-621.851
-375.96
-124.826
-693.452
-499.774
-330.899
-189.627
-61.7367
-392.174
-282.455
-186.892
-107.021
-34.8661
-1172.3
-829.556
-547.754
-317.154
-104.949
-566.738
-410.387
-270.956
-153.186
-47.8952
-176.097
-127.176
-84.3151
-48.2303
-15.5776
-230.191
-170.087
-113.561
-64.5564
-20.7724
87.9788
67.7618
46.7422
27.0959
8.88257
20.1806
17.5371
13.1591
7.95828
2.661
-325.298
-238.748
-159.228
-90.9943
-29.6317
-313.891
-230.968
-154.095
-87.9005
-28.5302
-3901.51
-2607.44
-1807.86
-1259.3
-699.049
-1719.81
-1157.81
-766.137
-463.314
-160.198
-2049.2
-1391.1
-919.412
-580.642
-195.752
-960.682
-670.419
-444.993
-266.455
-97.7083
-1042.71
-742.545
-490.671
-282.419
-92.0327
-1577.1
-983.806
-640.118
-380.153
-93.3372
-196.467
-143.166
-94.871
-53.865
-17.2807
7.55091
8.20946
6.92544
4.39912
1.50227
-290.246
-209.722
-138.181
-78.2129
-24.858
-29.5575
-83.1166
-139.338
-213.424
-319.194
-446.285
-35966.6
-30102.6
-26653.9
-31692.4
-25905.3
-20598.9
-22337
-17235.2
-34399
-28461.3
-29636.3
-25870.3
-25989.8
-20734.5
-24749
-30852.1
-27281.6
-22996.4
-26059.7
-23217.7
-18286
-19449.8
-14630.5
-31562.5
-27479.2
-28702.5
-25771.5
-24833.4
-20593.7
-24689.4
-24242.8
-22276.9
-18588.4
-20318.9
-19400.6
-16122.9
-16272.8
-13496.5
-25483.3
-24483.3
-24146.2
-23806.2
-21841
-18732.2
-22942.7
-16630.5
-15888.5
-13184.2
-13889.5
-14550.5
-13395.8
-12174.3
-11325.3
-18401
-20577.5
-17858.9
-20120.8
-17028.5
-15522.6
-19507
-10477.8
-10222.8
-8377.21
-8659.27
-9818.78
-9694.94
-7963.91
-7710.36
-12292.1
-15329.2
-12095.8
-14739
-12045.3
-11698.8
-14385.1
-3742.42
-3682.37
-2988.83
-3068.4
-3620.74
-3735.32
-2854.65
-2743.72
-4726.41
-6319.8
-4661.58
-5826.91
-4755.24
-4765.06
-5665.42
-11828.9
-11465.9
-17610.2
-19560
-11125.2
-9998.73
-16080
-13094
-8822.27
-4886.78
-8703.99
-4841.69
-8437.66
-8434.91
-4920.4
-11402.3
-10819.7
-16334.5
-17839.7
-10055.9
-8336.4
-14522.9
-11406.5
-7013.41
-2492.27
-6707.61
-2602
-5572.66
-5215.58
-2795.73
-9741.37
-9231.42
-13771.7
-14771.5
-8635.27
-7258.67
-12423.5
-10361.2
-4670.89
-2330.65
-4375.76
-2658.92
-3810.6
-3792.77
-2969.74
-7250.55
-6939.45
-10065.6
-10558.6
-6552.67
-5781.12
-9385.82
-8458.2
-4326.7
-2350.03
-4212.88
-2714.57
-3948.47
-4065.27
-3010.88
-4667.29
-4480.08
-6425.09
-6661.31
-4174.96
-3766.41
-6072.92
-5574.51
-2933.16
-2016.01
-2875.97
-2223.99
-2858.24
-2988.71
-2361.39
-1658.73
-1596.51
-2289.21
-2362.78
-1517.83
-1430.91
-2168.67
-1994.13
-1013.99
-920.275
-1029.09
-980.109
-1095.64
-1174.44
-988.689
11214.6
33370
8731.7
36744.1
4689.42
37951.1
7523.96
57496.8
12055.7
71552.6
12704.4
52450
13795.8
47374.3
13615
40498.4
6178.41
3673.02
19147.3
9515.63
5730.48
2676.21
19801
7979.54
8942.76
7162.49
25985.8
20440
6037.22
5266.8
26480.7
21576.8
13742.7
5159.73
10928.4
4374.06
5410.47
13615.7
58869.3
17675.7
18020.7
7690.08
68323.8
20934.1
15783.9
6672.77
41266.3
13623.6
21002.9
9270.65
35527.7
11153.7
11813.3
6264.56
16472.6
6983.56
11224.3
6671.61
17455.5
6987.96
14070.9
8871.47
11215.4
5084.79
18356.8
6981.31
7068.95
2741.44
21667.3
16631.5
12379
11229.4
20143.1
17290.7
10575.8
10783.5
13049.9
11723.9
19034
16371.2
8674.76
7457.7
4460.23
3753.47
7423.59
7038.47
3632.6
3504.04
9293.63
7662.4
4937.2
3544.76
12213.7
7267.89
12924.9
14532.3
17714.6
13738.1
19211.5
25323.1
8281.03
3836.6
7928.81
8469.02
4325.18
1651.85
3325.99
3109.66
15490.7
28889.4
10613.6
32661.9
16691.6
28469.2
12527.1
34036.6
20441.1
26991.5
16698.2
33581.8
17134.3
15980.4
16825.3
17854.5
20475.1
10136.7
14719.5
22830.1
29029.3
43070
14040
14426
15915.2
21019
33316.1
34846.7
31934.5
40870.1
39083.7
32993.5
31138.6
40256.6
38077.6
29031
28387.2
37558.2
35964.3
11916.2
11667.6
15270.7
15122.1
20161.8
19898.2
25963.7
24687.5
35207.9
34052.5
10331.4
10859.1
14102.9
15419.9
18136.6
20002.9
23270.4
25455
32920.4
34890.7
13217.3
8282.41
10155.1
8604.11
12454.8
11457.8
9742.06
10461.8
10865.4
9389.5
14545.3
9740.3
4688.21
5944.32
1416.95
1891.86
5791.97
7413.22
1755.21
2434.94
4774.01
6138.28
1407.27
1957.37
11688.2
8833.45
13529.7
7894.8
17282.8
11650.6
21671.4
13788.3
5866.46
5394.54
7487.46
3968.62
3817
3563.63
4280.17
2942.53
26568.6
16682.3
5448.7
29038.8
17449
5855.25
25464.3
15908.9
5393.28
28331.6
17086.5
5652.56
23160.8
14165.5
4575.39
26894.2
16271.3
5373.89
8173.9
4695.98
1389.97
12256.8
7767.79
2439.68
16388.9
10466.5
3375.78
20076.3
12331.2
3933.12
25059.8
14973.7
4991.16
8329.53
4488.65
1496.77
11485
7140.55
2483.42
14864.3
9274.26
3160.33
18757
11263
3755.4
23561.4
13128.7
4396.99
-535.055
788.358
231.033
2356.29
2393.08
2061.23
5988.75
4801.62
558.595
693.436
589.215
723.124
271.595
642.89
500.308
957.992
1145.64
832.763
2971.5
2231.21
1184.13
1686.18
2861.91
-216.172
7393.96
1588.12
-5353.77
-2272.13
-126.892
-563.125
-1253.59
-1495.37
7117.26
2393.33
1813.55
828.106
7024.68
2348.49
1900.74
894.364
6654.77
2382.03
2184.77
1013.28
1457.26
506.094
38.8794
52.3253
12676.4
10446.4
5161.2
6365.09
17141.3
15263.2
8096.26
9143.36
3703.91
4369.86
8872.69
6720.56
2924.46
3850.03
1108.76
1770.22
5119.75
5654.34
2342.73
2730.58
1655.28
2610.31
385.971
1206.54
2620.63
1225.84
2848.66
1210.48
5133.39
1983.72
4037.77
1687.45
1144.78
628.495
1774.13
697.138
156.933
140.474
852.693
274.899
7767.73
3903.11
2847.33
2240.66
7783.74
4014.66
2719.91
2165.52
7983.1
4110.29
2647.58
2016.43
12520.5
14798.5
9528.22
5875.96
2190.34
8525.29
8209.25
7001.55
5185.09
2291.53
12400
8968.59
5945.56
3706.68
1512.86
2253.67
1459.57
1694.23
1321.67
2433.38
1611.79
1698.73
1362.85
2669.61
1878.11
1690.05
1408.1
9021.69
7861.06
6643.72
5081.93
3912.4
3267.98
2779.22
2265.64
1538.4
1440.61
6820.69
6965.02
4727.95
4677.22
3241.34
3118.23
2235.01
2120.96
1134.66
1376.21
4528.11
3213.23
3004.77
1780.72
7887.15
5196.93
6094.35
3636.95
1723.06
1064.83
2681
2088.31
3120.8
1444.62
1016.49
512.811
4956.86
2695.91
1530.19
949.042
1968.71
852.655
673.579
293.28
876.585
858.257
594.221
819.149
1491.36
1414.24
732.182
1061.62
1014.81
578.157
379.836
571.533
239.012
35.9786
-186.116
-5.90672
911.942
397.041
108.442
747.977
210.31
55.5758
1050.36
487.536
142.514
799.935
239.312
65.9118
1240.49
598.817
164.279
851.034
268.617
72.2533
4991.84
2685.95
771.535
3126.16
1663.53
485.277
2189.86
1117.03
329.438
1475.1
714.647
197.642
909.019
289.747
77.8594
5232.23
2615
830.219
3473.81
1714.6
538.051
2323.51
1127.62
345.317
1544.47
690.49
203.379
1046.8
320.438
98.2984
632.298
157.36
48.0905
13.0162
248.118
63.415
20.3594
5.54845
619.74
157.698
52.0467
14.69
257.104
69.2956
26.9483
8.10316
658.664
172.997
61.4773
18.1383
333.542
98.4489
28.9156
8.55735
117.199
43.9488
2.38241
0.570972
41.9002
24.4772
2.01989
0.4733
436.384
125.074
38.3107
10.3407
378.928
106.641
40.6698
11.022
632.12
171.31
62.3651
17.3822
510.801
137.598
54.947
12.2479
240.833
74.5267
20.7961
7.11802
230.065
68.3022
25.7224
7.7858
84.5292
31.6259
8.68123
2.91634
86.3473
29.407
11.5061
3.87614
768.895
193.674
61.9366
16.6549
702.157
181.887
67.7759
16.6974
739.653
188.409
62.9694
16.754
667.1
172.898
65.8401
15.6824
711.73
183.713
67.8086
18.1714
596.8
154.169
62.352
14.6879
604.282
157.085
63.4076
18.8001
632.405
161.488
73.5421
18.4193
435.965
113.71
46.4768
11.5773
494.614