/*--------------------------------*- C++ -*----------------------------------*\
| =========                 |                                                 |
| \\      /  F ield         | OpenFOAM: The Open Source CFD Toolbox           |
|  \\    /   O peration     | Version:  2412                                  |
|   \\  /    A nd           | Website:  www.openfoam.com                      |
|    \\/     M anipulation  |                                                 |
\*---------------------------------------------------------------------------*/
FoamFile
{
    version     2.0;
    format      ascii;
    arch        "LSB;label=32;scalar=64";
    class       volScalarField;
    location    "0.4";
    object      gradTx;
}
// * * * * * * * * * * * * * * * * * * * * * * * * * * * * * * * * * * * * * //

dimensions      [0 -1 0 1 0 0 0];

internalField   nonuniform List<scalar> 
5712
(
-11511.7
-14303.3
-25665.4
-41202.3
-39704.7
-77699.5
-26682.6
-80172.9
-27064.2
-63713.6
-33366.8
-55860.3
-25199.6
-34392.3
-13660.2
-14235.4
-21302.2
-25248.6
-27800
-26164.6
-18329.3
-27084.7
-26852
-26917.9
-8222.13
-6536.94
-11133.1
-8515.16
-19121.3
-13830.3
-34602
-25692.5
-28757.4
-29793.2
-31609.9
-33846.9
-8735.19
-7085.65
-63420.9
-78222.6
-35278.8
-46267.9
-77572.5
-95666.3
-36769.7
-45226.9
-49803.4
-64980.8
-41515.7
-56263.3
-24530.9
-30428.8
-5483.89
-1821.22
-6973.63
-2519.78
-12473.4
-5280.28
-20639.2
-7863.42
-14897.4
-5058.79
-14022.9
-4171.17
-26435.7
-8050.55
-34339.8
-11251.2
-37647.1
-22268
-32039.7
-22175.9
-35135.7
-22444.8
-28372.9
-21611.4
-27645.5
-20506.3
-30530.9
-20045.4
-31394.3
-22633.5
-32707.9
-23178.3
-28194.6
-21756
-29582.6
-22157.5
-28277.4
-21383.3
-30360.8
-22121.4
-31347.7
-14054.6
-20110.8
-24472.9
-33756.2
-16440.2
-19985.3
-25688.4
-31354.4
-12941.1
-20893
-24099.8
-32506.6
-12978.6
-21810.3
-24354.3
-5281.47
-6000.84
-1929.35
-4206.84
-15034.8
-17656
-6727.89
-13651.8
-24284.3
-28436.1
-12657.1
-23263.5
-19732.5
-9195.87
-25054
-35195
-20289.1
-5506.96
-9545.41
-16663.4
-34841.9
-27714.8
-13288.9
-19581.1
-24601.5
-27153.1
-36749
-5318.48
-4938.52
-3559.96
-3477.18
-15563.4
-12974.5
-11330.8
-10420.6
-22918.2
-18106.5
-17141.2
-15444.6
-9037.99
-9099.48
-14967.6
-14928.3
-22103.6
-19135.8
-29978.4
-24750.8
-25366.1
-23155.4
-13568.4
-11793.3
-19116.2
-13753.2
-21018.3
-14009.8
-22027.3
-14238.4
-28518.8
-19512.5
-15935.3
-5554.33
-13776.3
-9922.03
-15524.9
-14067.8
-16188
-16804.4
-13784
-9907.73
-16719.5
-4485.19
-13917.2
-16083
-14747.5
-17632.4
-16821.6
-21109.7
-17765.7
-22299.8
-14075
-16414.9
-14922.9
-18183.5
-19002.8
-10889.9
-26842.8
-10234.3
-18958.6
-4126.8
-24892.6
-3672.24
-19878.1
-15674.5
-28158.2
-12536.1
-18650
-18219.7
-26412.6
-15600.8
-3948.49
-3014.02
-1902.85
-2657.66
-2161.04
-1488.55
-9988.3
-6505.76
-4055.78
-7381.06
-4681.72
-2861.97
-12115.8
-7309.37
-4902.76
-10818.5
-6261.42
-4095.01
-6492.91
-3186.54
-1963.26
-11845.2
-5510.42
-2795.64
-13329.5
-6410.46
-3082.14
-16800.7
-9023.27
-5107.31
-16885.2
-8367.83
-4182.91
-11749.4
-6231.51
-3523.35
-10679.3
-5596.87
-2779.77
-11668.4
-5870.46
-2743.3
-12675.8
-6490.88
-3124.99
-16983
-7559.38
-2962.57
-13249.8
-20393.3
-11951.8
-16074.8
-12640.1
-24014.8
-11355.4
-20572.6
130.917
-1274.08
494.339
-808.745
-3054.13
-5527.64
-2045.44
-3650.51
-2540.07
-4259.5
-11519.1
-16029.2
-7435.38
-6257.33
-13980.3
-12703.9
-20976.7
-22926.5
-91.9604
5225.82
-9232.66
-6640.68
-6336
-3515.7
-1276.49
-792.507
-1160.69
-766.33
-3427.26
-1037.65
-2110.15
-616.997
-8862.87
-2261.92
-7277.34
-2196.65
-8029.53
-2220.65
-8829.57
-2483.41
-14376.6
-12224.7
-11245.8
-11821.5
-23582.6
-19153.2
-19364.5
-17918.6
-7364.07
-7670.29
-8532.6
-7266
-10528.4
-11555.4
-10974.2
-11560.9
-18650
-17420.2
-19417.3
-17506.3
-6536.88
-7615
-6255.67
-7579.67
-799.847
-657.291
-4870.52
-1718.87
-984.215
-529.917
-4348.59
-1457.22
-726.457
-550.589
-5024.38
-1851.07
-845.415
-544.342
-4971.05
-1902.51
65.1589
178.89
-332.728
-142.887
406.517
732.579
-517.489
-188.332
-1011.61
-266.146
-1380.78
-929.753
4662.13
2347.99
2374.39
1438.92
70.0924
5599.23
7308.25
2791.08
2562.47
193.583
-10236.9
-6840.88
-4612.59
-3606.54
-1303.41
220.612
156.742
-48.6445
-20.7989
630.173
537.634
-111.153
-40.1631
500.03
587.386
-405.235
-231.804
1263.19
-293.365
4490.18
2122.17
1811.48
756.975
1600.2
955.66
124
43.8002
-5680.33
-3762.95
-1070.93
24.9589
-317.248
275.659
-337.903
175.962
20.0319
74.0628
-4220.26
-3437.28
-7965.89
-4427.82
-8641.47
-6444.97
-12018.9
-7734.25
-5011.67
-2634.73
-2184.66
-1989.33
-9151.13
-3847.83
-9772.24
-3787.39
-13645.6
-7763.06
-14647.6
-7832.99
-5853.88
-2110.36
-6255.16
-1970.75
-2748.12
-1577.56
-971.675
-1382.45
-1368.15
-1268.97
-491.507
-1080.74
-2955.45
-1393.02
-1215.94
-1574.93
-3527.99
-1267.84
-1567.17
-1424.24
95.7242
55.6515
45.7181
-17.4162
7.4175
8.09287
328.195
203.941
155.084
-25.2689
38.9762
36.9182
417.213
322.156
245.844
-125.114
73.0604
76.2043
-727.678
-75.7888
-4.47801
597.693
604.431
457.825
358.467
367.829
306.744
498.768
394.31
310.676
-80.3816
92.8617
69.8869
-3520.7
-1517.79
-677.912
-746.263
-117.46
93.6194
-333.845
49.9893
146.458
-187.964
75.6809
125.377
-322.567
14.166
43.2438
-66.3437
-14.7997
-3.44221
-1.17263
-30.3559
-3.09161
4.4773
1.76184
-167.257
-38.37
-6.88385
-2.48038
-71.013
-7.58291
7.91043
2.74836
-258.911
-63.8729
-13.7545
-2.77135
-187.411
-37.8632
-7.49939
-0.769906
-110.454
-23.5918
-9.78064
-2.67403
-120.716
-29.6379
-6.42958
-1.18081
-437.946
-113.98
-41.5884
-9.93421
-485.092
-125.966
-56.2629
-12.7508
-368.263
-96.1041
-32.9969
-4.36409
-401.425
-104.497
-49.736
-11.6475
-392.934
-103.373
-35.5775
-9.04762
-521.964
-135.613
-59.3161
-13.7433
-380.835
-101.971
-31.3073
-7.76533
-536.42
-139.593
-60.577
-14.6407
-47.9318
-11.9746
-4.55393
-1.84637
-30.3978
-7.97141
-4.76589
-1.36476
-122.342
-31.3065
-10.5911
-3.88159
-63.8753
-16.6792
-10.6683
-3.32018
-296.563
-78.5728
-28.2579
-8.24429
-215.285
-56.6652
-24.7629
-4.83368
-173.083
-47.9765
-18.5284
-0.798251
-104.739
-27.8496
-16.2664
-2.84632
-344.06
-90.2143
-43.7552
-7.32416
-2.3062
-0.0838097
-0.955286
-0.0443895
20.4193
6.01782
1.34211
0.472552
-23.1006
-4.50073
-4.72555
-0.630097
50.229
15.0632
2.66687
1.05057
-56.6128
-13.1071
-8.87835
-0.978291
76.4565
22.1285
3.86106
1.43654
-57.3272
-13.6141
-10.8579
-1.38567
96.1506
26.7359
3.44585
1.10873
-98.8077
-21.5302
-19.6915
-4.16165
67.1311
21.9345
-0.6514
0.0756641
-309.991
-64.8025
-38.7417
-8.34645
-91.8076
-11.6737
-9.50617
-2.33221
-198.521
-39.994
-31.2022
-6.77507
-20.5888
5.26071
-5.72672
-1.26464
-387.235
-85.8743
-44.365
-10.0812
-129.13
-23.4835
-11.9231
-3.13411
-423.54
-99.1007
-47.6756
-11.3235
-147.805
-31.5948
-13.3742
-3.60768
-0.290347
-0.0257073
0.00370789
0.00274339
0.00119118
0.0522906
0.0405386
0.0181553
0.00612049
0.00216008
-0.80771
-0.0684773
0.00716173
0.00578621
0.00250523
0.109436
0.137716
0.0559425
0.0177273
0.00602595
-0.793954
-0.011074
0.0258047
0.0108139
0.0040348
0.401361
0.256279
0.0903682
0.0268481
0.00880014
-0.0403555
0.0576171
0.0251735
0.00795747
0.00267951
-0.393388
-0.0331443
0.0033345
0.00264752
0.00112673
-0.604088
0.00480809
0.0242732
0.0094743
0.00343892
-0.640861
-0.0701535
-0.00626253
-5.20928e-05
0.000249986
0.3505
0.210661
0.0699631
0.0201278
0.00647467
-0.363829
-0.0104896
0.007607
0.00331468
0.00123871
-1.15504
-0.143762
-0.0156592
-0.00106066
0.000190442
-0.688193
-0.0747663
-0.00647996
4.28095e-06
0.000280701
-1.39432
-0.186482
-0.0225839
-0.0022167
-5.26942e-05
-0.893401
-0.114716
-0.0146227
-0.00178216
-0.000210225
-0.327379
-0.0311288
0.00112251
0.00179978
0.000849096
-0.0640477
0.00765214
0.00642886
0.0024703
0.000929402
-0.628352
-0.0425328
0.0078089
0.00493823
0.00206705
-0.084348
0.0325372
0.0176965
0.00615854
0.00221003
-0.877184
-0.0442287
0.0126151
0.00664267
0.00263631
0.190861
0.097208
0.0319552
0.00934597
0.00307205
0.59473
0.203564
0.0575248
0.0154626
0.00480683
0.51243
0.128058
0.0322902
0.00827131
0.00251913
0.482136
0.140419
0.0373273
0.00971792
0.00296161
-553.701
-775.314
-1597.65
-2309.66
-2591.08
-3900.71
-3241.22
-5382.67
-3218.81
-5310.52
-3433.3
-4960.72
-2724.07
-3612.34
-4187.73
-6002.44
-4390.44
-6234.11
-1248.95
-331.548
-106.611
-47.2063
-30.1383
-384.33
-176.133
-23.98
-11.5374
-4.35258
-4056.63
-1084.54
-351.401
-156.865
-101.104
-1003.78
-270.145
-85.253
-36.3845
-18.7901
-7108.09
-1920.35
-630.332
-285.309
-186.143
-1923.89
-600.42
-210.854
-99.3603
-62.8985
-10088.3
-2765.83
-928.045
-429.001
-283.759
-2915.27
-1006.29
-379.41
-187.183
-124.063
-13991.5
-3989.69
-1386.93
-659.641
-443.458
-4246.14
-1629.11
-642.371
-324.124
-219.04
-19018.3
-6036.1
-2264.66
-1134.08
-780.529
-5327.08
-2119.52
-859.82
-442.946
-303.697
-17234
-5246.55
-1899.28
-927.448
-631.17
-5014.66
-2023.12
-815.786
-416.515
-283.905
-19908.3
-6449.43
-2467.98
-1254.21
-868.111
-5466.5
-2108.84
-843.276
-432.6
-296.447
-20557.6
-6664.95
-2570.5
-1317.62
-915.327
-5505.88
-2116.86
-840.635
-419.758
-292.151
-970.355
-9676.56
-9190.99
-4787.71
4186.92
5824.52
11245.1
15242.5
5920.02
13088.8
678.828
6363.13
5614.7
10430.8
12303.9
17721.1
14643.6
17169.3
8305.38
9623.66
-14192.5
-9238.36
-682.824
-302.358
-199.799
-276.541
-298.402
-8241.46
-5772.16
-5011.95
-3886.41
-2156.96
-1453.03
-2684.41
-978.608
-726.472
-741.902
-455.445
-13756.5
-4758.68
-656.796
-1341.93
-2897.12
-1532.74
-1405.11
-856.887
-261.582
-427.504
-574.076
-717.011
-13718.7
-7085.32
-6892.99
-3540.25
-2941.53
-3738.35
-892.059
-772.957
-1346.82
-8150.51
-6457.52
-4328.28
-3021.74
-1805.97
-5850.61
-3762.47
-2519.64
-1600.4
-559.827
-555.781
-415.567
-279.834
-159.755
-51.7194
-251.249
-192.145
-131.532
-75.6679
-24.5873
-165.032
-125.303
-85.1055
-48.6414
-15.7586
-231.162
-177.88
-122.279
-70.456
-22.9079
-245.809
-186.129
-126.272
-72.2066
-23.4054
-4767.09
-3427
-2198.48
-1459.1
-1014.58
-2771.67
-1831.3
-1038.14
-616.715
-360.467
-3195.76
-1969.52
-1255.97
-755.763
-275.223
-1936.02
-1219.57
-702.614
-412.534
-201.664
-1008.22
-597.57
-333.533
-199.309
-86.6612
-1062.65
-720.44
-455.261
-253.918
-83.2941
-1796.35
-1147.79
-717.994
-407.804
-140.428
-632.767
-387.671
-233.545
-128.627
-43.222
-553.827
-388.572
-249.347
-138.787
-44.8723
-551.259
-377.403
-237.781
-130.85
-42.1661
-352.096
-250.034
-161.319
-89.6538
-28.8389
-8132.78
-5678.16
-3783.4
-2550.84
-1567.55
-3268.91
-2140.76
-1390.54
-832.015
-295.201
-501.144
-352.281
-227.468
-127.791
-41.5599
-1036.88
-738.3
-482.671
-273.915
-89.4116
-2166.21
-1500.96
-975.273
-560.047
-185.458
-1193.03
-853.869
-560.942
-319.174
-103.655
-1113.4
-808.679
-535.354
-304.426
-98.1319
-686.001
-504.449
-335.364
-190.286
-61.6125
-208.496
-152.445
-100.406
-56.3594
-18.1465
-347.791
-259.883
-174.372
-99.0552
-32.0377
-449.419
-323.25
-211.148
-118.599
-38.3454
-569.819
-416.201
-275.329
-155.868
-50.5086
-7887.34
-5868.48
-3968.63
-2744.62
-1599.33
-4644.43
-3013.38
-2005.62
-1251.25
-446.922
-4836.31
-3304.8
-2137.84
-1314.48
-467.654
-2601.47
-1715.33
-1117.13
-655.792
-201.142
-2241.26
-1558.08
-1017.31
-583.522
-185.45
-2740.37
-1800.6
-1168.69
-684.271
-205.29
-700.963
-505.474
-332.264
-188.19
-60.9096
-628.163
-468.824
-314.697
-179.094
-57.9641
-1062.11
-769.372
-507.662
-288.138
-93.3547
-9909.15
-22026.6
-16949.3
-56816.2
-15166.9
-70171.5
-10533.8
-27894.5
-13745.7
-12693.8
-27671.2
-22381
-12857.6
-15308.4
-28548.3
-23390
-6567.87
-4677.57
-15347.1
-11292.2
-11432.9
-6330.32
-41997.2
-30997.5
-24028.8
-16288.5
-26903.9
-18240.4
2966.63
-2774.17
-66621.3
-79543
-34277.9
-46234.7
-80520.2
-96950.5
-35561.9
-44977.2
-51981.1
-66166.7
-40697.9
-56465
-26930.2
-31445.5
-3897
-842.106
-8516.04
-2831.61
-7520.78
-3805.11
-23692.9
-8729.83
-4507.76
-2329.59
-10551.1
-3138.16
-26795.5
-8052.2
-34810.6
-11366
-26785
-17654.2
-28610.4
-20040
-23405.1
-17085.7
-24543.9
-19236.1
-25295.4
-18880.6
-23079.5
-16751.3
-30091.7
-21690.1
-32440.2
-22930.4
-26613.1
-20688.5
-29171.9
-21868.6
-27552.2
-20665.7
-30256.2
-21930.8
-30347.2
-13894.5
-18991.6
-24249.4
-29752.1
-15542.2
-17615.6
-25061.5
-31278.4
-12960.2
-20423.9
-24034.3
-32591.7
-13013.5
-21698.3
-24339.8
-1220.23
-1122.3
29.1554
-1977.2
-4806.85
-6409.06
-3862.97
-10378.2
-8257.48
-11414.6
-8864.2
-19144.1
-22131.1
-18868.4
-21274.9
-27266.2
-18731.6
-10904.6
-9369.73
-11894.6
-26358.7
-26364.3
-17205.9
-19220.1
-20928.2
-22318.5
-35113
-1762.41
-2034.63
-1518.45
-1834.99
-6605.89
-5790.06
-7809.51
-7223.13
-8116.92
-5632.08
-12853.8
-11298
-11308.6
-10355.2
-11671.4
-10884.8
-14860.7
-11952.8
-21719.3
-17595.6
-23014.4
-20236.1
-15797
-12712.4
-17175.2
-11846.9
-16851
-10943.9
-17869.2
-11370.7
-26900.8
-17404.6
-14459.3
-5584.52
-12555.1
-9570.18
-15139.7
-14295.8
-15214.9
-16480.6
-12585.4
-9574.63
-14869.6
-4426.57
-13144.9
-15757.1
-14474.2
-17509.6
-16078.5
-20768.1
-17483.6
-22158.7
-13384.6
-16155.7
-14690
-18087.5
-18200.1
-10706.6
-26673.9
-10231.4
-17497.9
-4299.92
-24579.1
-4220.93
-19465.7
-15520.9
-28066.8
-12480.8
-18506.8
-18165.2
-26380.2
-15591.7
-2155.21
-1794.6
-1614.88
-1877.37
-4840.14
-3442.8
-5706.29
-5574.26
-3954.78
-3297.3
-9252.67
-8209.25
-9506.94
-6529.74
-10087.7
-6171.38
-9312.13
-5361.05
-13290.9
-8889.02
-16367.4
-10133.7
-13063.9
-8458.69
-8719.75
-5048.63
-8738.52
-4552.8
-9425.58
-4762.46
-12642.3
-4716.86
-5721.81
-10793.6
-5245.15
-11468.1
-8725.85
-13697.2
-10934.3
-16737.5
-1377.63
-1093.75
-1044.29
-882.237
-3793.12
-3459.78
-3283.24
-2909.7
-817.52
-1535.51
-8176.23
-8419.58
-3657.92
-4048.47
-11759.6
-12033
-18974
-22271.6
850.628
5453.81
-7394.22
-6017.13
-5302.35
-3224.84
-871.74
-721.731
-870.346
-673.51
-2014.7
-1006.2
-1371.6
-564.071
-5753.56
-2112.65
-5544.49
-1942.49
-6905.9
-2015.08
-8381.07
-2383.56
-7308.53
-9228.63
-8435.18
-10157.4
-13790.4
-14449.4
-15804.8
-15686.9
-5670.77
-6713.05
-4675.2
-5931
-9135.08
-10730.2
-10560.4
-11322.2
-16985.3
-16375.2
-18923.3
-17213
-5663.26
-7090.43
-5974.46
-7417.22
-314.712
-564.135
-4430.92
-1624.39
-413.444
-543.868
-3940.36
-1399.83
-389.708
-486.906
-4740.69
-1783.52
-705.427
-516.324
-4877.58
-1879.05
-724.4
-746.311
-665.145
-646.017
-1831.91
-1882.75
-1056.91
-1035.85
-4827.1
-4840.51
-1957.4
-1876.69
-4325.69
-10333.6
-2418.26
47.6311
-273.644
-3817.07
-788.38
-1754.59
1129.47
-63.3074
-15151.4
-9576.48
-5930.04
-4262.53
-1444.56
-806.286
-749.662
-652.763
-606.11
-2045.92
-1879.59
-1072.25
-1031.94
-4459.27
-4067.04
-1610.27
-1534.69
-5369.84
-5508.51
-1509.31
-2749.69
-2492.61
-2926.59
-374.878
-874.658
-308.007
-457.696
-10448.2
-6679.55
-5023.97
-2929.37
-2848.14
-1747.16
-1837.69
-1034.01
-387.448
-363.809
-5319.55
-4582.08
-7835.56
-4628.4
-9451.16
-7455.26
-11547
-7810.14
-5120.3
-2873.82
-3160.33
-2946.51
-8823.8
-3831.36
-9616.39
-3749.29
-13097.1
-7653.57
-14415.2
-7762.56
-5716.04
-2150.78
-6170.42
-1958.7
-2938.47
-1784.1
-1153.42
-1572.93
-2079.42
-1957.33
-858.513
-1549.11
-2948.79
-1451.99
-1269.07
-1637.84
-3497.8
-1270.7
-1570.12
-1433.42
-549.36
-533.775
-379.926
-320.864
-1762
-1710.16
-610.754
-424.67
-3561.15
-2670.91
-800.214
-220.619
-5775.14
-3931.66
-3577.97
-2317.31
-2690.47
-1790.34
-1032.46
-681.469
-395.589
-24.9963
-5332.26
-3173.59
-2626.01
-1417.73
-1665.54
-870.605
-1019.42
-542.406
-672.679
-34.506
-83.3113
-21.2959
-5.23273
-1.62926
-59.3207
-15.3617
0.524322
0.626957
-211.091
-55.2011
-11.4016
-3.52274
-128.597
-33.6639
-1.10676
-0.321255
-315.914
-87.0362
-21.4077
-4.99365
-235
-65.2353
-19.7108
-5.91676
-129.982
-37.6026
-16.1681
-4.81841
-123.752
-34.3601
-8.80816
-2.03453
-430.341
-119.973
-46.5776
-12.4846
-473.306
-126.303
-58.7886
-13.627
-406.497
-113.648
-41.8227
-8.47111
-399.074
-107.162
-53.6831
-12.8567
-386.801
-107.409
-38.3518
-9.98532
-513.368
-135.912
-61.0975
-14.6342
-377.998
-103.491
-32.3919
-8.18141
-533.459
-139.806
-61.1811
-14.9178
-82.6495
-20.4308
-6.51707
-2.19552
-80.2702
-18.5584
-7.79207
-1.94458
-208.244
-52.8461
-15.9835
-4.97638
-197.432
-46.4662
-18.9587
-4.87896
-369.489
-99.098
-35.2804
-9.81328
-345.996
-88.2948
-35.4599
-7.01995
-313.595
-88.298
-31.8227
-4.73092
-235.493
-61.9019
-26.4176
-4.70602
-387.529
-104.282
-52.0087
-9.45932
-60.1731
-13.0069
-3.89767
-0.716977
-37.8636
-8.2475
-1.69673
-0.353145
-159.71
-35.6692
-12.5293
-2.51472
-96.8865
-21.7945
-5.64169
-1.21867
-207.079
-49.974
-19.1416
-3.70437
-111.01
-28.3981
-7.87171
-1.80856
-211.356
-55.2298
-22.9819
-4.77878
-101.662
-30.049
-9.80347
-2.51434
-226.075
-57.4182
-31.3878
-7.78906
-111.71
-29.2137
-13.1651
-3.44933
-384.088
-90.3932
-47.6123
-11.1511
-160.155
-34.335
-15.7231
-4.18395
-317.707
-75.5671
-43.1245
-10.4334
-151.584
-32.9248
-15.5947
-4.13133
-417.501
-98.6555
-49.1483
-11.6705
-155.498
-33.8616
-15.0019
-4.06719
-429.681
-102.441
-49.0525
-11.8014
-153.109
-34.1469
-14.2058
-3.87208
-0.502272
-0.103897
-0.0200115
-0.00391217
-0.000945546
-0.352045
-0.0898599
-0.0198423
-0.00440687
-0.00121079
-1.29627
-0.23863
-0.043375
-0.00826077
-0.00198405
-1.0321
-0.221373
-0.0476251
-0.0108947
-0.00314736
-1.66305
-0.278372
-0.0500479
-0.00989144
-0.0025361
-1.34785
-0.268313
-0.0580975
-0.0138951
-0.00423039
-0.602703
-0.107866
-0.0218594
-0.00504884
-0.00151074
-0.651196
-0.11194
-0.0196949
-0.0038497
-0.00099735
-1.4211
-0.225448
-0.0390485
-0.00762271
-0.00196833
-0.763191
-0.101819
-0.0145928
-0.00222952
-0.000419659
-1.10247
-0.191346
-0.0394271
-0.00927579
-0.00281401
-0.691757
-0.0993948
-0.0161465
-0.00298018
-0.000726442
-1.33901
-0.186793
-0.0265503
-0.00386034
-0.00066133
-0.82181
-0.108401
-0.015352
-0.00235143
-0.000457451
-1.49895
-0.213457
-0.0298277
-0.00416527
-0.000667526
-0.918207
-0.119008
-0.015444
-0.00194864
-0.000249734
-0.486077
-0.0903029
-0.0167787
-0.00319581
-0.000745017
-0.270226
-0.0563321
-0.0116939
-0.00244132
-0.000613993
-1.05953
-0.18685
-0.0341202
-0.00655911
-0.00157217
-0.593176
-0.118386
-0.0241944
-0.00509124
-0.00131145
-1.4722
-0.230915
-0.0399446
-0.00756314
-0.00183059
-0.524033
-0.102926
-0.0219823
-0.00496352
-0.0013902
-0.534009
-0.0987633
-0.0229335
-0.00587917
-0.00187913
-0.0744655
-0.0286574
-0.00895727
-0.00257109
-0.000854136
-0.232878
-0.0439737
-0.0112224
-0.00313093
-0.00106594
-227.417
-498.76
-819.198
-1619.29
-1684.3
-3042
-2479.63
-4583.53
-2722.91
-4821.47
-3332.28
-4930.92
-2558.78
-3633.57
-4115.86
-5960.6
-4363.06
-6215.8
-1251.34
-334.907
-107.492
-47.3762
-30.1648
-337.81
-171.621
-22.6749
-11.3775
-4.35788
-4084.23
-1097.83
-354.7
-157.545
-101.253
-887.674
-251.055
-82.0394
-35.8697
-18.7165
-7166.57
-1942.99
-635.883
-286.481
-186.42
-1788.6
-578.742
-207.302
-98.8165
-62.8246
-10165.5
-2792.96
-934.656
-430.388
-284.076
-2806.43
-988.95
-376.597
-186.758
-124.001
-14095.7
-4021.6
-1394.54
-661.252
-443.842
-4204.28
-1622.15
-641.324
-324.014
-219.046
-19127.8
-6062.9
-2270.66
-1135.34
-780.827
-5329.29
-2120.21
-859.971
-442.993
-303.704
-17361.3
-5279.85
-1906.94
-929.061
-631.557
-5018.7
-2023.14
-815.872
-416.578
-283.939
-19978.4
-6466.39
-2471.71
-1254.98
-868.283
-5463.7
-2108.84
-843.265
-432.596
-296.435
-20581.8
-6670.75
-2571.78
-1317.9
-915.393
-5504.18
-2116.79
-840.615
-419.732
-292.133
-581.24
-9343.19
-8102.32
-3230.68
-1705.3
-805.104
-3356.24
-2177.49
-7120.48
-7843.83
-4367.52
-4106.08
-3.61089
-8.13716
-20.2117
-46.2733
-97.3187
-189.651
-3.18256
-9.90066
-28.167
-68.3101
-146.602
-283.789
-2.22737
-0.833783
-5.61065
-2.80044
-15.3793
-9.29169
-38.0974
-27.9873
-82.1179
-70.0295
-167.165
-151.369
-353.525
-641.28
-1170.41
-2455.49
-3573.61
-5101.51
-497.107
-780.201
-1089.17
-1422.97
-1599.22
-1815.73
-3.12308
-2.50253
-1.78846
-1.06033
-0.349871
-7.01182
-5.59293
-3.9783
-2.34978
-0.773747
-17.344
-13.7643
-9.74079
-5.7306
-1.88297
-39.5053
-31.1606
-21.9208
-12.8386
-4.20869
-82.5406
-64.6091
-45.1264
-26.2952
-8.5979
-159.429
-123.549
-85.5337
-49.5521
-16.1582
-2.74621
-2.19406
-1.56329
-0.924612
-0.304695
-8.50687
-6.7615
-4.79255
-2.82301
-0.928226
-24.0974
-19.0548
-13.4378
-7.88515
-2.58748
-58.133
-45.685
-32.029
-18.714
-6.12757
-123.95
-96.686
-67.3257
-39.1535
-12.791
-238.016
-184.012
-127.152
-73.5859
-23.9874
-1.93084
-1.55156
-1.11208
-0.660864
-0.218344
-0.723885
-0.582707
-0.418417
-0.24902
-0.0823465
-4.84814
-3.8801
-2.76938
-1.64014
-0.540866
-2.42473
-1.94524
-1.39183
-0.825931
-0.272666
-13.236
-10.5408
-7.48533
-4.41531
-1.45282
-8.01272
-6.3962
-4.5529
-2.69053
-0.886177
-32.6124
-25.803
-18.2048
-10.6848
-3.50641
-23.9952
-19.0187
-13.4407
-7.89807
-2.59342
-69.7965
-54.7597
-38.3249
-22.3618
-7.31629
-59.613
-46.8465
-32.8299
-19.17
-6.27396
-140.597
-108.988
-75.456
-43.706
-14.2482
-127.587
-99.1152
-68.7158
-39.8189
-12.9818
-293.546
-224.465
-153.733
-88.5178
-28.79
-523.012
-392.609
-265.412
-151.981
-49.3422
-930.241
-681.003
-453.84
-259.275
-84.1954
-1883.49
-1334.7
-878.884
-505.214
-164.57
-2577.73
-1762.36
-1157
-682.106
-230.223
-3538.17
-2368.4
-1556.84
-934.867
-317.439
-412.794
-315.767
-216.354
-124.623
-40.5514
-639.754
-483.162
-328.029
-188.195
-61.1735
-878.265
-652.733
-438.791
-251.104
-81.6462
-1119.31
-813.471
-540.881
-309.755
-100.994
-1209.18
-853.801
-562.592
-325.285
-107.567
-1326.8
-914.765
-599.511
-350.407
-116.82
-3.63401
-8.23904
-20.5095
-47.0114
-98.9055
-192.552
-3.2096
-10.0163
-28.479
-68.99
-147.785
-285.407
-2.24716
-0.845445
-5.71584
-2.87507
-15.7739
-9.64183
-39.3369
-29.4699
-85.3342
-76.2515
-173.288
-171.667
-358.386
-648.599
-1179.23
-2451.6
-3553.61
-5085.75
-498.781
-781.317
-1089.13
-1419.66
-1593.09
-1811.82
-3.14405
-2.52029
-1.80195
-1.06874
-0.352729
-7.10374
-5.67065
-4.03713
-2.38639
-0.786158
-17.6125
-13.991
-9.91211
-5.83705
-1.91905
-40.1713
-31.7234
-22.3464
-13.1032
-4.29838
-83.9785
-65.8296
-46.0535
-26.8734
-8.79435
-162.091
-125.838
-87.2928
-50.6596
-16.5364
-2.7707
-2.2149
-1.57915
-0.934528
-0.308064
-8.61202
-6.85116
-4.86098
-2.86586
-0.942812
-24.3827
-19.2993
-13.6254
-8.00305
-2.62771
-58.7607
-46.2286
-32.4499
-18.9805
-6.21884
-125.065
-97.672
-68.1038
-39.653
-12.9634
-239.605
-185.477
-128.348
-74.3722
-24.2621
-1.94865
-1.56649
-1.12329
-0.667793
-0.220689
-0.734275
-0.591351
-0.424854
-0.252971
-0.0836747
-4.94199
-3.95838
-2.82782
-1.67609
-0.552981
-2.49093
-2.00004
-1.43243
-0.850747
-0.281
-13.5865
-10.8315
-7.70114
-4.54748
-1.49726
-8.32181
-6.65055
-4.74015
-2.80444
-0.924335
-33.7098
-26.7096
-18.8751
-11.094
-3.64377
-25.2974
-20.084
-14.2204
-8.37027
-2.75124
-72.6386
-57.1015
-40.0516
-23.4139
-7.6691
-65.0293
-51.229
-36.002
-21.0747
-6.90751
-146.055
-113.524
-78.8302
-45.7781
-14.9466
-145.144
-113.209
-78.8405
-45.8664
-14.9888
-298.101
-228.469
-156.87
-90.5215
-29.4795
-530.168
-399.141
-270.689
-155.426
-50.5418
-939.807
-690.448
-461.901
-264.739
-86.1349
-1884.97
-1339.98
-885.497
-510.631
-166.647
-2566.72
-1758.23
-1157.08
-683.851
-231.294
-3527.99
-2362.73
-1554.31
-934.229
-317.523
-414.601
-317.569
-217.915
-125.69
-40.9311
-641.328
-485.011
-329.793
-189.468
-61.6384
-879.162
-654.327
-440.571
-252.486
-82.1675
-1117.87
-813.582
-541.846
-310.782
-101.423
-1205.38
-851.972
-562.087
-325.412
-107.717
-1324.16
-913.214
-598.764
-350.157
-116.793
-14133.7
-9202.68
-699.727
-316.476
-261.219
-317.164
-336.442
-8452.86
-7339.84
-5596.69
-5881.81
-1866.11
-3923.37
-1130.16
-1255.88
-752.155
-13758.9
-4977.42
-816.673
-1455.94
-2994.3
-1580.78
-1446.43
-919.066
-363.741
-529.53
-744.974
-802.715
-13553.4
-7025.85
-6895.94
-3541.18
-2969.97
-3775.94
-958.706
-836.296
-1405.7
-8112.88
-6429.18
-4313.05
-3016.59
-1807.71
-5828.34
-3750.15
-2513.91
-1598.98
-560.266
-571.786
-429.713
-290.964
-166.899
-54.1875
-263.848
-202.629
-139.341
-80.4706
-26.2079
-217.555
-166.932
-114.706
-66.2323
-21.5909
-266.347
-206.182
-142.671
-82.6774
-26.9734
-278.996
-213.049
-145.849
-84.043
-27.3668
-5203.63
-3893.64
-2620.41
-1787.37
-1223.68
-4298.67
-3244.47
-2166.48
-1429.98
-822.656
-3799.01
-2487.98
-1669.12
-1040.63
-387.546
-3609.6
-2568.22
-1698.64
-1122.92
-562.356
-1427.22
-1013.26
-671.213
-390.257
-131.895
-2828.77
-1916.47
-1267.61
-758.261
-272.967
-892.872
-651.322
-434.58
-250.051
-82.5846
-988.116
-718.106
-478.378
-275.435
-91.16
-600.688
-442.388
-296.337
-170.206
-55.9229
-8313.9
-5910.18
-4016.27
-2741.58
-1683.32
-3501.37
-2353.31
-1563.45
-949.952
-339.904
-640.585
-464.384
-309.186
-178.155
-58.9019
-1141.61
-827.262
-550.562
-317.019
-104.414
-2269.14
-1597.87
-1055.62
-614.583
-205.389
-1240.66
-897.181
-595.873
-342.222
-111.828
-1153.26
-844.329
-563.654
-322.747
-104.499
-742.627
-552.445
-371.813
-213.17
-69.4625
-295.847
-221.642
-149.825
-86.032
-28.0945
-435.5
-329.851
-224.544
-129.145
-42.0827
-596.249
-440.014
-295.061
-169.423
-55.5369
-646.093
-479.273
-322.241
-184.939
-60.4341
-7796.31
-5815.26
-3949.5
-2748.95
-1616.83
-4614.26
-3002.59
-2005.93
-1256.61
-450.757
-4896.53
-3385.58
-2221.82
-1382.01
-497.235
-2617.64
-1740.01
-1142.46
-675.222
-208.01
-2277.7
-1596.53
-1051.56
-607.689
-194.248
-2793.4
-1856.91
-1219.1
-720.256
-218.353
-762.027
-557.472
-371.874
-213.113
-69.4712
-684.504
-515.506
-349.382
-200.457
-65.1967
-1117.71
-818.03
-545.714
-312.64
-101.903
-74.6616
-221.011
-380.218
-574.455
-810.242
-1060.69
-3557.65
-8895.95
-7751.44
-3315.12
-10458
-11011.7
-9862.17
-13699.7
-2195.2
-193.15
-4340.8
2387.2
-15047.3
-15094.1
3472.39
-2494.96
-6717.23
-5899.75
-2405.41
-7662.17
-5503.73
-7374.42
-7549.33
-1010.71
1794.42
-2026.46
6202.56
-9519.53
-8546.36
6709.6
-1354.85
-3980.99
-3672.97
-1415.03
-4086.77
-959.402
-4552.64
-4108.71
-191.44
1814.85
222.504
5709.78
-4503
-1139.1
6960.89
-706.05
-2272.65
-2238.03
-817.397
-1467.72
1306.62
-2841.75
-2572.42
138.68
997.24
795.13
3883.72
-2327.14
1846.29
5814.68
-464.254
-1710.8
-1653.58
-565.678
-789.532
1159.76
-2397.57
-2911.86
233.976
367.141
848.633
2279.64
-2186.12
1376.63
2690.99
-374.166
-1463.95
-1340.69
-446.735
-1213.08
-111.839
-1993.69
-2654.56
234.998
582.314
474.939
1766.65
-3427.54
-757.978
755.319
-1276.23
-2968.65
-4942.23
-2088.62
-5955.84
-10651.6
-7792.49
-13537.5
-1213.48
-877.301
-3953.71
-2681.97
-1695.6
-7493.81
-2785.9
-1144.38
-2661.52
-4090.21
-1671.52
-5193.47
-8248.75
-6444.07
-8777.18
-1139.42
-644.699
-3470.11
-2139.81
-822.224
-6153.92
-2276.04
-881.509
-2049.88
-2846.95
-1128.94
-3905.8
-5833.25
-4495.5
-6207.91
-784.649
-728.382
-2460.83
-2224.99
-748.931
-4442.39
-2214.91
-659.892
-1681.68
-1942.09
-735.359
-3052.68
-4244.25
-3348.44
-4603.65
-615.912
-761.028
-1920.09
-2233.74
-687.409
-3711.47
-2133.68
-505.949
-1287.67
-1463.45
-533.181
-2229.06
-3548.76
-2674.89
-4206.41
-514.297
-865.058
-1599.81
-2422.87
-1000.37
-3491.6
-2421.64
-414.285
-1048.02
-1179.53
-423.478
-1994.24
-3308.29
-2176.37
-3653.27
-503.343
-948.833
-1563.24
-2444.97
-1565.42
-3596.67
-2502.81
10547.3
12994.8
25668.8
41137.7
39715.5
77680.7
26688.6
80169.3
27073.1
63710
33393.7
55858.7
25258.1
34382.3
11752.6
12226.8
21307
25249.2
27794.5
26162.5
18332.9
27086.1
26852.2
26918.1
7579.93
6048.56
10211.3
7814.08
19129.5
13824.5
34547.9
25648
28735.6
29790.6
31600.9
33841.7
8728.88
7061.38
63423.5
78225.3
35278.7
46268.8
77573.9
95668
36770.1
45227.5
49805.6
64984
41514.5
56264.8
24535.8
30432.1
5136.21
1721.64
6432.43
2337.05
12447.3
5282.04
20597.8
7853.9
14883.4
5054.31
14004.3
4165.26
26436.4
8050.45
34342.2
11252
37645.4
22267
32038.1
22174.9
35135.5
22444.5
28372.5
21611
27642.7
20504.9
30527.9
20043.5
31393.6
22632.8
32707.8
23177.8
28194.4
21755.7
29582.6
22157.2
28276.6
21382.4
30360.8
22120.8
31342.7
14053.2
20108.9
24472.2
33749.3
16438.2
19982.4
25687.1
31353.4
12940.8
20892.1
24099.6
32507.1
12978.8
21809.8
24354.2
4953.22
5607.9
1823.05
3928.19
14981.8
17568.4
6725.33
13607.3
24260.8
28406.1
12649.7
23249.9
19731
9195.4
25051
35184.6
20286.6
5506.58
9544.57
16661.2
34830.1
27711.3
13288.5
19580
24598.8
27147.6
36746.4
4899.57
4562.4
3230.73
3215.71
15551.9
12932.8
11372.8
10426.9
22907.7
18094.5
17147.9
15448.5
9037.59
9099.15
14966.6
14927.5
22101.4
19134.4
29972.8
24746.6
25368.6
23158.7
13567.8
11792.9
19115
13752.6
21016.3
14009
22024.6
14237.5
28519.5
19514.1
15934.4
5554.05
13775.6
9921.74
15524.4
14067.3
16187.5
16803.9
13783.2
9907.53
16718.4
4484.91
13916.7
16082.7
14747.1
17632.1
16821.1
21109.2
17765.3
22299.4
14074.4
16414.7
14922.5
18183.4
19002.1
10889.9
26842.9
10234.7
18957.5
4126.72
24892.8
3672.82
19877.8
15674.5
28158.4
12536.3
18649.7
18219.8
26412.8
15601
3601.82
2747.88
1738.91
2466.2
2008.94
1388.26
9976.65
6496.33
4053.77
7384.43
4682.67
2863.83
12110.9
7306.72
4902.18
10820.4
6262.13
4095.96
6492.71
3186.45
1963.22
11844.8
5510.24
2795.56
13328.8
6410.14
3082.02
16798.7
9022.21
5106.98
16886.8
8368.34
4183.27
11749.1
6231.36
3523.28
10679
5596.74
2779.71
11668.1
5870.32
2743.25
12675.5
6490.69
3124.91
16983.7
7559.64
2962.7
13257.5
20395.7
11962.5
16077
12644.6
24016.9
11360
20574.1
-83.3042
1184.62
-418.019
750.136
3013.4
5513.24
2000.21
3638.1
2529.47
4250.41
11515.6
16024.8
7427.71
6249.05
13980.8
12704.2
20977.3
22927
90.5858
-5226.14
9231.36
6640.53
6334.95
3515.48
1165.85
734.933
1058.63
706.011
3429.45
1033.11
2109.11
614.518
8859.92
2259.69
7274.03
2194.66
8028.2
2219.88
8829.29
2483.15
14376.8
12224.7
11245.9
11821.4
23583.3
19153.3
19364.8
17918.5
7363.18
7669.85
8531.31
7265.45
10528.4
11555.2
10974.4
11560.9
18650.2
17420
19417.5
17506.2
6536.49
7614.74
6255.68
7579.64
798.319
656.422
4869.92
1718.41
982.458
528.763
4347.88
1456.64
725.632
550.096
5024.03
1850.78
845.203
544.127
4970.95
1902.37
-61.5741
-166.197
311.945
134.617
-403.771
-729.471
513.939
185.501
1011.43
266.591
1378.84
928.476
-4662.2
-2347.98
-2374.67
-1439.47
-71.0292
-5599.18
-7308.19
-2791.11
-2562.4
-194.195
10236.8
6840.7
4612.12
3605.9
1302.7
-208.681
-145.823
41.3755
16.1957
-625.804
-535.744
112.693
41.3425
-498.795
-586.426
405.422
232.281
-1263.19
293.327
-4490.12
-2122.14
-1811.52
-756.955
-1599.9
-955.305
-124.225
-43.765
5680.15
3762.8
1070.81
-25.0168
317.057
-275.713
337.732
-175.978
-20.3165
-74.1625
4220.08
3437.11
7965.63
4427.62
8641.27
6444.75
12018.6
7734
5011.34
2634.54
2184.37
1989.15
9150.88
3847.67
9772.09
3787.31
13645.2
7762.83
14647.4
7832.82
5853.62
2110.22
6255.04
1970.7