/*--------------------------------*- C++ -*----------------------------------*\
| =========                 |                                                 |
| \\      /  F ield         | OpenFOAM: The Open Source CFD Toolbox           |
|  \\    /   O peration     | Version:  2412                                  |
|   \\  /    A nd           | Website:  www.openfoam.com                      |
|    \\/     M anipulation  |                                                 |
\*---------------------------------------------------------------------------*/
FoamFile
{
    version     2.0;
    format      ascii;
    arch        "LSB;label=32;scalar=64";
    class       volScalarField;
    location    "0.4";
    object      T;
}
// * * * * * * * * * * * * * * * * * * * * * * * * * * * * * * * * * * * * * //

dimensions      [0 0 0 1 0 0 0];

internalField   nonuniform List<scalar> 
5712
(
523.217
548.531
504.937
534.867
481.551
515.214
448.082
483.358
453.884
489.28
485.341
521.097
500.35
533.543
514.781
543.921
467.165
441.139
492.996
454.302
435.646
409.995
458.881
420.399
533.241
541.502
553.982
558.24
518.116
528.814
542.545
549.178
516.706
495.939
477.134
464.418
514.489
532.961
522.193
530.298
466.403
476.789
491.731
499.589
431.473
439.721
537.007
544.756
491.873
506.306
552.117
561.38
546.879
561.568
561.738
568.431
534.668
556.69
553.287
565.195
518.207
548.329
535.936
558.036
547.617
562.36
554.48
564.951
417.12
394.743
429.662
401.019
382.078
364.231
392.956
369.945
463.844
433.101
451.04
425.706
437.78
404.82
442.032
406.34
400.22
373.351
403.855
374.64
472.495
437.626
477.006
439.479
500.785
545.857
471.789
524.987
488.257
537.464
462.795
517.247
508.777
549.848
476.84
529.209
512.714
551.438
478.851
531.548
534.289
509.642
554.085
535.937
519.972
495.467
547.742
527.572
499.961
475.851
536.743
514.639
390.481
353.168
431.034
469.646
521.204
351.107
386.275
421.174
455.472
501.37
350.567
383.445
415.603
449.937
501.711
462.488
420.918
469.009
428.819
455.256
414.678
466.885
426.549
443.993
406.453
462.954
423.47
341.668
325.217
373.826
352.39
403.765
375.72
430.658
396.954
459.787
421.418
340.718
323.522
370.079
349.086
398.23
372.187
427.229
395.421
459.187
421.086
372.242
357.296
373.652
359.986
342.122
321.654
342.942
321.635
403.849
390.717
401.837
386.278
374.374
360.784
375.247
361.838
343.983
322
344.931
323.163
404.486
391.677
405.613
392.982
436.188
421.87
469.169
454.212
433.552
416.067
466.446
447.092
436.283
422.47
469.664
455.899
437.037
423.361
469.426
455.34
375.164
339.25
320.459
379.053
341.247
321.942
371.349
335.697
317.315
377.368
338.903
319.307
363.864
328.998
311.344
374.738
335.071
315.292
305.772
291.74
284.929
325.978
303.647
292.601
342.786
313.888
299.359
356.777
323.053
306.131
371.439
330.924
310.817
304.042
290.35
283.622
324.317
302.957
292.086
340.269
312.369
298.167
354.395
320.144
303.07
367.135
327.105
307.485
365.578
350.244
370.156
354.464
397.788
376.911
409.214
384.457
336.537
318.166
337.677
319.547
337.901
318.881
339.419
320.571
337.338
334.736
335.892
330.434
318.133
320.958
356.947
359.254
389.741
394.037
338.039
339.078
337.602
338.292
322.109
322.185
300.699
286.504
304.388
288.219
301.759
286.198
305.252
288.026
302.238
285.673
306.517
287.958
307.952
288.579
308.324
288.78
327.765
315.421
334.215
319.45
351.337
335.889
360.429
341.128
315.998
303.912
310.53
300.878
337.478
321.549
338.934
322.226
365.604
343.982
368.087
344.934
318.288
305.457
319.033
305.941
301.625
286.05
293.018
283.224
297.627
284.349
291.032
282.261
303.51
286.998
294.092
283.752
304.14
287.432
294.484
283.924
288.461
282.336
282.873
279.762
289.117
283.17
282.672
279.828
289.887
284.927
282.386
280.149
308.465
325.117
297.472
290.475
281.89
322.988
305.464
293.261
286.711
280.317
323.222
306.698
295.485
288.09
281.065
278.791
276.584
277.453
275.794
279.735
277.257
277.759
276.083
281.442
278.645
278.297
276.6
315.608
303.53
299.458
291.094
289.562
284.602
283.868
280.518
279.009
277.306
315.39
302.98
300.779
292.186
291.202
285.575
284.97
281.197
279.901
278.105
303.181
292.818
304.239
293.022
317.421
302.48
319.03
302.214
293.852
286.693
293.078
286.356
304.977
293.069
305.596
293.686
320.583
301.813
321.54
302.643
294.303
286.887
294.665
287.273
286.212
282.104
280.871
278.598
286.076
281.723
280.605
278.464
286.209
282.396
280.946
278.651
286.692
282.583
281.001
278.884
274.737
273.79
273.427
273.941
273.386
273.202
275.221
274.04
273.568
274.119
273.48
273.252
276.082
274.481
273.839
274.423
273.625
273.335
291.216
283.05
279.275
283.732
278.82
276.609
279.74
276.558
275.172
277.164
275.053
274.178
274.761
273.798
273.423
290.44
282.302
278.574
283.989
278.674
276.302
280.065
276.545
275.017
277.348
275.13
274.209
275.035
273.926
273.469
277.873
274.589
273.525
273.159
278.399
274.723
273.565
273.169
277.752
274.562
273.523
273.16
278.358
274.721
273.576
273.173
277.534
274.512
273.521
273.162
278.275
274.712
273.587
273.178
278.445
274.771
273.59
273.178
278.518
274.806
273.587
273.176
277.728
274.575
273.546
273.169
276.937
274.364
273.466
273.152
277.19
274.424
273.502
273.161
276.636
274.277
273.44
273.147
278.04
274.67
273.564
273.172
277.13
274.424
273.479
273.154
278.187
274.721
273.572
273.174
277.227
274.459
273.488
273.157
276.984
274.371
273.466
273.146
276.054
274.13
273.391
273.13
276.885
274.346
273.46
273.146
276.036
274.125
273.389
273.131
276.729
274.305
273.452
273.145
276.071
274.134
273.39
273.131
276.501
274.242
273.434
273.143
276.069
274.132
273.391
273.134
276.295
274.187
273.41
273.142
275.334
273.943
273.311
273.111
274.983
273.858
273.274
273.098
275.412
273.964
273.317
273.113
275.067
273.882
273.281
273.1
275.542
273.999
273.327
273.116
275.217
273.922
273.291
273.104
275.719
274.043
273.343
273.122
275.427
273.977
273.306
273.108
275.972
274.104
273.362
273.127
275.665
274.036
273.321
273.112
276.309
274.206
273.38
273.132
275.99
274.138
273.344
273.119
276.175
274.16
273.373
273.13
275.875
274.096
273.334
273.116
276.382
274.237
273.382
273.133
276.057
274.168
273.348
273.121
276.431
274.261
273.387
273.135
276.107
274.19
273.353
273.122
273.049
273.016
273.005
273.001
273
273.05
273.016
273.005
273.001
273
273.049
273.016
273.005
273.001
273
273.05
273.016
273.005
273.001
273
273.049
273.016
273.005
273.001
273
273.051
273.016
273.005
273.001
273
273.053
273.017
273.005
273.001
273.001
273.054
273.017
273.005
273.002
273.001
273.05
273.016
273.005
273.001
273
273.049
273.016
273.005
273.001
273
273.049
273.016
273.005
273.001
273
273.048
273.016
273.005
273.001
273
273.052
273.016
273.005
273.001
273.001
273.05
273.016
273.005
273.001
273.001
273.053
273.017
273.005
273.002
273.001
273.051
273.017
273.005
273.002
273.001
273.046
273.015
273.005
273.001
273
273.045
273.015
273.005
273.001
273
273.046
273.015
273.005
273.001
273
273.045
273.015
273.005
273.001
273
273.046
273.015
273.005
273.001
273
273.045
273.015
273.005
273.001
273
273.047
273.015
273.005
273.001
273
273.046
273.015
273.005
273.001
273
273.047
273.016
273.005
273.001
273
485.636
474.864
485.383
474.822
484.763
474.615
484.08
473.986
484.103
473.768
487.933
482.356
486.327
479.185
488.511
483.321
488.861
483.742
553.283
567.86
571.312
572.233
572.491
536.715
562.603
569.604
571.503
572.037
553.846
568.081
571.394
572.272
572.519
537.112
562.835
569.698
571.55
572.076
554.312
568.287
571.47
572.307
572.543
537.504
563.062
569.788
571.591
572.105
554.911
568.503
571.535
572.33
572.556
537.829
563.202
569.816
571.591
572.101
555.419
568.588
571.528
572.311
572.537
538.05
563.136
569.722
571.516
572.041
552.663
567.186
570.872
571.937
572.264
536.785
561.673
568.887
571.006
571.664
553.842
567.848
571.2
572.129
572.406
537.401
562.428
569.334
571.284
571.87
551.798
566.703
570.622
571.785
572.15
536.28
561.146
568.559
570.794
571.504
552.003
566.7
570.587
571.752
572.121
536.331
561.03
568.45
570.708
571.436
372.717
419.238
415.947
371.048
351.361
353.438
359.367
363.055
373.338
377.616
403.651
413.747
409.783
419.616
383.243
386.96
372.615
375.815
362.889
365.334
304.362
292.132
274.216
273.609
273.698
273.535
273.956
300.17
292.015
284.805
283.244
279.029
276.438
278.988
276.295
275.126
275.383
274.679
298.715
282.994
276.404
276.225
278.365
277.332
275.655
275.249
274.204
274.08
274.965
274.985
300.461
287.158
290.186
281.722
278.998
283.808
275.625
274.25
276.116
294.664
287.527
282.759
278.988
275.151
287.058
282.831
279.53
276.845
274.284
274.017
273.783
273.54
273.312
273.102
273.515
273.401
273.279
273.162
273.053
273.59
273.46
273.32
273.186
273.061
273.453
273.354
273.247
273.144
273.047
273.803
273.622
273.43
273.249
273.081
292.156
285.531
281.199
277.902
274.819
286.027
281.442
278.417
276.138
274.078
281.811
279.124
276.981
275.276
273.756
280.03
277.546
275.872
274.619
273.551
277.171
275.685
274.679
273.933
273.308
275.735
275.006
274.331
273.754
273.244
277.579
276.245
275.113
274.191
273.389
275.564
274.843
274.205
273.676
273.218
274.73
274.296
273.872
273.496
273.161
274.914
274.416
273.944
273.534
273.173
274.377
274.04
273.704
273.401
273.13
291.362
285.181
281.067
277.854
274.783
280.689
278.475
276.607
275.067
273.679
275.744
275.036
274.364
273.777
273.252
275.617
274.954
274.316
273.751
273.244
277.26
276.119
275.077
274.186
273.386
276.503
275.605
274.75
273.999
273.324
275.183
274.651
274.122
273.644
273.209
274.854
274.406
273.957
273.549
273.178
274.004
273.771
273.529
273.304
273.099
273.904
273.697
273.48
273.277
273.09
274.615
274.221
273.828
273.473
273.154
274.637
274.242
273.845
273.484
273.157
292.28
285.899
281.645
278.27
274.908
283.671
280.564
278.028
275.933
273.976
286.133
281.922
278.881
276.425
274.073
279.869
277.982
276.319
274.905
273.617
277.808
276.541
275.369
274.354
273.438
281.393
278.961
276.931
275.253
273.719
275.157
274.63
274.107
273.635
273.206
274.043
273.802
273.551
273.318
273.103
275.54
274.905
274.286
273.736
273.239
459.429
525.882
447.573
510.612
418.45
484.484
428.85
500.694
434.158
417.309
480.162
442.678
405.117
387.968
446.86
409.257
482.959
504.679
537.271
546.023
473.617
495.236
526.888
537.566
503.707
464.29
466.204
441.925
487.97
522.157
517.652
529.229
460.708
475.237
486.8
498.197
425.706
437.969
532.812
543.867
486.936
505.045
549.094
560.883
526.447
554.721
554.518
566.022
514.985
550.375
545.878
562.786
502.018
543.193
528.26
555.506
544.675
561.297
553.862
564.708
406.016
389.377
422.28
396.878
372.602
360.079
386.265
366.288
456.865
429.205
440.183
420.241
433.837
402.329
440.879
405.485
396.462
371.041
402.72
373.83
468.887
435.349
475.959
438.708
495.3
543.912
468.84
523.773
479.197
534.199
458.367
515.424
506.041
548.865
475.162
528.528
511.939
551.151
478.288
531.328
503.469
476.958
543.951
524.89
491.454
466.073
538.94
518.165
477.487
453.922
529.982
507.89
388.219
357.588
422.451
458.578
516.979
356.948
384.418
411.573
442.785
496.66
353.126
380.976
409.917
444.108
499.326
435.621
403.658
458.297
426.239
430.643
398.829
458.067
424.854
424.998
394.499
457.037
423.197
345.793
329.794
371.181
351.297
395.277
370.752
420.676
391.962
456.107
422.1
342.815
326.138
368.467
349.92
394.343
372.186
423.372
395.897
457.371
422.693
369.916
356.389
371.611
358.8
341.335
322.099
341.587
321.254
401.632
389.245
398.833
384.796
373.063
359.927
374.789
361.534
342.951
321.54
344.55
322.98
403.145
390.694
405.156
392.642
434.351
420.494
467.95
453.189
430.88
414.702
464.837
446.23
435.182
421.549
468.916
455.209
436.641
423.032
469.193
455.116
380.38
368.404
398.865
386.144
375.603
362.308
396.554
381.215
370.484
355.808
392.998
373.595
315.148
306.471
333.846
321.79
350.441
335.51
367.233
349.976
388.461
364.908
309.712
302.022
332.095
320.225
349.736
334.051
366.29
346.157
381.907
357.692
344.141
336.002
357.36
345.967
372.334
358.859
396.963
374.469
325.639
309.847
331.799
313.921
324.374
310.225
331.359
314.789
329.733
322.156
329.598
320.828
310.546
315.828
351.992
357.654
384.134
392.211
333.462
337.497
333.729
336.954
318.807
320.998
299.434
287.297
301.688
288.048
300.164
286.909
302.498
287.801
300.68
286.3
304.022
287.709
306.066
288.254
307.613
288.635
323.365
314.733
330.031
317.866
344.425
333.637
354.881
338.474
313.45
303.251
308.734
301.231
334.825
320.306
338.084
321.756
362.279
342.15
367.046
344.27
316.487
304.779
318.422
305.664
300.533
286.065
292.924
283.434
297.708
284.99
291.786
282.939
302.525
286.846
293.817
283.77
303.777
287.356
294.353
283.912
295.935
293.212
285.844
284.216
296.32
293.594
285.357
283.803
296.179
293.612
284.65
283.258
315.581
333.002
303.131
294.387
283.659
333.082
315.287
301.802
292.75
282.795
328.825
311.754
299.303
290.754
282.465
290.634
287.586
282.452
280.14
291.047
287.92
282.194
280.004
291.04
287.757
281.8
279.759
324.276
312.17
309.053
300.574
298.21
293.101
290.281
286.779
281.67
279.805
320.295
307.368
305.916
296.9
295.403
289.534
287.988
284.074
281.52
279.807
304.431
294.334
304.128
293.315
318.12
303.809
318.448
302.331
294.035
287.05
294.42
287.734
304.601
292.982
305.423
293.622
319.906
301.609
321.266
302.539
294.156
286.882
294.576
287.243
286.505
282.431
281.165
278.861
287.229
282.794
281.387
279.181
286.217
282.439
281.021
278.715
286.665
282.575
281.009
278.891
285.004
283.665
276.903
276.367
285.595
283.915
276.925
276.327
284.893
282.747
276.865
276.131
301.672
295.431
293.542
289.238
288.221
285.113
283.36
281.127
276.837
275.9
295.896
290.898
289.015
285.435
284.087
281.592
280.212
278.689
276.465
275.597
278.397
274.794
273.599
273.183
278.665
274.869
273.626
273.19
278.235
274.753
273.592
273.182
278.565
274.844
273.629
273.192
277.957
274.68
273.583
273.182
278.416
274.804
273.629
273.193
278.489
274.82
273.614
273.186
278.524
274.821
273.595
273.179
277.873
274.652
273.579
273.182
277.099
274.437
273.495
273.163
277.538
274.561
273.553
273.178
276.965
274.402
273.484
273.162
278.085
274.707
273.582
273.18
277.195
274.461
273.495
273.161
278.195
274.732
273.578
273.176
277.243
274.47
273.493
273.159
277.939
274.667
273.559
273.174
277.383
274.514
273.499
273.161
277.769
274.625
273.548
273.172
277.253
274.485
273.49
273.16
277.505
274.557
273.532
273.169
277.067
274.441
273.479
273.157
277.132
274.453
273.502
273.164
276.891
274.393
273.467
273.157
276.824
274.367
273.467
273.16
276.85
274.383
273.422
273.145
276.525
274.32
273.389
273.134
276.781
274.369
273.422
273.145
276.461
274.305
273.387
273.134
276.666
274.343
273.417
273.145
276.363
274.281
273.383
273.133
276.592
274.318
273.418
273.146
276.315
274.26
273.381
273.133
276.558
274.299
273.421
273.147
276.289
274.243
273.379
273.132
276.486
274.281
273.407
273.142
276.165
274.213
273.369
273.128
276.526
274.289
273.414
273.145
276.234
274.228
273.374
273.131
276.455
274.274
273.396
273.138
276.127
274.204
273.361
273.126
276.449
274.271
273.392
273.136
276.125
274.2
273.356
273.124
273.056
273.018
273.005
273.002
273.001
273.057
273.018
273.005
273.002
273.001
273.055
273.018
273.005
273.002
273.001
273.056
273.018
273.005
273.002
273.001
273.054
273.017
273.005
273.002
273.001
273.055
273.018
273.005
273.002
273.001
273.055
273.017
273.005
273.002
273.001
273.055
273.017
273.005
273.002
273.001
273.054
273.017
273.005
273.002
273.001
273.052
273.017
273.005
273.002
273.001
273.053
273.017
273.005
273.002
273.001
273.052
273.017
273.005
273.002
273.001
273.054
273.017
273.005
273.002
273.001
273.052
273.017
273.005
273.002
273.001
273.054
273.017
273.005
273.002
273.001
273.052
273.017
273.005
273.002
273.001
273.054
273.017
273.005
273.002
273.001
273.053
273.017
273.005
273.002
273.001
273.054
273.017
273.005
273.002
273.001
273.052
273.017
273.005
273.002
273.001
273.053
273.017
273.005
273.002
273.001
273.052
273.017
273.005
273.002
273.001
273.052
273.017
273.005
273.002
273.001
273.052
273.017
273.005
273.002
273.001
273.052
273.017
273.005
273.002
273.001
480.625
471.617
481.099
472.126
481.634
472.792
482.009
472.961
482.841
473.312
487.152
481.617
485.316
478.41
488.019
482.833
488.7
483.581
552.489
567.71
571.281
572.227
572.49
535.497
562.315
569.543
571.491
572.035
553.161
567.95
571.367
572.267
572.518
536.051
562.579
569.644
571.54
572.074
553.79
568.184
571.448
572.302
572.542
536.691
562.856
569.743
571.582
572.103
554.552
568.429
571.519
572.327
572.556
537.266
563.048
569.782
571.584
572.099
555.186
568.537
571.517
572.308
572.537
537.669
563.025
569.696
571.511
572.04
552.509
567.153
570.865
571.936
572.264
536.525
561.609
568.872
571.003
571.663
553.649
567.806
571.19
572.127
572.406
537.077
562.342
569.315
571.28
571.869
551.698
566.681
570.618
571.784
572.149
536.114
561.107
568.55
570.793
571.504
551.97
566.693
570.586
571.751
572.121
536.276
561.017
568.447
570.707
571.436
370.602
417.052
409.192
364.265
349.153
359.359
347.03
359.182
379.168
405.074
384.157
408.892
273.008
273.014
273.031
273.07
273.155
273.329
273.013
273.022
273.045
273.096
273.2
273.402
273.005
273.003
273.009
273.007
273.022
273.018
273.055
273.047
273.132
273.122
273.297
273.282
273.669
274.346
275.733
278.537
281.658
284.281
273.778
274.45
275.577
277.228
278.962
280.183
273.007
273.005
273.004
273.002
273.001
273.012
273.01
273.007
273.004
273.001
273.027
273.021
273.015
273.009
273.003
273.06
273.048
273.034
273.02
273.007
273.133
273.105
273.074
273.044
273.014
273.28
273.22
273.154
273.09
273.03
273.011
273.009
273.006
273.004
273.001
273.019
273.015
273.011
273.006
273.002
273.039
273.031
273.022
273.013
273.004
273.083
273.066
273.046
273.027
273.009
273.171
273.135
273.095
273.056
273.018
273.341
273.267
273.187
273.109
273.036
273.004
273.003
273.002
273.001
273
273.003
273.002
273.002
273.001
273
273.008
273.006
273.005
273.003
273.001
273.006
273.005
273.003
273.002
273.001
273.019
273.015
273.011
273.006
273.002
273.015
273.012
273.009
273.005
273.002
273.047
273.038
273.027
273.016
273.005
273.041
273.033
273.023
273.014
273.005
273.113
273.09
273.064
273.037
273.012
273.105
273.083
273.059
273.035
273.011
273.253
273.199
273.14
273.082
273.027
273.241
273.19
273.134
273.078
273.026
273.565
273.44
273.306
273.178
273.058
274.125
273.866
273.597
273.345
273.112
275.25
274.706
274.162
273.669
273.217
277.459
276.313
275.232
274.281
273.417
279.815
277.982
276.336
274.922
273.63
281.737
279.317
277.217
275.438
273.802
273.655
273.509
273.354
273.205
273.067
274.211
273.933
273.643
273.372
273.121
275.13
274.623
274.11
273.639
273.208
276.454
275.602
274.767
274.015
273.331
277.816
276.594
275.428
274.395
273.455
278.758
277.273
275.879
274.655
273.54
273.008
273.014
273.032
273.072
273.158
273.336
273.013
273.022
273.046
273.098
273.203
273.406
273.005
273.003
273.009
273.007
273.022
273.018
273.057
273.049
273.137
273.128
273.31
273.306
273.682
274.364
275.752
278.537
281.635
284.264
273.784
274.457
275.581
277.225
278.952
280.178
273.007
273.006
273.004
273.002
273.001
273.012
273.01
273.007
273.004
273.001
273.027
273.022
273.016
273.009
273.003
273.062
273.049
273.035
273.021
273.007
273.136
273.108
273.076
273.045
273.015
273.286
273.225
273.158
273.093
273.03
273.011
273.009
273.006
273.004
273.001
273.019
273.015
273.011
273.007
273.002
273.04
273.032
273.023
273.013
273.004
273.084
273.067
273.047
273.028
273.009
273.173
273.137
273.096
273.056
273.019
273.345
273.27
273.189
273.111
273.036
273.004
273.003
273.002
273.001
273
273.003
273.002
273.002
273.001
273
273.008
273.006
273.005
273.003
273.001
273.006
273.005
273.004
273.002
273.001
273.019
273.016
273.011
273.007
273.002
273.016
273.013
273.009
273.005
273.002
273.049
273.039
273.028
273.017
273.005
273.042
273.034
273.024
273.014
273.005
273.118
273.093
273.066
273.039
273.013
273.11
273.088
273.062
273.037
273.012
273.265
273.209
273.147
273.086
273.028
273.261
273.206
273.146
273.085
273.028
273.577
273.45
273.314
273.183
273.06
274.141
273.881
273.608
273.352
273.115
275.269
274.724
274.177
273.679
273.221
277.465
276.323
275.243
274.29
273.42
279.803
277.978
276.338
274.926
273.632
281.726
279.312
277.215
275.438
273.802
273.661
273.515
273.358
273.208
273.068
274.218
273.939
273.648
273.375
273.122
275.136
274.63
274.116
273.644
273.21
276.454
275.605
274.771
274.019
273.332
277.81
276.593
275.429
274.397
273.456
278.755
277.271
275.878
274.655
273.54
304.264
292.087
274.26
273.635
273.814
273.598
274.039
301.287
295.514
286.243
288.393
277.402
280.683
275.905
276.799
275.443
298.906
283.492
276.927
276.533
278.73
277.508
275.72
275.41
274.622
274.331
275.405
275.251
300.283
287.1
290.245
281.739
279.087
284.022
275.743
274.391
276.329
294.603
287.495
282.746
278.985
275.153
287.03
282.816
279.525
276.845
274.284
274.056
273.816
273.564
273.327
273.107
273.538
273.42
273.293
273.171
273.056
273.69
273.54
273.377
273.22
273.072
273.508
273.398
273.279
273.163
273.053
273.876
273.681
273.473
273.275
273.09
293.472
286.772
282.228
278.614
275.098
289.346
284.127
280.47
277.497
274.597
283.143
280.245
277.836
275.826
273.952
284.508
280.871
278.255
276.123
274.11
276.569
275.671
274.811
274.045
273.343
279.054
277.422
275.969
274.72
273.573
275.395
274.821
274.246
273.72
273.235
276.103
275.339
274.592
273.918
273.301
275.027
274.551
274.065
273.616
273.201
291.709
285.583
281.439
278.129
274.896
281.169
278.899
276.94
275.285
273.756
276.203
275.41
274.637
273.944
273.309
275.892
275.182
274.485
273.856
273.279
277.596
276.405
275.295
274.323
273.434
276.666
275.745
274.858
274.068
273.348
275.243
274.703
274.163
273.67
273.218
274.997
274.525
274.045
273.603
273.196
274.361
274.052
273.728
273.423
273.138
274.119
273.868
273.602
273.35
273.114
274.995
274.526
274.047
273.605
273.198
274.87
274.432
273.983
273.568
273.185
292.195
285.878
281.658
278.297
274.925
283.643
280.558
278.035
275.944
273.981
286.251
282.067
279.021
276.528
274.109
279.902
278.022
276.359
274.935
273.628
277.899
276.626
275.439
274.4
273.454
281.619
279.175
277.108
275.372
273.761
275.264
274.721
274.175
273.677
273.221
274.166
273.901
273.623
273.361
273.118
275.732
275.065
274.406
273.81
273.264
273.384
274.168
275.024
275.991
277.008
277.961
426.227
418.353
391.327
398.651
407.027
396.929
381.21
369.652
451.67
477.195
445.232
469.327
436.524
422.42
461.41
408.071
402.564
377.903
383.207
393.62
386.453
369.944
361.528
430.676
449.017
426.623
444.019
419.758
408.848
438.479
382.491
379.514
358.661
361.777
373.956
370.528
353.527
348.491
401.308
417.799
399.196
415.121
395.613
389.283
411.946
356.609
355.062
338.27
340.07
351.74
350.125
335.048
331.848
373.138
388.717
371.984
386.486
369.639
365.056
383.896
338.218
337.204
323.557
324.805
334.576
333.112
321.097
318.169
352.301
365.809
351.627
364.653
349.813
345.73
362.285
325.927
325.109
313.741
314.727
322.821
321.417
311.721
309.265
337.85
350.802
337.251
349.952
335.643
331.847
347.369
339.043
336.229
362.054
366.653
332.616
325.943
355.535
345.611
318.446
303.142
316.701
302.974
312.85
311.724
302.69
332.55
330.021
352.712
356.392
326.788
320.958
347.196
339.044
312.419
300.263
310.761
300.381
307.625
307.022
300.156
322.745
320.793
338.731
341.217
318.306
314.043
334.819
329.261
307.954
297.841
306.741
297.652
304.339
303.902
297.172
311.648
310.183
323.22
324.842
308.013
304.468
320.481
316.152
301.587
294.471
300.564
293.888
298.575
297.793
293.009
303.433
302.31
311.927
313.105
300.655
297.801
309.82
306.291
296.419
291.79
295.508
290.841
293.777
292.732
289.596
297.986
297.067
304.409
305.345
295.728
293.321
302.698
299.819
293.193
289.493
292.335
288.369
290.526
289.327
287.026
524.145
549.148
504.938
534.826
481.552
515.199
448.086
483.356
453.895
489.279
485.359
521.09
500.384
533.53
515.964
544.724
467.161
441.133
492.987
454.296
435.646
409.993
458.878
420.396
533.938
542.053
554.416
558.577
518.102
528.785
542.495
549.13
516.685
495.925
477.123
464.409
514.468
532.937
522.189
530.296
466.398
476.786
491.729
499.588
431.47
439.718
537.001
544.754
491.867
506.303
552.111
561.378
547.34
561.786
562.019
568.551
534.63
556.68
553.245
565.183
518.186
548.321
535.918
558.03
547.61
562.357
554.478
564.95
417.115
394.739
429.657
401.015
382.075
364.229
392.953
369.942
463.837
433.097
451.032
425.701
437.776
404.816
442.028
406.337
400.217
373.348
403.852
374.637
472.49
437.623
477.001
439.476
500.777
545.853
471.786
524.986
488.246
537.46
462.791
517.245
508.772
549.846
476.837
529.208
512.711
551.436
478.849
531.547
534.76
510.065
554.359
536.234
519.917
495.403
547.727
527.55
499.934
475.827
536.734
514.633
390.476
353.166
431.027
469.634
521.2
351.104
386.271
421.167
455.46
501.367
350.564
383.441
415.598
449.931
501.71
462.779
421.087
469.219
428.928
455.236
414.65
466.911
426.562
443.98
406.443
462.961
423.476
341.666
325.215
373.822
352.387
403.759
375.716
430.651
396.949
459.789
421.421
340.716
323.52
370.075
349.083
398.226
372.185
427.225
395.42
459.187
421.087
372.24
357.293
373.649
359.984
342.12
321.652
342.94
321.634
403.846
390.715
401.834
386.275
374.371
360.782
375.244
361.836
343.981
321.999
344.929
323.162
404.484
391.675
405.611
392.98
436.186
421.868
469.168
454.211
433.549
416.065
466.446
447.092
436.281
422.469
469.663
455.898
437.035
423.36
469.424
455.339
375.298
339.376
320.589
379.128
341.338
322.046
371.336
335.688
317.313
377.373
338.904
319.31
363.859
328.995
311.342
374.741
335.072
315.293
305.771
291.74
284.928
325.976
303.646
292.601
342.784
313.887
299.358
356.774
323.052
306.13
371.44
330.925
310.817
304.041
290.35
283.622
324.315
302.956
292.085
340.268
312.369
298.166
354.394
320.143
303.069
367.136
327.105
307.485
365.581
350.243
370.159
354.463
397.79
376.91
409.216
384.456
336.378
318.099
337.49
319.465
337.88
318.865
339.396
320.555
337.33
334.727
335.889
330.43
318.123
320.949
356.946
359.253
389.74
394.035
338.035
339.077
337.6
338.292
322.105
322.184
300.657
286.503
304.34
288.219
301.753
286.191
305.244
288.02
302.232
285.669
306.511
287.954
307.949
288.577
308.322
288.779
327.764
315.419
334.213
319.448
351.336
335.887
360.427
341.126
315.996
303.911
310.528
300.877
337.476
321.547
338.933
322.225
365.602
343.981
368.085
344.932
318.286
305.456
319.033
305.94
301.622
286.048
293.017
283.223
297.624
284.347
291.03
282.259
303.508
286.996
294.091
283.751
304.139
287.431
294.483
283.923
288.437
282.305
282.871
279.751
289.115
283.171
282.666
279.824
289.884
284.926
282.383
280.147
308.463
325.115
297.47
290.473
281.887
322.986
305.463
293.259
286.71
280.316
323.221
306.697
295.483
288.088
281.064
278.76
276.559
277.444
275.786
279.737
277.259
277.759
276.084
281.442
278.645
278.296
276.6
315.606
303.529
299.457
291.093
289.561
284.601
283.867
280.518
279.008
277.305
315.389
302.978
300.778
292.185
291.201
285.574
284.969
281.196
279.9
278.104
303.18
292.817
304.238
293.022
317.419
302.478
319.029
302.213
293.851
286.692
293.077
286.355
304.976
293.068
305.595
293.685
320.581
301.812
321.538
302.642
294.302
286.886
294.664
287.273
286.211
282.104
280.87
278.598
286.075
281.722
280.604
278.464
286.208
282.395
280.945
278.65
286.692
282.582
281.001
278.884
274.723
273.783
273.422
273.938
273.385
273.201
275.223
274.041
273.569
274.12
273.481
273.252
276.082
274.482
273.839
274.423
273.625
273.335
291.215
283.049
279.274
283.731
278.82
276.609
279.74
276.558
275.172
277.164
275.053
274.178
274.761
273.798
273.423
290.439
282.301
278.574
283.989
278.673
276.302
280.064
276.545
275.017
277.347
275.13
274.209
275.035
273.926
273.469
277.877
274.59
273.525
273.159
278.401
274.723
273.565
273.169
277.751
274.562
273.523
273.16
278.357
274.721
273.576
273.173
277.533
274.511
273.521
273.162
278.274
274.712
273.587
273.178
278.444
274.771
273.59
273.178
278.517
274.806
273.587
273.176
277.727
274.575
273.546
273.169
276.936
274.364
273.466
273.152
277.189
274.424
273.502
273.161
276.635
274.277
273.44
273.147
278.039
274.67
273.564
273.172
277.129
274.424
273.479
273.154
278.187
274.72
273.572
273.174
277.227
274.459
273.488
273.157
276.987
274.371
273.466
273.146
276.053
274.13
273.391
273.13
276.883
274.346
273.46
273.146
276.035
274.125
273.389
273.131
276.728
274.305
273.452
273.145
276.07
274.134
273.39
273.131
276.5
274.242
273.434
273.143
276.068
274.132
273.391
273.134
276.294
274.186
273.41
273.142
275.333
273.943
273.311
273.111
274.981
273.858
273.274
273.098
275.412
273.964
273.317
273.113
275.068
273.882
273.281
273.1
275.542
273.999
273.327
273.116
275.216
273.922
273.291
273.104
275.718
274.042
273.342
273.122
275.427
273.977
273.306
273.108
275.972
274.104
273.362
273.127
275.664
274.036
273.321
273.112
276.309
274.206
273.38
273.132
275.989
274.138
273.344
273.119
276.175
274.16
273.373
273.13
275.875
274.096
273.334
273.116
276.382
274.237
273.382
273.133
276.057
274.168
273.348
273.12
276.43
274.261
273.387
273.134
276.107
274.189
273.353
273.122
273.048
273.016
273.005
273.001
273
273.05
273.016
273.005
273.001
273
273.049
273.016
273.005
273.001
273
273.05
273.016
273.005
273.001
273
273.049
273.016
273.005
273.001
273
273.051
273.016
273.005
273.001
273
273.053
273.017
273.005
273.001
273.001
273.054
273.017
273.005
273.002
273.001
273.05
273.016
273.005
273.001
273
273.049
273.016
273.005
273.001
273
273.049
273.016
273.005
273.001
273
273.048
273.016
273.005
273.001
273
273.052
273.016
273.005
273.001
273.001
273.05
273.016
273.005
273.001
273.001
273.053
273.017
273.005
273.002
273.001
273.051
273.017
273.005
273.002
273.001
273.046
273.015
273.005
273.001
273
273.045
273.015
273.005
273.001
273
273.046
273.015
273.005
273.001
273
273.045
273.015
273.005
273.001
273
273.046
273.015
273.005
273.001
273
273.045
273.015
273.005
273.001
273
273.047
273.015
273.005
273.001
273
273.046
273.015
273.005
273.001
273
273.047
273.016
273.005
273.001
273
485.708
474.94
485.42
474.859
484.782
474.634
484.089
473.995
484.107
473.772
487.934
482.356
486.329
479.186
488.51
483.321
488.861
483.742
553.368
567.885
571.32
572.237
572.494
536.765
562.62
569.61
571.506
572.039
553.881
568.095
571.399
572.275
572.521
537.151
562.853
569.706
571.555
572.079
554.325
568.294
571.473
572.308
572.544
537.525
563.074
569.793
571.594
572.107
554.916
568.506
571.537
572.331
572.557
537.839
563.208
569.819
571.593
572.102
555.422
568.59
571.529
572.311