/*--------------------------------*- C++ -*----------------------------------*\
| =========                 |                                                 |
| \\      /  F ield         | OpenFOAM: The Open Source CFD Toolbox           |
|  \\    /   O peration     | Version:  2412                                  |
|   \\  /    A nd           | Website:  www.openfoam.com                      |
|    \\/     M anipulation  |                                                 |
\*---------------------------------------------------------------------------*/
FoamFile
{
    version     2.0;
    format      ascii;
    arch        "LSB;label=32;scalar=64";
    class       surfaceScalarField;
    location    "30/topAir";
    object      phi;
}
// * * * * * * * * * * * * * * * * * * * * * * * * * * * * * * * * * * * * * //

dimensions      [1 0 -1 0 0 0 0];

oriented        oriented;

internalField   nonuniform List<scalar> 
3140
(
9.0691563e-06
1.1710295e-07
8.2710037e-08
8.841331e-06
1.23573e-07
1.042523e-07
8.6163437e-06
1.1490964e-07
1.1007765e-07
8.3921954e-06
1.1103597e-07
1.1311231e-07
8.1704017e-06
1.0758377e-07
1.142099e-07
7.9547348e-06
1.0257188e-07
1.1309508e-07
7.7475979e-06
9.6794457e-08
1.1034244e-07
7.5501492e-06
9.0814915e-08
1.066338e-07
7.363135e-06
8.4605511e-08
1.0240874e-07
7.1873463e-06
7.7848817e-08
9.7939959e-08
7.023986e-06
6.988924e-08
9.3471133e-08
6.8754126e-06
5.924202e-08
8.9331541e-08
6.7458223e-06
4.3519648e-08
8.6072959e-08
6.6249505e-06
3.5608551e-08
8.5316508e-08
6.5111025e-06
2.5640194e-08
8.8306148e-08
6.4023574e-06
1.4280583e-08
9.4600913e-08
6.2972992e-06
2.0984715e-09
1.0312581e-07
6.1985462e-06
-1.4232664e-08
1.1317243e-07
6.1064079e-06
-3.1175769e-08
1.235128e-07
6.0213671e-06
-4.8232397e-08
1.3347644e-07
5.9438118e-06
-6.4745628e-08
1.42502e-07
5.8738109e-06
-7.9935569e-08
1.5013044e-07
5.8110154e-06
-9.2964526e-08
1.5594341e-07
5.7546387e-06
-1.0289857e-07
1.5944603e-07
5.7033404e-06
-1.0855706e-07
1.600125e-07
5.6551993e-06
-1.0848411e-07
1.5676884e-07
5.6075635e-06
-1.0071124e-07
1.4847779e-07
5.5568778e-06
-8.2617185e-08
1.3342202e-07
5.4990635e-06
-5.1293893e-08
1.0921712e-07
-7.4145476e-09
7.3956874e-08
9.3013454e-06
-3.4450329e-11
8.4752765e-08
9.3179029e-06
-7.4396309e-11
1.0708999e-07
9.3191409e-06
-1.3865927e-10
1.1381024e-07
9.3122242e-06
-2.4789027e-10
1.1820058e-07
9.2994191e-06
-4.3408608e-10
1.2082292e-07
9.2814167e-06
-7.5036076e-10
1.213247e-07
9.2592147e-06
-1.2836185e-09
1.2027997e-07
9.2338758e-06
-2.1732349e-09
1.1832708e-07
9.2062826e-06
-3.6376245e-09
1.1583633e-07
9.1771462e-06
-6.006057e-09
1.1299138e-07
9.1468959e-06
-9.7366538e-09
1.0987618e-07
9.1149921e-06
-1.532108e-08
1.0646687e-07
9.0785393e-06
-2.2562431e-08
1.0253497e-07
9.0458053e-06
-2.9170203e-08
9.7514264e-08
9.0150254e-06
-3.507938e-08
9.1503097e-08
8.9862547e-06
-4.1791595e-08
8.4849395e-08
8.9596752e-06
-4.921605e-08
7.7903652e-08
8.9324874e-06
-5.77966e-08
7.0765143e-08
8.9045516e-06
-6.721752e-08
6.3994788e-08
8.8758361e-06
-7.7076349e-08
5.7580228e-08
8.8464374e-06
-8.683153e-08
5.1508832e-08
8.8166701e-06
-9.5829482e-08
4.5688509e-08
8.7871207e-06
-1.0332569e-07
3.9940378e-08
8.7588444e-06
-1.0836343e-07
3.3773188e-08
8.7332065e-06
-1.0968438e-07
2.6798997e-08
8.712375e-06
-1.060137e-07
1.8396213e-08
8.7000363e-06
-9.596702e-08
7.630895e-09
8.7015629e-06
-7.7509423e-08
-6.5970801e-09
8.7231044e-06
-4.8042071e-08
-2.4755225e-08
-8.0137681e-09
-4.5843745e-08
9.301314e-06
-1.1714812e-07
8.4752082e-08
9.3178201e-06
-1.2366901e-07
1.0708849e-07
9.3189591e-06
-1.15085e-07
1.1380728e-07
9.3118615e-06
-1.1134475e-07
1.1819445e-07
9.2987347e-06
-1.0811744e-07
1.2081016e-07
9.2801702e-06
-1.0348423e-07
1.2129837e-07
9.2570024e-06
-9.8342384e-08
1.2022655e-07
9.230033e-06
-9.3424897e-08
1.1822104e-07
9.1997492e-06
-8.8985255e-08
1.1563146e-07
9.1663168e-06
-8.5182724e-08
1.1260903e-07
9.1295898e-06
-8.2207227e-08
1.0919756e-07
9.0891138e-06
-8.0200379e-08
1.0535534e-07
9.0446592e-06
-7.9057302e-08
1.0094946e-07
8.9979366e-06
-7.8220931e-08
9.5773326e-08
8.9503692e-06
-7.7219787e-08
8.9707935e-08
8.9023543e-06
-7.6605269e-08
8.2828913e-08
8.8544375e-06
-7.6585568e-08
7.5286758e-08
8.806617e-06
-7.7173803e-08
6.7198449e-08
8.7590124e-06
-7.8318914e-08
5.8707075e-08
8.7119006e-06
-7.9796506e-08
4.9833442e-08
8.6657104e-06
-8.1163625e-08
4.0524284e-08
8.6212082e-06
-8.1887949e-08
3.0563135e-08
8.5798367e-06
-8.192887e-08
1.997776e-08
8.5442951e-06
-8.1251757e-08
8.4335784e-09
8.5186463e-06
-7.9609443e-08
-4.4219199e-09
8.5075054e-06
-7.6166035e-08
-1.8701937e-08
8.5158023e-06
-6.9654189e-08
-3.4604219e-08
8.5489237e-06
-5.8783177e-08
-5.1841559e-08
8.6125698e-06
-4.1939594e-08
-6.9741847e-08
-1.6122079e-08
-8.7162565e-08
9.0690873e-06
8.2708562e-08
8.8411693e-06
1.0424901e-07
8.6160132e-06
1.1007113e-07
8.3915695e-06
1.1309895e-07
8.1692698e-06
1.1418225e-07
7.9527475e-06
1.1303807e-07
7.744179e-06
1.1022607e-07
7.5443546e-06
1.0639948e-07
7.3534257e-06
1.0194367e-07
7.1712136e-06
9.7029302e-08
6.9972983e-06
9.1708071e-08
6.8311519e-06
8.5946004e-08
6.6724619e-06
7.9632822e-08
6.5216274e-06
7.2613577e-08
6.3796264e-06
6.4781198e-08
6.2468469e-06
5.6174204e-08
6.1233273e-06
4.6934059e-08
6.0089264e-06
3.7227201e-08
5.9035429e-06
2.7064616e-08
5.8074393e-06
1.6307265e-08
5.7217333e-06
4.5425763e-09
5.6473989e-06
-7.5532477e-09
5.5861007e-06
-2.0630362e-08
5.5395879e-06
-3.4738469e-08
5.5098249e-06
-4.9845828e-08
5.4996046e-06
-6.5944919e-08
5.5126784e-06
-8.2727062e-08
5.553315e-06
-9.9418652e-08
5.625557e-06
-1.141802e-07
-1.2477191e-07
9.1962564e-06
1.1907364e-07
3.6349198e-08
9.1095961e-06
1.2560098e-07
6.5311607e-08
9.0233871e-06
1.1669607e-07
7.9590606e-08
8.9363218e-06
1.1308652e-07
8.7091049e-08
8.8487871e-06
1.1004372e-07
9.1700944e-08
8.7624076e-06
1.0541794e-07
9.4056617e-08
8.6782146e-06
1.0004417e-07
9.4491277e-08
8.5967897e-06
9.450562e-08
9.3553051e-08
8.5186973e-06
8.8760781e-08
9.1740461e-08
8.4447436e-06
8.2451159e-08
8.9442641e-08
8.3762917e-06
7.4851769e-08
8.7071326e-08
8.3159329e-06
6.4405643e-08
8.5284942e-08
8.2679389e-06
4.8614348e-08
8.5454618e-08
8.2211351e-06
4.0892187e-08
9.1283023e-08
8.1737995e-06
3.0893145e-08
1.0485059e-07
8.1237925e-06
1.9705205e-08
1.250448e-07
8.0698715e-06
7.6785573e-09
1.4954244e-07
8.01348e-06
-6.2147721e-09
1.759757e-07
7.9578794e-06
-2.2926057e-08
2.0225077e-07
7.903762e-06
-3.9140012e-08
2.2695183e-07
7.8523059e-06
-5.4936203e-08
2.4911231e-07
7.8043806e-06
-6.977848e-08
2.6804715e-07
7.7603809e-06
-8.2983376e-08
2.8313053e-07
7.7202557e-06
-9.3894736e-08
2.9365885e-07
7.6832042e-06
-1.0135923e-07
2.9860347e-07
7.6475829e-06
-1.0394656e-07
2.965041e-07
7.6105988e-06
-9.9698367e-08
2.8531517e-07
7.5675037e-06
-8.5656439e-08
2.6231676e-07
7.509611e-06
-5.7067596e-08
2.2431043e-07
-9.8478221e-09
1.6657259e-07
9.435232e-06
-3.5643405e-11
3.7590798e-08
9.5999598e-06
-7.706241e-11
6.8040212e-08
9.7469602e-06
-1.4330827e-10
8.3649306e-08
9.8859671e-06
-2.5525027e-10
9.2535381e-08
1.0018633e-05
-4.4499608e-10
9.864534e-08
1.0143549e-05
-7.6581403e-10
1.025925e-07
1.0260489e-05
-1.3049157e-09
1.0468984e-07
1.0370083e-05
-2.2024491e-09
1.0544092e-07
1.0473094e-05
-3.678341e-09
1.0526415e-07
1.0570201e-05
-6.0638002e-09
1.043991e-07
1.0661821e-05
-9.8143523e-09
1.0292302e-07
1.0747433e-05
-1.5397037e-08
1.0065747e-07
1.0824301e-05
-2.2528936e-08
9.6810286e-08
1.0901825e-05
-2.8935298e-08
8.9819089e-08
1.0978375e-05
-3.4416237e-08
8.0265383e-08
1.1054559e-05
-4.0735851e-08
6.9112077e-08
1.1130818e-05
-4.7900121e-08
5.7232222e-08
1.120588e-05
-5.6029938e-08
4.5530279e-08
1.1277616e-05
-6.5305198e-08
3.4652865e-08
1.1346429e-05
-7.5199552e-08
2.4846094e-08
1.141226e-05
-8.5375969e-08
1.6139177e-08
1.1475345e-05
-9.5523624e-08
8.373627e-09
1.1535824e-05
-1.0493704e-07
1.4427566e-09
1.1595053e-05
-1.1264715e-07
-6.6738393e-09
1.1654054e-05
-1.1774119e-07
-1.5787409e-08
1.1714409e-05
-1.1854618e-07
-2.7325885e-08
1.177786e-05
-1.125001e-07
-4.2982996e-08
1.1846794e-05
-9.6379303e-08
-6.4771573e-08
1.1926722e-05
-6.659757e-08
-9.5114205e-08
-2.1707321e-08
-1.3061886e-07
9.4351998e-06
-1.1912033e-07
3.7589296e-08
9.599875e-06
-1.2570033e-07
6.8036536e-08
9.7467746e-06
-1.1687735e-07
8.3641716e-08
9.8855987e-06
-1.1340496e-07
9.2520054e-08
1.0017942e-05
-1.1059224e-07
9.8614594e-08
1.0142295e-05
-1.0635271e-07
1.0253134e-07
1.0258274e-05
-1.0162609e-07
1.0456963e-07
1.0366253e-05
-9.7169072e-08
1.0520838e-07
1.0466613e-05
-9.3230829e-08
1.048238e-07
1.0559519e-05
-8.9952089e-08
1.0359081e-07
1.0644895e-05
-8.7505169e-08
1.0151301e-07
1.0722437e-05
-8.6006198e-08
9.8422538e-08
1.0792229e-05
-8.5309389e-08
9.3937479e-08
1.0856362e-05
-8.480849e-08
8.7513585e-08
1.0916768e-05
-8.3985981e-08
7.8872345e-08
1.0974123e-05
-8.3471081e-08
6.8208891e-08
1.102913e-05
-8.3490473e-08
5.5870444e-08
1.1082116e-05
-8.4019272e-08
4.2202759e-08
1.1133082e-05
-8.5116113e-08
2.7552463e-08
1.1182381e-05
-8.6806912e-08
1.2142808e-08
1.1230343e-05
-8.8955714e-08
-3.8561871e-09
1.1278258e-05
-9.1406385e-08
-2.1466873e-08
1.132679e-05
-9.3797754e-08
-3.9691853e-08
1.1377087e-05
-9.5399442e-08
-5.9108294e-08
1.1430411e-05
-9.5339232e-08
-8.0143676e-08
1.1489408e-05
-9.2772899e-08
-1.0346896e-07
1.1558732e-05
-8.661226e-08
-1.2981115e-07
1.1645042e-05
-7.4959739e-08
-1.5956604e-07
1.1756538e-05
-5.5220846e-08
-1.9260857e-07
-2.4080134e-08
-2.251471e-07
9.1961862e-06
3.6346028e-08
9.109431e-06
6.530382e-08
9.0230503e-06
7.9574471e-08
8.9356858e-06
8.7058429e-08
8.8476406e-06
9.1635303e-08
8.7604008e-06
9.3925138e-08
8.6747711e-06
9.4229602e-08
8.5909654e-06
9.3036177e-08
8.5089508e-06
9.0727412e-08
8.428557e-06
8.7471045e-08
8.3495055e-06
8.3254381e-08
8.2715339e-06
7.7911422e-08
8.1947231e-06
7.1134271e-08
8.1199908e-06
6.2537385e-08
8.0489285e-06
5.1857535e-08
7.9824613e-06
3.9170363e-08
7.9210868e-06
2.481808e-08
7.8648705e-06
9.4242158e-09
7.8140275e-06
-7.2084828e-09
7.768993e-06
-2.546507e-08
7.7286871e-06
-4.4107032e-08
7.6932055e-06
-6.3477861e-08
7.6627931e-06
-8.4015536e-08
7.6387404e-06
-1.0608488e-07
7.6234649e-06
-1.2990918e-07
7.6204854e-06
-1.557377e-07
7.6348239e-06
-1.8367713e-07
7.6735001e-06
-2.1305362e-07
7.7455053e-06
-2.4140517e-07
-2.6588873e-07
9.1669309e-06
1.1889387e-07
1.949366e-08
9.0702891e-06
1.2517707e-07
3.6776383e-08
8.9863017e-06
1.1573961e-07
4.7838324e-08
8.9072799e-06
1.1174015e-07
5.437276e-08
8.832079e-06
1.0844609e-07
5.8455714e-08
8.7616099e-06
1.0359593e-07
6.0929776e-08
8.6960132e-06
9.8009448e-08
6.2078538e-08
8.6351129e-06
9.2265002e-08
6.2188439e-08
8.5790136e-06
8.6247597e-08
6.1592237e-08
8.5283935e-06
7.9431609e-08
6.0631256e-08
8.4849979e-06
7.0712964e-08
5.9754108e-08
8.4527618e-06
5.7710751e-08
5.981064e-08
8.4382972e-06
3.7117642e-08
6.2804294e-08
8.4239212e-06
3.1224191e-08
7.450738e-08
8.40747e-06
2.3403113e-08
9.803292e-08
8.3863997e-06
1.494651e-08
1.3135467e-07
8.3591804e-06
6.0993483e-09
1.7088911e-07
8.3269892e-06
-4.5233132e-09
2.1294503e-07
8.2933079e-06
-1.8395661e-08
2.5459944e-07
8.2590182e-06
-3.2335843e-08
2.9385592e-07
8.2252702e-06
-4.6600381e-08
3.2973783e-07
8.1925548e-06
-6.058592e-08
3.6161793e-07
8.1605389e-06
-7.3460767e-08
3.8886442e-07
8.1277471e-06
-8.3941503e-08
4.106346e-07
8.0915205e-06
-9.0621603e-08
4.2567804e-07
8.0476047e-06
-9.1338394e-08
4.3196841e-07
7.9899134e-06
-8.2923189e-08
4.261241e-07
7.910898e-06
-6.0832506e-08
4.0234499e-07
7.8044449e-06
-1.9508051e-08
3.5043944e-07
6.0073609e-08
2.5787843e-07
9.405368e-06
-3.8188185e-11
2.0115613e-08
9.56054e-06
-8.2958396e-11
3.8128197e-08
9.7101241e-06
-1.5534788e-10
4.9960196e-08
9.8573144e-06
-2.7910953e-10
5.7364369e-08
1.0002454e-05
-4.9155497e-10
6.2443006e-08
1.0143477e-05
-8.5569124e-10
6.6021859e-08
1.0279297e-05
-1.476724e-09
6.8355358e-08
1.0409849e-05
-2.5273046e-09
6.9681693e-08
1.0535403e-05
-4.2838667e-09
7.0241732e-08
1.0656221e-05
-7.168667e-09
7.0180625e-08
1.0772153e-05
-1.1758189e-08
6.9462309e-08
1.088146e-05
-1.8569219e-08
6.7630518e-08
1.0979056e-05
-2.6839273e-08
6.3171689e-08
1.1079302e-05
-3.2797117e-08
5.359563e-08
1.1178966e-05
-3.5764618e-08
3.9773073e-08
1.1278926e-05
-3.8983223e-08
2.3089537e-08
1.1379775e-05
-4.3009567e-08
5.5028332e-09
1.1479912e-05
-4.8332558e-08
-1.0782618e-08
1.1576672e-05
-5.531126e-08
-2.5172405e-08
1.1669983e-05
-6.3547231e-08
-3.7229462e-08
1.1759203e-05
-7.2720943e-08
-4.6931864e-08
1.1843804e-05
-8.2135442e-08
-5.4645564e-08
1.1923784e-05
-9.0967093e-08
-6.0994583e-08
1.1998333e-05
-9.8090891e-08
-6.7034415e-08
1.2067585e-05
-1.0157106e-07
-7.4047504e-08
1.213166e-05
-9.8731179e-08
-8.39628e-08
1.2191122e-05
-8.5714181e-08
-9.9605526e-08
1.224761e-05
-5.713228e-08
-1.2490935e-07
1.2306432e-05
-8.7452447e-09
-1.6464562e-07
7.3802763e-08
-2.2253959e-07
9.4053335e-06
-1.1894392e-07
2.0113857e-08
9.5604472e-06
-1.2528411e-07
3.8124008e-08
9.7099183e-06
-1.1593632e-07
4.9951503e-08
9.8569013e-06
-1.1208881e-07
5.7346821e-08
1.0001669e-05
-1.090531e-07
6.2407908e-08
1.0142036e-05
-1.0464324e-07
6.5952269e-08
1.0276717e-05
-9.9807336e-08
6.8218841e-08
1.0405324e-05
-9.5342874e-08
6.9417802e-08
1.0527637e-05
-9.1515721e-08
6.9742509e-08
1.0643274e-05
-8.8484607e-08
6.9269057e-08
1.0751558e-05
-8.6433702e-08
6.7904607e-08
1.0851519e-05
-8.5437001e-08
6.5330193e-08
1.0942832e-05
-8.5147962e-08
6.0932929e-08
1.1028295e-05
-8.4495689e-08
5.3749225e-08
1.1110689e-05
-8.2564202e-08
4.3277526e-08
1.1190681e-05
-8.0461976e-08
2.9695787e-08
1.1269066e-05
-7.8689811e-08
1.3166357e-08
1.1345874e-05
-7.7493878e-08
-5.4427295e-09
1.142054e-05
-7.6974371e-08
-2.5449973e-08
1.1492979e-05
-7.6980367e-08
-4.6861175e-08
1.1563201e-05
-7.7521944e-08
-6.9275458e-08
1.1630779e-05
-7.8535803e-08
-9.2642517e-08
1.1696509e-05
-7.9389407e-08
-1.1699608e-07
1.176143e-05
-7.933527e-08
-1.4278068e-07
1.1827807e-05
-7.7243421e-08
-1.7084366e-07
1.1899304e-05
-7.1590065e-08
-2.0210089e-07
1.1981952e-05
-6.0063735e-08
-2.3810313e-07
1.2084826e-05
-3.9040477e-08
-2.8052334e-07
1.2216476e-05
-2.9560925e-09
-3.300369e-07
5.0347814e-08
-3.8187338e-07
9.1668561e-06
1.9489957e-08
9.0701083e-06
3.6767546e-08
8.9859265e-06
4.7819923e-08
8.9065606e-06
5.4335502e-08
8.8307619e-06
5.8380875e-08
8.7592638e-06
6.0780072e-08
8.6919057e-06
6.1780313e-08
8.6280022e-06
6.1596789e-08
8.5667915e-06
6.0422429e-08
8.5074558e-06
5.8322057e-08
8.4490875e-06
5.518904e-08
8.3908321e-06
5.072981e-08
8.3323573e-06
4.4461111e-08
8.2746221e-06
3.5776963e-08
8.219667e-06
2.4248409e-08
8.1686303e-06
9.7450561e-09
8.1219042e-06
-7.1456289e-09
8.0794873e-06
-2.5652727e-08
8.0408092e-06
-4.5504701e-08
8.0048755e-06
-6.6511637e-08
7.9719202e-06
-8.8673473e-08
7.9421237e-06
-1.1221698e-07
7.9161345e-06
-1.3741545e-07
7.895294e-06
-1.6457916e-07
7.8820873e-06
-1.9394521e-07
7.8813169e-06
-2.2655647e-07
7.9011506e-06
-2.6357317e-07
7.955103e-06
-3.0604461e-07
8.0652818e-06
-3.5453719e-07
-4.0373533e-07
9.1610731e-06
1.1904241e-07
8.347411e-09
9.0560801e-06
1.2555217e-07
1.6217182e-08
8.9657124e-06
1.1621756e-07
2.1988436e-08
8.882097e-06
1.1223835e-07
2.5749872e-08
8.8034747e-06
1.0893036e-07
2.8147641e-08
8.7307589e-06
1.0401295e-07
2.9632568e-08
8.6641466e-06
9.8284833e-08
3.0406026e-08
8.6034192e-06
9.230044e-08
3.0615445e-08
8.548714e-06
8.5865141e-08
3.0432434e-08
8.5010433e-06
7.8236499e-08
3.006563e-08
8.4632006e-06
6.7755027e-08
2.9841981e-08
8.4416894e-06
5.0834229e-08
3.0488155e-08
8.4466103e-06
2.3865774e-08
3.4021372e-08
8.44926e-06
2.4750252e-08
4.7203776e-08
8.4465038e-06
2.8578065e-08
7.2388683e-08
8.4354475e-06
3.5545581e-08
1.0711075e-07
8.4137298e-06
4.5049351e-08
1.4785535e-07
8.3827977e-06
5.4231345e-08
1.8997974e-07
8.3448851e-06
6.2289471e-08
2.3057755e-07
8.301635e-06
6.875169e-08
2.6871729e-07
8.2540593e-06
7.3670673e-08
3.0400346e-07
8.2025067e-06
7.7498442e-08
3.3602269e-07
8.146475e-06
8.1003824e-08
3.6422757e-07
8.0843194e-06
8.527964e-08
3.8782691e-07
8.0129145e-06
9.1821977e-08
4.0555679e-07
7.9269846e-06
1.0292578e-07
4.1524735e-07
7.8180571e-06
1.2227144e-07
4.1303415e-07
7.6726131e-06
1.5616634e-07
3.918572e-07
7.4677041e-06
2.1680552e-07
3.3875942e-07
3.3687216e-07
2.3927116e-07
9.3995392e-06
-4.0738028e-11
8.6203015e-09
9.546449e-06
-8.8990643e-11
1.6859559e-08
9.689744e-06
-1.6801113e-10
2.305081e-08
9.8323467e-06
-3.0478312e-10
2.730483e-08
9.9739927e-06
-5.4269303e-10
3.0270009e-08
1.0112604e-05
-9.5627711e-10
3.2380204e-08
1.0247102e-05
-1.6723937e-09
3.3813927e-08
1.0377303e-05
-2.9032416e-09
3.4684121e-08
1.0503311e-05
-4.9944831e-09
3.5093801e-08
1.0625122e-05
-8.4779529e-09
3.5083758e-08
1.0741882e-05
-1.405648e-08
3.4514029e-08
1.0849769e-05
-2.2142399e-08
3.2720535e-08
1.0940423e-05
-3.1336351e-08
2.7720008e-08
1.1035904e-05
-3.4233428e-08
1.7099608e-08
1.1129412e-05
-2.9097967e-08
3.9466615e-09
1.1222862e-05
-2.0816438e-08
-1.3988355e-08
1.1316229e-05
-1.1301585e-08
-3.1497288e-08
1.1407423e-05
-1.5957962e-09
-4.6126045e-08
1.1494693e-05
7.5772679e-09
-5.76981e-08
1.1576922e-05
1.5546184e-08
-6.621121e-08
1.1652985e-05
2.2576284e-08
-7.1851404e-08
1.1721752e-05
2.916684e-08
-7.5022811e-08
1.1781814e-05
3.6336928e-08
-7.6323577e-08
1.183106e-05
4.5658304e-08
-7.6585343e-08
1.1866494e-05
5.9412377e-08
-7.6990761e-08
1.1883203e-05
8.1688159e-08
-7.9347004e-08
1.1874089e-05
1.1838054e-07
-8.6507151e-08
1.1830296e-05
1.7844717e-07
-1.0329733e-07
1.1745528e-05
2.7561644e-07
-1.3858123e-07
4.2560396e-07
-2.0845048e-07
9.3995021e-06
-1.1909582e-07
8.6191569e-09
9.5463473e-06
-1.2566704e-07
1.6856817e-08
9.6895161e-06
-1.1643034e-07
2.3045098e-08
9.8318841e-06
-1.1261922e-07
2.7293253e-08
9.9731035e-06
-1.09601e-07
3.0246753e-08
1.0110951e-05
-1.0518515e-07
3.2333885e-08
1.0244102e-05
-1.0032736e-07
3.3722538e-08
1.0371968e-05
-9.5858193e-08
3.4506523e-08
1.0494041e-05
-9.2082004e-08
3.4757131e-08
1.0609553e-05
-8.9195788e-08
3.4475121e-08
1.0717273e-05
-8.7396355e-08
3.3524721e-08
1.0815578e-05
-8.6660852e-08
3.154291e-08
1.0903597e-05
-8.6282155e-08
2.78604e-08
1.0986004e-05
-8.4168398e-08
2.1276891e-08
1.1067247e-05
-7.8655892e-08
1.1592576e-08
1.1147601e-05
-7.1725447e-08
2.5117695e-10
1.1229759e-05
-6.3643e-08
-1.6649577e-08
1.1312836e-05
-5.5361803e-08
-3.4752817e-08
1.1396725e-05
-4.7230038e-08
-5.4529761e-08
1.1480518e-05
-3.9756901e-08
-7.534862e-08
1.156363e-05
-3.2939688e-08
-9.6867923e-08
1.1645548e-05
-2.6421538e-08
-1.1896657e-07
1.1726001e-05
-1.941084e-08
-1.4169397e-07
1.1804554e-05
-1.0408646e-08
-1.6525711e-07
1.1880342e-05
2.8250219e-09
-1.9003141e-07
1.195158e-05
2.5463534e-08
-2.1709855e-07
1.2020479e-05
5.9392016e-08
-2.4799227e-07
1.2092678e-05
1.1095504e-07
-2.8520312e-07
1.2183997e-05
1.8668487e-07
-3.3238986e-07
2.8772384e-07
-3.9264438e-07
9.1609931e-06
8.3449992e-09
9.0558822e-06
1.6211403e-08
8.9652954e-06
2.1976327e-08
8.8812865e-06
2.5725248e-08
8.8019684e-06
2.8097933e-08
8.7280309e-06
2.9532458e-08
8.6592791e-06
3.0204682e-08
8.5948071e-06
3.0210615e-08
8.5335303e-06
2.9617199e-08
8.474241e-06
2.8415572e-08
8.4155663e-06
2.6467429e-08
8.3561743e-06
2.3460907e-08
8.2954634e-06
1.8889929e-08
8.2349179e-06
1.2154016e-08
8.1771303e-06
3.3801096e-09
8.1240923e-06
-8.9423228e-09
8.0766509e-06
-2.3347298e-08
8.0342699e-06
-3.8633446e-08
7.9961613e-06
-5.4626e-08
7.9619393e-06
-7.2046367e-08
7.9315694e-06
-9.1242944e-08
7.9053668e-06
-1.1243549e-07
7.8845066e-06
-1.3596521e-07
7.8719692e-06
-1.624492e-07
7.8737487e-06
-1.9289761e-07
7.9006563e-06
-2.2799738e-07
7.9651208e-06
-2.6864088e-07
8.0857262e-06
-3.1568756e-07
8.2867271e-06
-3.6884222e-07
-4.209862e-07
9.1582507e-06
1.1906589e-07
4.0395196e-14
9.0488497e-06
1.256181e-07
1.2038118e-14
8.9545879e-06
1.1625029e-07
9.9103371e-15
8.8681497e-06
1.1218806e-07
9.868107e-15
8.7875142e-06
1.087831e-07
8.9184085e-15
8.7133943e-06
1.0375251e-07
5.2658402e-15
8.645918e-06
9.7882357e-08
1.1098413e-16
8.5848305e-06
9.1703003e-08
5.3953852e-15
8.5303219e-06
8.4941091e-08
-1.7494513e-14
8.4837468e-06
7.6640934e-08
-1.754579e-14
8.4490268e-06
6.4562406e-08
-5.7145696e-14
8.4356077e-06
4.3907965e-08
-8.0757918e-14
8.457307e-06
1.2326875e-08
-7.3820329e-14
8.4724001e-06
3.2228847e-08
-8.8548868e-14
8.4788933e-06
6.6112575e-08
-3.8285545e-14
8.473077e-06
1.1322714e-07
1.9950718e-14
8.4506219e-06
1.7067525e-07
2.2379939e-13
8.4172662e-06
2.2374214e-07
3.922532e-13
8.375019e-06
2.7325473e-07
6.2391618e-13
8.3251095e-06
3.1906513e-07
7.9697459e-13
8.2682863e-06
3.6126181e-07
1.0601022e-12
8.2044416e-06
4.0029074e-07
1.256282e-12
8.132223e-06
4.3685163e-07
1.514486e-12
8.0485562e-06
4.7187776e-07
1.6251069e-12
7.947785e-06
5.0668833e-07
1.8629116e-12
7.8200108e-06
5.4335753e-07
1.9224066e-12
7.6479624e-06
5.8539439e-07
1.9437488e-12
7.4010591e-06
6.3904905e-07
1.8752282e-12
7.0251556e-06
7.1492976e-07
1.5746826e-12
8.3837076e-07
9.6816044e-13
9.3966894e-06
-4.2465173e-11
4.2294349e-14
9.5392601e-06
-9.3060121e-11
1.0318246e-14
9.6787376e-06
-1.7650842e-10
3.2629515e-15
9.8185525e-06
-3.2199689e-10
6.8328414e-16
9.9581827e-06
-5.770744e-10
-3.4447974e-15
1.009534e-05
-1.0242725e-09
-7.7409747e-15
1.0228842e-05
-1.8057894e-09
-7.572688e-15
1.0358391e-05
-3.1621785e-09
-1.1948929e-14
1.0483915e-05
-5.4888861e-09
-2.3127633e-14
1.0605031e-05
-9.3914215e-09
-2.594523e-14
1.0719721e-05
-1.561396e-08
-2.6050482e-14
1.0820522e-05
-2.4172554e-08
-4.6674913e-16
1.0893567e-05
-3.2997615e-08
3.5556548e-15
1.0970107e-05
-2.7208969e-08
3.1069593e-14
1.1043304e-05
-3.1312622e-09
-2.7645833e-14
1.1110553e-05
3.2005008e-08
-7.6298852e-14
1.1173972e-05
7.5787821e-08
-1.4773985e-13
1.1227535e-05
1.2409762e-07
-1.6917901e-13
1.1269786e-05
1.7336875e-07
-2.0040607e-13
1.1299019e-05
2.2370442e-07
-1.9167082e-13
1.1313943e-05
2.7459024e-07
-2.287912e-13
1.1313427e-05
3.2590827e-07
-1.6676612e-13
1.1295953e-05
3.7814444e-07
-1.5941732e-13
1.1258998e-05
4.3240629e-07
-1.3581505e-13
1.1198199e-05
4.9067076e-07
-1.3281118e-13
1.1105943e-05
5.5645235e-07
-1.5310266e-13
1.0969124e-05
6.3590188e-07
-1.8593552e-13
1.0765114e-05
7.3996585e-07
-2.9330645e-13
1.0453292e-05
8.8838029e-07
-5.0854488e-13
1.1151389e-06
-9.4191481e-13
9.3966506e-06
-1.191216e-07
4.4451196e-14
9.5391525e-06
-1.2573822e-07
1.3842145e-14
9.678495e-06
-1.1647385e-07
8.1069296e-15
9.8180568e-06
-1.1259052e-07
2.3348715e-15
9.957223e-06
-1.0949659e-07
-6.5975939e-15
1.0093542e-05
-1.0500954e-07
-9.0050758e-15
1.0225552e-05
-1.0009345e-07
-1.1903446e-14
1.0352495e-05
-9.5598572e-08
-1.2925429e-14
1.0473612e-05
-9.1847981e-08
-2.6412034e-14
1.0587749e-05
-8.9054158e-08
-2.4346314e-14
1.0693046e-05
-8.7386008e-08
-3.0170898e-14
1.0787051e-05
-8.6634435e-08
-6.5220871e-15
1.0867468e-05
-8.5554373e-08
1.1723917e-14
1.0941744e-05
-8.0208058e-08
6.0008112e-15
1.1017548e-05
-6.7341851e-08
-1.5655654e-14
1.1098565e-05
-4.8760806e-08
-5.9315305e-14
1.1183944e-05
-2.6239184e-08
-9.8387151e-14
1.1271731e-05
1.5602231e-09
-1.27066e-13
1.1358502e-05
3.2073206e-08
-1.7899757e-13
1.1441914e-05
6.4952974e-08
-2.5659419e-13
1.1520687e-05
9.8962657e-08
-2.7647096e-13
1.1593195e-05
1.3445374e-07
-3.0474548e-13
1.1657575e-05
1.7209847e-07
-3.6913411e-13
1.1711661e-05
2.1309988e-07
-4.5148238e-13
1.1752852e-05
2.5949565e-07
-6.5619835e-13
1.1777763e-05
3.1450283e-07
-7.5988753e-13
1.1782237e-05
3.8350825e-07
-9.222102e-13
1.1761639e-05
4.7544716e-07
-1.0854471e-12
1.171345e-05
6.0428303e-07
-1.3528398e-12
7.8819517e-07
-1.699133e-12
9.1581673e-06
4.1019997e-14
9.0486404e-06
1.635843e-14
8.9541429e-06
1.4649026e-14
8.8672776e-06
9.905178e-15
8.7858789e-06
4.0365282e-15
8.7104018e-06
1.1098253e-15
8.6405131e-06
5.7668649e-15
8.5751251e-06
-1.3435348e-14
8.5128943e-06
-1.442204e-14
8.4522558e-06
-4.0044889e-14
8.3913372e-06
-4.4207829e-14
8.3281638e-06
-5.2629002e-14
8.2614994e-06
-6.3629412e-14
8.1934454e-06
-7.8564823e-14
8.1294838e-06
-1.0657976e-13
8.0717809e-06
-1.6505727e-13
8.0221947e-06
-2.4291218e-13
7.9851219e-06
-3.206327e-13
7.9625699e-06
-4.6231283e-13
7.9554778e-06
-6.3194407e-13
7.9631995e-06
-7.9344363e-13
7.985221e-06
-9.8504884e-13
8.0213591e-06
-1.1859017e-12
8.072017e-06
-1.3388289e-12
8.1386255e-06
-1.5682282e-12
8.2251457e-06
-1.7128234e-12
8.3400334e-06
-1.8781736e-12
8.4998208e-06
-2.0781351e-12
8.7352992e-06
-2.2854597e-12
-2.4626519e-12
9.1582507e-06
1.190659e-07
-8.3473249e-09
9.0488497e-06
1.256181e-07
-1.6217152e-08
8.9545879e-06
1.1625029e-07
-2.1988409e-08
8.8681497e-06
1.1218806e-07
-2.5749856e-08
8.7875142e-06
1.087831e-07
-2.8147634e-08
8.7133943e-06
1.0375251e-07
-2.9632563e-08
8.645918e-06
9.788236e-08
-3.040603e-08
8.5848305e-06
9.1702995e-08
-3.0615444e-08
8.5303219e-06
8.4941094e-08
-3.0432455e-08
8.4837468e-06
7.6640933e-08
-3.0065673e-08
8.4490268e-06
6.456243e-08
-2.9842071e-08
8.4356077e-06
4.3907954e-08
-3.0488284e-08
8.457307e-06
1.2326816e-08
-3.4021519e-08
8.4724002e-06
3.2228845e-08
-4.7203983e-08
8.4788935e-06
6.61126e-08
-7.2388901e-08
8.4730772e-06
1.1322743e-07
-1.0711101e-07
8.4506222e-06
1.7067579e-07
-1.4785548e-07
8.4172665e-06
2.2374292e-07
-1.8997976e-07
8.3750193e-06
2.7325571e-07
-2.3057738e-07
8.3251098e-06
3.190664e-07
-2.6871695e-07
8.2682866e-06
3.6126324e-07
-3.0400284e-07
8.2044418e-06
4.0029253e-07
-3.3602189e-07
8.1322233e-06
4.3685353e-07
-3.6422649e-07
8.0485563e-06
4.7188e-07
-3.8782574e-07
7.9477851e-06
5.0669059e-07
-4.0555532e-07
7.8200106e-06
5.4336013e-07
-4.1524576e-07
7.6479616e-06
5.8539722e-07
-4.1303253e-07
7.4010574e-06
6.3905206e-07
-3.918556e-07
7.0251523e-06
7.1493291e-07
-3.3875789e-07
8.3837414e-07
-2.3926987e-07
9.3966894e-06
-4.247033e-11
-8.6202191e-09
9.5392601e-06
-9.3054401e-11
-1.6859525e-08
9.6787377e-06
-1.7649459e-10
-2.3050789e-08
9.8185525e-06
-3.2199545e-10
-2.730482e-08
9.9581827e-06
-5.77076e-10
-3.0270012e-08
1.009534e-05
-1.0242732e-09
-3.2380224e-08
1.0228842e-05
-1.8057852e-09
-3.3813954e-08
1.0358391e-05
-3.1621873e-09
-3.4684145e-08
1.0483915e-05
-5.4888628e-09
-3.5093838e-08
1.0605031e-05
-9.391437e-09
-3.5083803e-08
1.0719721e-05
-1.5613931e-08
-3.4514067e-08
1.0820522e-05
-2.417257e-08
-3.2720534e-08
1.0893567e-05
-3.299763e-08
-2.7719956e-08
1.0970107e-05
-2.7208971e-08
-1.709948e-08
1.1043304e-05
-3.1312491e-09
-3.9465705e-09
1.1110553e-05
3.2005165e-08
1.3988469e-08
1.1173971e-05
7.5788116e-08
3.1497373e-08
1.1227534e-05
1.2409812e-07
4.6126122e-08
1.1269785e-05
1.7336951e-07
5.7698155e-08
1.1299018e-05
2.2370547e-07
6.6211252e-08
1.1313942e-05
2.7459157e-07
7.1851403e-08
1.1313425e-05
3.2590994e-07
7.5022869e-08
1.1295951e-05
3.7814644e-07
7.6323641e-08
1.1258995e-05
4.3240861e-07
7.6585418e-08
1.1198195e-05
4.9067328e-07
7.6990869e-08
1.1105939e-05
5.564553e-07
7.9347037e-08
1.0969119e-05
6.3590519e-07
8.6507165e-08
1.0765108e-05
7.3996945e-07
1.0329728e-07
1.0453284e-05
8.883843e-07
1.3858109e-07
1.1151435e-06
2.0845021e-07
9.3966506e-06
-1.1912161e-07
-8.6190786e-09
9.5391525e-06
-1.2573823e-07
-1.6856793e-08
9.678495e-06
-1.1647385e-07
-2.3045087e-08
9.8180568e-06
-1.1259053e-07
-2.7293249e-08
9.9572231e-06
-1.0949659e-07
-3.0246762e-08
1.0093542e-05
-1.0500954e-07
-3.2333901e-08
1.0225552e-05
-1.0009344e-07
-3.3722568e-08
1.0352495e-05
-9.5598592e-08
-3.4506557e-08
1.0473612e-05
-9.1847965e-08
-3.4757181e-08
1.0587749e-05
-8.9054187e-08
-3.4475167e-08
1.0693046e-05
-8.738599e-08
-3.3524762e-08
1.0787051e-05
-8.6634438e-08
-3.1542922e-08
1.0867468e-05
-8.5554352e-08
-2.7860363e-08
1.0941744e-05
-8.0208063e-08
-2.1276835e-08
1.1017547e-05
-6.7341835e-08
-1.1592532e-08
1.1098565e-05
-4.8760781e-08
-2.5114323e-10
1.1183944e-05
-2.6239068e-08
1.6649615e-08
1.1271731e-05
1.5604311e-09
3.4752888e-08
1.1358502e-05
3.2073596e-08
5.452982e-08
1.1441913e-05
6.4953529e-08
7.5348641e-08
1.1520687e-05
9.8963486e-08
9.6867983e-08
1.1593194e-05
1.3445476e-07
1.1896668e-07
1.1657574e-05
1.7209987e-07
1.416941e-07
1.171166e-05
2.1310146e-07
1.652572e-07
1.1752851e-05
2.5949743e-07
1.9003132e-07
1.1777761e-05
3.1450481e-07
2.1709835e-07
1.1782234e-05
3.8351055e-07
2.4799198e-07
1.1761636e-05
4.7544972e-07
2.8520277e-07
1.1713446e-05
6.0428607e-07
3.3238943e-07
7.8819892e-07
3.9264391e-07
9.1581673e-06
-8.3449162e-09
9.0486404e-06
-1.6211373e-08
8.9541429e-06
-2.1976312e-08
8.8672776e-06
-2.5725236e-08
8.7858789e-06
-2.809792e-08
8.7104019e-06
-2.9532456e-08
8.6405131e-06
-3.0204693e-08
8.5751251e-06
-3.0210631e-08
8.5128943e-06
-2.9617224e-08
8.4522557e-06
-2.8415626e-08
8.3913372e-06
-2.6467503e-08
8.3281637e-06
-2.3460998e-08
8.2614993e-06
-1.8890034e-08
8.1934454e-06
-1.2154142e-08
8.1294837e-06
-3.3802731e-09
8.0717807e-06
8.9420567e-09
8.0221945e-06
2.334695e-08
7.9851217e-06
3.8632996e-08
7.9625698e-06
5.4625367e-08
7.9554778e-06
7.2045528e-08
7.9631998e-06
9.1241912e-08
7.9852215e-06
1.1243427e-07
8.0213601e-06
1.3596386e-07
8.0720183e-06
1.6244773e-07
8.1386271e-06
1.9289595e-07
8.2251476e-06
2.2799567e-07
8.3400356e-06
2.6863916e-07
8.499823e-06
3.1568588e-07
8.7353014e-06
3.6884063e-07
4.2098477e-07
9.1610731e-06
1.190424e-07
-1.949358e-08
9.0560801e-06
1.2555217e-07
-3.6776354e-08
8.9657124e-06
1.1621755e-07
-4.7838308e-08
8.882097e-06
1.1223835e-07
-5.4372752e-08
8.8034747e-06
1.0893037e-07
-5.8455711e-08
8.730759e-06
1.0401295e-07
-6.0929777e-08
8.6641467e-06
9.8284845e-08
-6.2078544e-08
8.6034193e-06
9.2300449e-08
-6.2188456e-08
8.548714e-06
8.5865163e-08
-6.1592273e-08
8.5010433e-06
7.8236526e-08
-6.0631335e-08
8.4632006e-06
6.7755067e-08
-5.9754194e-08
8.4416893e-06
5.0834278e-08
-5.9810756e-08
8.4466102e-06
2.3865687e-08
-6.2804406e-08
8.44926e-06
2.4750078e-08
-7.4507502e-08
8.446504e-06
2.8577861e-08
-9.8033113e-08
8.4354477e-06
3.5545502e-08
-1.3135491e-07
8.4137301e-06
4.5049349e-08
-1.7088933e-07
8.3827981e-06
5.4231514e-08
-2.1294525e-07
8.3448855e-06
6.2289657e-08
-2.5459958e-07
8.3016355e-06
6.8752098e-08
-2.93856e-07
8.2540599e-06
7.3671252e-08
-3.2973786e-07
8.2025072e-06
7.74993e-08
-3.6161785e-07
8.1464753e-06
8.1004771e-08
-3.8886425e-07
8.0843194e-06
8.5280921e-08
-4.1063433e-07
8.0129144e-06
9.1823203e-08
-4.2567769e-07
7.9269841e-06
1.0292737e-07
-4.3196804e-07
7.8180561e-06
1.2227326e-07
-4.2612374e-07
7.6726111e-06
1.5616846e-07
-4.023447e-07
7.4677008e-06
2.1680802e-07
-3.5043916e-07
3.3687542e-07
-2.5787812e-07
9.3995392e-06