/*--------------------------------*- C++ -*----------------------------------*\
| =========                 |                                                 |
| \\      /  F ield         | OpenFOAM: The Open Source CFD Toolbox           |
|  \\    /   O peration     | Version:  2412                                  |
|   \\  /    A nd           | Website:  www.openfoam.com                      |
|    \\/     M anipulation  |                                                 |
\*---------------------------------------------------------------------------*/
FoamFile
{
    version     2.0;
    format      ascii;
    arch        "LSB;label=32;scalar=64";
    class       volScalarField;
    location    "30/topAir";
    object      rho;
}
// * * * * * * * * * * * * * * * * * * * * * * * * * * * * * * * * * * * * * //

dimensions      [1 -3 0 0 0 0 0];

internalField   nonuniform List<scalar> 
1200
(
1.1586212
1.1586211
1.1586211
1.1586211
1.1586211
1.1586211
1.158621
1.1586209
1.1586207
1.1586205
1.1586201
1.1586181
1.1585768
1.1575335
1.1566162
1.1558607
1.1552916
1.1549212
1.1547399
1.1547205
1.1548265
1.1550195
1.1552651
1.1555349
1.1558083
1.1560711
1.1563143
1.1565334
1.156726
1.1568862
1.1586201
1.1586201
1.1586201
1.1586201
1.1586201
1.1586201
1.1586201
1.1586201
1.1586201
1.15862
1.15862
1.1586199
1.1586178
1.158589
1.1585399
1.1584776
1.1584089
1.1583363
1.1582637
1.1581948
1.1581324
1.158078
1.1580324
1.1579955
1.1579666
1.1579447
1.1579286
1.1579166
1.1579071
1.1578986
1.158619
1.158619
1.158619
1.158619
1.158619
1.158619
1.158619
1.158619
1.158619
1.158619
1.158619
1.158619
1.1586189
1.1586182
1.1586164
1.1586133
1.1586087
1.1586028
1.1585955
1.1585871
1.1585776
1.1585674
1.1585566
1.1585456
1.1585344
1.1585232
1.1585121
1.1585012
1.1584903
1.1584798
1.158618
1.158618
1.158618
1.158618
1.158618
1.158618
1.1586179
1.1586179
1.1586179
1.1586179
1.1586179
1.1586179
1.1586179
1.1586179
1.1586178
1.1586176
1.1586173
1.1586167
1.158616
1.158615
1.1586136
1.158612
1.15861
1.1586077
1.1586051
1.1586022
1.1585991
1.1585956
1.158592
1.1585882
1.1586212
1.1586211
1.1586211
1.1586211
1.1586211
1.158621
1.158621
1.1586208
1.1586206
1.1586202
1.1586197
1.1586176
1.1585721
1.157234
1.1560486
1.1550638
1.1543152
1.1538178
1.1535606
1.1535049
1.1536028
1.1538073
1.1540777
1.1543821
1.154697
1.1550057
1.1552975
1.1555651
1.1558036
1.1560043
1.1586201
1.1586201
1.1586201
1.1586201
1.1586201
1.1586201
1.1586201
1.1586201
1.1586201
1.15862
1.15862
1.1586199
1.1586179
1.158586
1.1585313
1.1584615
1.1583841
1.1583038
1.1582226
1.1581444
1.1580719
1.1580067
1.1579496
1.1579005
1.1578588
1.1578236
1.1577934
1.1577665
1.1577407
1.1577142
1.158619
1.158619
1.158619
1.158619
1.158619
1.158619
1.158619
1.158619
1.158619
1.158619
1.158619
1.158619
1.1586189
1.1586182
1.1586165
1.1586136
1.1586093
1.1586038
1.1585969
1.1585889
1.1585798
1.1585699
1.1585593
1.158548
1.1585362
1.1585238
1.158511
1.1584973
1.1584826
1.1584667
1.158618
1.158618
1.158618
1.158618
1.158618
1.158618
1.1586179
1.1586179
1.1586179
1.1586179
1.1586179
1.1586179
1.1586179
1.1586179
1.1586178
1.1586177
1.1586174
1.158617
1.1586164
1.1586156
1.1586145
1.1586132
1.1586116
1.1586096
1.1586073
1.1586045
1.1586012
1.1585972
1.1585924
1.1585867
1.1586212
1.1586211
1.1586211
1.1586211
1.1586211
1.158621
1.1586209
1.1586206
1.1586202
1.1586196
1.1586186
1.1586147
1.1585355
1.1561716
1.1540925
1.1523857
1.1511275
1.1503547
1.1500224
1.1500347
1.1502904
1.1507013
1.1511982
1.1517306
1.1522637
1.1527745
1.1532481
1.1536751
1.1540493
1.1543698
1.1586201
1.1586201
1.1586201
1.1586201
1.1586201
1.1586201
1.1586201
1.1586201
1.15862
1.15862
1.1586199
1.1586197
1.1586165
1.1585631
1.1584713
1.1583534
1.1582214
1.158084
1.1579452
1.1578111
1.1576856
1.1575712
1.1574687
1.1573783
1.1572987
1.157228
1.1571629
1.157099
1.15703
1.1569458
1.158619
1.158619
1.158619
1.158619
1.158619
1.158619
1.158619
1.158619
1.158619
1.158619
1.158619
1.158619
1.1586189
1.1586178
1.158615
1.1586102
1.1586031
1.1585938
1.1585823
1.1585685
1.1585527
1.1585348
1.1585149
1.1584929
1.1584687
1.1584417
1.1584112
1.1583757
1.158333
1.1582759
1.158618
1.158618
1.158618
1.158618
1.158618
1.158618
1.1586179
1.1586179
1.1586179
1.1586179
1.1586179
1.1586179
1.1586179
1.1586179
1.1586178
1.1586175
1.1586171
1.1586165
1.1586155
1.1586142
1.1586123
1.15861
1.1586069
1.158603
1.158598
1.1585914
1.1585828
1.1585712
1.1585551
1.1585325
1.1586211
1.1586211
1.1586211
1.1586211
1.158621
1.1586209
1.1586207
1.1586204
1.1586198
1.1586187
1.1586168
1.1586094
1.1584643
1.1541713
1.1503949
1.1472957
1.1450641
1.1438606
1.1434858
1.1436917
1.1442689
1.1450612
1.1459599
1.1468923
1.1478121
1.1486905
1.1495106
1.1502618
1.1509361
1.1515109
1.1586201
1.1586201
1.1586201
1.1586201
1.1586201
1.1586201
1.1586201
1.1586201
1.15862
1.15862
1.1586198
1.1586194
1.1586137
1.1585184
1.1583456
1.1581067
1.1578155
1.1574937
1.1571624
1.1568373
1.1565296
1.1562458
1.155989
1.1557596
1.1555555
1.155373
1.1552061
1.155046
1.15488
1.1546915
1.158619
1.158619
1.158619
1.158619
1.158619
1.158619
1.158619
1.158619
1.158619
1.158619
1.158619
1.158619
1.1586188
1.1586168
1.1586116
1.1586022
1.1585875
1.1585669
1.1585391
1.1585034
1.1584595
1.1584068
1.1583451
1.1582731
1.1581896
1.1580923
1.157977
1.1578373
1.1576634
1.1574482
1.158618
1.158618
1.158618
1.158618
1.158618
1.158618
1.1586179
1.1586179
1.1586179
1.1586179
1.1586179
1.1586179
1.1586179
1.1586178
1.1586176
1.1586172
1.1586164
1.158615
1.1586128
1.1586094
1.1586046
1.1585978
1.1585883
1.1585753
1.1585577
1.1585328
1.1584979
1.1584485
1.1583788
1.1582861
1.1586211
1.1586211
1.1586211
1.1586211
1.158621
1.1586209
1.1586206
1.1586202
1.1586194
1.1586179
1.158615
1.1586024
1.1583525
1.150955
1.1444401
1.1390178
1.1351172
1.1336766
1.1336551
1.1344479
1.1356889
1.1371514
1.1386947
1.140233
1.1417156
1.1431139
1.1444134
1.1456067
1.1466887
1.1476282
1.1586201
1.1586201
1.1586201
1.1586201
1.1586201
1.1586201
1.1586201
1.15862
1.15862
1.1586199
1.1586198
1.1586191
1.1586094
1.1584392
1.1580946
1.1575585
1.1568362
1.1560117
1.1551525
1.1543105
1.1535221
1.1528108
1.1521894
1.151663
1.1512305
1.1508873
1.1506255
1.1504357
1.1503075
1.1502281
1.158619
1.158619
1.158619
1.158619
1.158619
1.158619
1.158619
1.158619
1.158619
1.158619
1.158619
1.1586189
1.1586187
1.1586151
1.1586052
1.1585828
1.1585397
1.1584685
1.1583639
1.1582227
1.158044
1.1578289
1.1575801
1.1573011
1.1569953
1.1566655
1.156312
1.1559317
1.1555164
1.1550622
1.158618
1.158618
1.158618
1.158618
1.158618
1.158618
1.1586179
1.1586179
1.1586179
1.1586179
1.1586179
1.1586179
1.1586179
1.1586178
1.1586174
1.1586165
1.1586144
1.1586105
1.1586031
1.1585903
1.15857
1.1585396
1.1584967
1.1584385
1.158362
1.1582634
1.1581378
1.1579779
1.157773
1.157518
1.1586211
1.1586211
1.1586211
1.1586211
1.158621
1.1586209
1.1586206
1.1586202
1.1586194
1.1586179
1.158615
1.1586024
1.1583525
1.150955
1.14444
1.1390177
1.1351171
1.1336766
1.133655
1.1344479
1.1356889
1.1371513
1.1386947
1.140233
1.1417155
1.1431139
1.1444133
1.1456066
1.1466887
1.1476282
1.1586201
1.1586201
1.1586201
1.1586201
1.1586201
1.1586201
1.1586201
1.15862
1.15862
1.1586199
1.1586198
1.1586191
1.1586094
1.1584392
1.1580946
1.1575585
1.1568361
1.1560116
1.1551525
1.1543105
1.1535221
1.1528107
1.1521894
1.1516629
1.1512305
1.1508872
1.1506254
1.1504357
1.1503075
1.1502281
1.158619
1.158619
1.158619
1.158619
1.158619
1.158619
1.158619
1.158619
1.158619
1.158619
1.158619
1.1586189
1.1586187
1.1586151
1.1586052
1.1585828
1.1585397
1.1584685
1.1583639
1.1582227
1.158044
1.1578289
1.15758
1.157301
1.1569953
1.1566655
1.156312
1.1559317
1.1555164
1.1550622
1.158618
1.158618
1.158618
1.158618
1.158618
1.158618
1.1586179
1.1586179
1.1586179
1.1586179
1.1586179
1.1586179
1.1586179
1.1586178
1.1586174
1.1586165
1.1586144
1.1586105
1.1586031
1.1585903
1.15857
1.1585396
1.1584967
1.1584385
1.158362
1.1582634
1.1581378
1.1579779
1.157773
1.157518
1.1586211
1.1586211
1.1586211
1.1586211
1.158621
1.1586209
1.1586207
1.1586204
1.1586198
1.1586187
1.1586168
1.1586094
1.1584643
1.1541713
1.1503949
1.1472956
1.1450641
1.1438605
1.1434858
1.1436917
1.1442688
1.1450612
1.1459598
1.1468923
1.147812
1.1486905
1.1495105
1.1502618
1.1509361
1.1515108
1.1586201
1.1586201
1.1586201
1.1586201
1.1586201
1.1586201
1.1586201
1.1586201
1.15862
1.15862
1.1586198
1.1586194
1.1586137
1.1585184
1.1583456
1.1581067
1.1578155
1.1574937
1.1571624
1.1568373
1.1565295
1.1562457
1.155989
1.1557596
1.1555555
1.155373
1.1552061
1.155046
1.15488
1.1546914
1.158619
1.158619
1.158619
1.158619
1.158619
1.158619
1.158619
1.158619
1.158619
1.158619
1.158619
1.158619
1.1586188
1.1586168
1.1586116
1.1586022
1.1585875
1.1585669
1.1585391
1.1585034
1.1584595
1.1584068
1.1583451
1.1582731
1.1581896
1.1580922
1.157977
1.1578373
1.1576634
1.1574482
1.158618
1.158618
1.158618
1.158618
1.158618
1.158618
1.1586179
1.1586179
1.1586179
1.1586179
1.1586179
1.1586179
1.1586179
1.1586178
1.1586176
1.1586172
1.1586164
1.158615
1.1586128
1.1586094
1.1586046
1.1585978
1.1585883
1.1585753
1.1585577
1.1585328
1.1584979
1.1584485
1.1583788
1.1582861
1.1586212
1.1586211
1.1586211
1.1586211
1.1586211
1.158621
1.1586209
1.1586206
1.1586202
1.1586196
1.1586186
1.1586147
1.1585355
1.1561716
1.1540925
1.1523857
1.1511275
1.1503546
1.1500223
1.1500346
1.1502903
1.1507012
1.1511981
1.1517305
1.1522636
1.1527744
1.1532481
1.153675
1.1540493
1.1543698
1.1586201
1.1586201
1.1586201
1.1586201
1.1586201
1.1586201
1.1586201
1.1586201
1.15862
1.15862
1.1586199
1.1586197
1.1586165
1.1585631
1.1584713
1.1583534
1.1582214
1.158084
1.1579452
1.1578111
1.1576856
1.1575712
1.1574687
1.1573783
1.1572987
1.157228
1.1571629
1.157099
1.15703
1.1569458
1.158619
1.158619
1.158619
1.158619
1.158619
1.158619
1.158619
1.158619
1.158619
1.158619
1.158619
1.158619
1.1586189
1.1586178
1.158615
1.1586102
1.1586031
1.1585938
1.1585823
1.1585685
1.1585527
1.1585348
1.1585149
1.1584929
1.1584687
1.1584417
1.1584112
1.1583757
1.158333
1.1582759
1.158618
1.158618
1.158618
1.158618
1.158618
1.158618
1.1586179
1.1586179
1.1586179
1.1586179
1.1586179
1.1586179
1.1586179
1.1586179
1.1586178
1.1586175
1.1586171
1.1586165
1.1586155
1.1586142
1.1586123
1.15861
1.1586069
1.158603
1.158598
1.1585914
1.1585828
1.1585712
1.1585551
1.1585325
1.1586212
1.1586211
1.1586211
1.1586211
1.1586211
1.158621
1.158621
1.1586208
1.1586206
1.1586202
1.1586197
1.1586176
1.1585721
1.157234
1.1560486
1.1550638
1.1543151
1.1538177
1.1535605
1.1535048
1.1536028
1.1538072
1.1540776
1.154382
1.1546969
1.1550057
1.1552974
1.1555651
1.1558036
1.1560043
1.1586201
1.1586201
1.1586201
1.1586201
1.1586201
1.1586201
1.1586201
1.1586201
1.1586201
1.15862
1.15862
1.1586199
1.1586179
1.158586
1.1585313
1.1584615
1.1583841
1.1583038
1.1582226
1.1581444
1.1580719
1.1580067
1.1579496
1.1579005
1.1578588
1.1578235
1.1577934
1.1577664
1.1577407
1.1577142
1.158619
1.158619
1.158619
1.158619
1.158619
1.158619
1.158619
1.158619
1.158619
1.158619
1.158619
1.158619
1.1586189
1.1586182
1.1586165
1.1586136
1.1586093
1.1586038
1.1585969
1.1585889
1.1585798
1.1585699
1.1585593
1.158548
1.1585362
1.1585238
1.158511
1.1584973
1.1584826
1.1584667
1.158618
1.158618
1.158618
1.158618
1.158618
1.158618
1.1586179
1.1586179
1.1586179
1.1586179
1.1586179
1.1586179
1.1586179
1.1586179
1.1586178
1.1586177
1.1586174
1.158617
1.1586164
1.1586156
1.1586145
1.1586132
1.1586116
1.1586096
1.1586073
1.1586045
1.1586012
1.1585972
1.1585924
1.1585867
1.1586212
1.1586211
1.1586211
1.1586211
1.1586211
1.1586211
1.158621
1.1586209
1.1586207
1.1586205
1.1586201
1.1586181
1.1585768
1.1575335
1.1566162
1.1558607
1.1552915
1.1549211
1.1547398
1.1547204
1.1548264
1.1550194
1.155265
1.1555349
1.1558083
1.156071
1.1563143
1.1565334
1.1567259
1.1568862
1.1586201
1.1586201
1.1586201
1.1586201
1.1586201
1.1586201
1.1586201
1.1586201
1.1586201
1.15862
1.15862
1.1586199
1.1586178
1.158589
1.1585399
1.1584776
1.1584089
1.1583363
1.1582637
1.1581948
1.1581324
1.158078
1.1580324
1.1579955
1.1579666
1.1579447
1.1579286
1.1579166
1.1579071
1.1578986
1.158619
1.158619
1.158619
1.158619
1.158619
1.158619
1.158619
1.158619
1.158619
1.158619
1.158619
1.158619
1.1586189
1.1586182
1.1586164
1.1586133
1.1586087
1.1586028
1.1585955
1.1585871
1.1585776
1.1585674
1.1585566
1.1585456
1.1585344
1.1585232
1.1585121
1.1585012
1.1584903
1.1584797
1.158618
1.158618
1.158618
1.158618
1.158618
1.158618
1.1586179
1.1586179
1.1586179
1.1586179
1.1586179
1.1586179
1.1586179
1.1586179
1.1586178
1.1586176
1.1586173
1.1586167
1.158616
1.158615
1.1586136
1.158612
1.15861
1.1586077
1.1586051
1.1586022
1.1585991
1.1585956
1.158592
1.1585882
)
;

boundaryField
{
    maxY
    {
        type            calculated;
        value           nonuniform List<scalar> 
300
(
1.1586175
1.1586175
1.1586175
1.1586175
1.1586175
1.1586175
1.1586175
1.1586175
1.1586175
1.1586175
1.1586175
1.1586175
1.1586175
1.1586175
1.1586175
1.1586175
1.1586175
1.1586175
1.1586175
1.1586175
1.1586174
1.1586174
1.1586174
1.1586174
1.1586174
1.1586174
1.1586174
1.1586174
1.1586174
1.1586174
1.1586174
1.1586174
1.1586174
1.1586174
1.1586174
1.1586174
1.1586174
1.1586174
1.1586174
1.1586174
1.1586174
1.1586174
1.1586174
1.1586174
1.1586174
1.1586174
1.1586174
1.1586174
1.1586174
1.1586174
1.1586174
1.1586174
1.1586174
1.1586174
1.1586174
1.1586174
1.1586174
1.1586174
1.1586174
1.1586174
1.1586174
1.1586174
1.1586174
1.1586174
1.1586174
1.1586174
1.1586174
1.1586174
1.1586174
1.1586174
1.1586174
1.1586174
1.1586174
1.1586174
1.1586174
1.1586174
1.1586174
1.1586174
1.1586174
1.1586174
1.1586174
1.1586174
1.1586174
1.1586174
1.1586174
1.1586174
1.1586174
1.1586174
1.1586174
1.1586174
1.1586174
1.1586174
1.1586174
1.1586174
1.1586174
1.1586174
1.1586174
1.1586174
1.1586174
1.1586174
1.1586174
1.1586174
1.1586174
1.1586174
1.1586174
1.1586174
1.1586174
1.1586174
1.1586174
1.1586174
1.1586174
1.1586174
1.1586174
1.1586174
1.1586174
1.1586174
1.1586174
1.1586174
1.1586174
1.1586174
1.1586174
1.1586174
1.1586174
1.1586174
1.1586174
1.1586174
1.1586174
1.1586174
1.1586174
1.1586174
1.1586173
1.1586174
1.1586173
1.1586173
1.1586173
1.1586173
1.1586173
1.1586173
1.1586174
1.1586173
1.1586173
1.1586173
1.1586172
1.1586171
1.1586169
1.1586169
1.1586171
1.1586172
1.1586173
1.1586173
1.1586171
1.1586171
1.158617
1.1586167
1.158616
1.158616
1.1586167
1.158617
1.1586171
1.1586171
1.1586167
1.1586169
1.1586166
1.1586158
1.1586139
1.1586139
1.1586158
1.1586166
1.1586169
1.1586167
1.1586162
1.1586165
1.1586159
1.1586144
1.15861
1.15861
1.1586144
1.1586159
1.1586165
1.1586162
1.1586155
1.1586159
1.158615
1.1586122
1.1586026
1.1586026
1.1586122
1.158615
1.1586159
1.1586155
1.1586144
1.1586151
1.1586136
1.1586089
1.1585898
1.1585898
1.1586089
1.1586136
1.1586151
1.1586144
1.1586131
1.158614
1.1586118
1.1586041
1.1585694
1.1585694
1.1586041
1.1586118
1.158614
1.1586131
1.1586115
1.1586127
1.1586094
1.1585972
1.1585391
1.1585391
1.1585972
1.1586094
1.1586127
1.1586115
1.1586095
1.1586111
1.1586064
1.1585878
1.1584962
1.1584962
1.1585878
1.1586064
1.1586111
1.1586095
1.1586072
1.1586091
1.1586025
1.1585748
1.158438
1.158438
1.1585748
1.1586025
1.1586091
1.1586072
1.1586046
1.1586068
1.1585974
1.1585571
1.1583614
1.1583614
1.1585571
1.1585974
1.1586068
1.1586046
1.1586017
1.158604
1.1585909
1.1585323
1.1582628
1.1582628
1.1585323
1.1585909
1.158604
1.1586017
1.1585986
1.1586007
1.1585823
1.1584973
1.1581372
1.1581372
1.1584973
1.1585823
1.1586007
1.1585986
1.1585951
1.1585967
1.1585706
1.158448
1.1579774
1.1579774
1.158448
1.1585706
1.1585967
1.1585951
1.1585914
1.1585919
1.1585545
1.1583783
1.1577725
1.1577724
1.1583783
1.1585545
1.1585919
1.1585914
1.1585877
1.1585862
1.158532
1.1582855
1.1575175
1.1575175
1.1582855
1.158532
1.1585862
1.1585877
)
;
    }
    minX
    {
        type            calculated;
        value           nonuniform List<scalar> 
40
(
1.1586212
1.1586201
1.158619
1.158618
1.1586212
1.1586201
1.158619
1.158618
1.1586212
1.1586201
1.158619
1.158618
1.1586212
1.1586201
1.158619
1.158618
1.1586212
1.1586201
1.158619
1.158618
1.1586212
1.1586201
1.158619
1.158618
1.1586212
1.1586201
1.158619
1.158618
1.1586212
1.1586201
1.158619
1.158618
1.1586212
1.1586201
1.158619
1.158618
1.1586212
1.1586201
1.158619
1.158618
)
;
    }
    maxX
    {
        type            calculated;
        value           nonuniform List<scalar> 
40
(
1.1568916
1.1579007
1.1584801
1.1585883
1.1560111
1.1577164
1.158467
1.1585868
1.1543783
1.156949
1.1582766
1.1585327
1.1515217
1.1546977
1.1574506
1.1582869
1.1476416
1.1502396
1.1550686
1.1575205
1.1476416
1.1502396
1.1550686
1.1575205
1.1515217
1.1546977
1.1574506
1.1582869
1.1543782
1.156949
1.1582766
1.1585327
1.156011
1.1577164
1.158467
1.1585868
1.1568916
1.1579007
1.1584801
1.1585883
)
;
    }
    minZ
    {
        type            calculated;
        value           nonuniform List<scalar> 
120
(
1.1586212
1.1586201
1.158619
1.158618
1.1586211
1.1586201
1.158619
1.158618
1.1586211
1.1586201
1.158619
1.158618
1.1586211
1.1586201
1.158619
1.158618
1.1586211
1.1586201
1.158619
1.158618
1.1586211
1.1586201
1.158619
1.158618
1.158621
1.1586201
1.158619
1.1586179
1.1586209
1.1586201
1.158619
1.1586179
1.1586207
1.1586201
1.158619
1.1586179
1.1586205
1.15862
1.158619
1.1586179
1.1586201
1.15862
1.158619
1.1586179
1.1586181
1.1586199
1.158619
1.1586179
1.1585768
1.1586178
1.1586189
1.1586179
1.1575335
1.158589
1.1586182
1.1586179
1.1566162
1.1585399
1.1586164
1.1586178
1.1558607
1.1584776
1.1586133
1.1586176
1.1552916
1.1584089
1.1586087
1.1586173
1.1549212
1.1583363
1.1586028
1.1586167
1.1547399
1.1582637
1.1585955
1.158616
1.1547205
1.1581948
1.1585871
1.158615
1.1548265
1.1581324
1.1585776
1.1586136
1.1550195
1.158078
1.1585674
1.158612
1.1552651
1.1580324
1.1585566
1.15861
1.1555349
1.1579955
1.1585456
1.1586077
1.1558083
1.1579666
1.1585344
1.1586051
1.1560711
1.1579447
1.1585232
1.1586022
1.1563143
1.1579286
1.1585121
1.1585991
1.1565334
1.1579166
1.1585012
1.1585956
1.156726
1.1579071
1.1584903
1.158592
1.1568862
1.1578986
1.1584798
1.1585882
)
;
    }
    maxZ
    {
        type            calculated;
        value           nonuniform List<scalar> 
120
(
1.1586212
1.1586201
1.158619
1.158618
1.1586211
1.1586201
1.158619
1.158618
1.1586211
1.1586201
1.158619
1.158618
1.1586211
1.1586201
1.158619
1.158618
1.1586211
1.1586201
1.158619
1.158618
1.1586211
1.1586201
1.158619
1.158618
1.158621
1.1586201
1.158619
1.1586179
1.1586209
1.1586201
1.158619
1.1586179
1.1586207
1.1586201
1.158619
1.1586179
1.1586205
1.15862
1.158619
1.1586179
1.1586201
1.15862
1.158619
1.1586179
1.1586181
1.1586199
1.158619
1.1586179
1.1585768
1.1586178
1.1586189
1.1586179
1.1575335
1.158589
1.1586182
1.1586179
1.1566162
1.1585399
1.1586164
1.1586178
1.1558607
1.1584776
1.1586133
1.1586176
1.1552915
1.1584089
1.1586087
1.1586173
1.1549211
1.1583363
1.1586028
1.1586167
1.1547398
1.1582637
1.1585955
1.158616
1.1547204
1.1581948
1.1585871
1.158615
1.1548264
1.1581324
1.1585776
1.1586136
1.1550194
1.158078
1.1585674
1.158612
1.155265
1.1580324
1.1585566
1.15861
1.1555349
1.1579955
1.1585456
1.1586077
1.1558083
1.1579666
1.1585344
1.1586051
1.156071
1.1579447
1.1585232
1.1586022
1.1563143
1.1579286
1.1585121
1.1585991
1.1565334
1.1579166
1.1585012
1.1585956
1.1567259
1.1579071
1.1584903
1.158592
1.1568862
1.1578986
1.1584797
1.1585882
)
;
    }
    topAir_to_rightSolid
    {
        type            calculated;
        value           nonuniform List<scalar> 
130
(
1.1474286
1.1498536
1.1520805
1.1539575
1.1554314
1.1565216
1.1572872
1.1578006
1.1581307
1.1583343
1.1584541
1.1585193
1.1585478
1.1420439
1.1459401
1.149404
1.1522167
1.1543459
1.1558686
1.1569063
1.1575843
1.1580106
1.1582685
1.158418
1.1584983
1.1585331
1.1302952
1.1377624
1.1440403
1.1488545
1.1523134
1.1546765
1.1562252
1.1572038
1.1578018
1.1581553
1.158356
1.1584624
1.158508
1.1110197
1.1255552
1.1366527
1.1445144
1.1498201
1.1532709
1.1554459
1.1567781
1.157572
1.1580317
1.1582887
1.1584232
1.1584805
1.0865978
1.1129825
1.1300436
1.1409912
1.1479283
1.1522534
1.1549
1.1564863
1.1574164
1.1579484
1.158243
1.1583962
1.1584612
1.0865977
1.1129824
1.1300435
1.1409912
1.1479283
1.1522534
1.1548999
1.1564863
1.1574164
1.1579484
1.158243
1.1583962
1.1584612
1.1110196
1.1255551
1.1366526
1.1445143
1.1498201
1.1532708
1.1554458
1.1567781
1.157572
1.1580317
1.1582887
1.1584232
1.1584805
1.1302948
1.1377622
1.1440401
1.1488544
1.1523133
1.1546764
1.1562251
1.1572038
1.1578018
1.1581553
1.158356
1.1584624
1.158508
1.1420435
1.1459398
1.1494037
1.1522165
1.1543458
1.1558685
1.1569062
1.1575843
1.1580105
1.1582685
1.1584179
1.1584983
1.1585331
1.1474282
1.1498533
1.1520802
1.1539573
1.1554313
1.1565215
1.1572871
1.1578006
1.1581306
1.1583343
1.1584541
1.1585193
1.1585478
)
;
    }
    topAir_to_heater
    {
        type            calculated;
        value           nonuniform List<scalar> 
40
(
1.1407099
1.1414886
1.1429844
1.1450533
1.1312989
1.132495
1.1348396
1.1381628
1.1101212
1.1121593
1.116332
1.1226012
1.0732479
1.0762863
1.0830578
1.094595
1.0174404
1.020474
1.0284673
1.0459323
1.0174403
1.0204738
1.028467
1.0459319
1.0732479
1.0762861
1.0830574
1.0945945
1.1101214
1.1121592
1.1163317
1.1226007
1.131299
1.1324949
1.1348393
1.1381623
1.1407101
1.1414886
1.1429841
1.1450528
)
;
    }
    topAir_to_leftSolid
    {
        type            calculated;
        value           nonuniform List<scalar> 
130
(
1.1586216
1.1586216
1.1586215
1.1586214
1.1586212
1.1586208
1.1586202
1.1586194
1.1586181
1.1586165
1.1586146
1.1586126
1.158611
1.1586216
1.1586216
1.1586215
1.1586213
1.158621
1.1586205
1.1586196
1.1586183
1.1586163
1.1586135
1.1586099
1.1586058
1.1586023
1.1586216
1.1586215
1.1586214
1.1586211
1.1586207
1.1586199
1.1586185
1.1586162
1.1586124
1.1586068
1.1585988
1.1585886
1.158578
1.1586216
1.1586215
1.1586213
1.158621
1.1586203
1.1586192
1.1586171
1.1586134
1.1586071
1.1585968
1.1585802
1.1585554
1.1585227
1.1586215
1.1586215
1.1586213
1.1586209
1.1586201
1.1586186
1.158616
1.1586112
1.1586026
1.1585874
1.1585604
1.1585126
1.1584295
1.1586215
1.1586215
1.1586213
1.1586209
1.1586201
1.1586186
1.158616
1.1586112
1.1586026
1.1585874
1.1585604
1.1585126
1.1584295
1.1586216
1.1586215
1.1586213
1.158621
1.1586203
1.1586192
1.1586171
1.1586134
1.1586071
1.1585968
1.1585802
1.1585554
1.1585227
1.1586216
1.1586215
1.1586214
1.1586211
1.1586207
1.1586199
1.1586185
1.1586162
1.1586124
1.1586068
1.1585988
1.1585886
1.158578
1.1586216
1.1586216
1.1586215
1.1586213
1.158621
1.1586205
1.1586196
1.1586183
1.1586163
1.1586135
1.1586099
1.1586058
1.1586023
1.1586216
1.1586216
1.1586215
1.1586214
1.1586212
1.1586208
1.1586202
1.1586194
1.1586181
1.1586165
1.1586146
1.1586126
1.158611
)
;
    }
}


// ************************************************************************* //
