/*--------------------------------*- C++ -*----------------------------------*\
| =========                 |                                                 |
| \\      /  F ield         | OpenFOAM: The Open Source CFD Toolbox           |
|  \\    /   O peration     | Version:  2412                                  |
|   \\  /    A nd           | Website:  www.openfoam.com                      |
|    \\/     M anipulation  |                                                 |
\*---------------------------------------------------------------------------*/
FoamFile
{
    version     2.0;
    format      ascii;
    arch        "LSB;label=32;scalar=64";
    class       volScalarField;
    location    "30/topAir";
    object      T;
}
// * * * * * * * * * * * * * * * * * * * * * * * * * * * * * * * * * * * * * //

dimensions      [0 0 0 1 0 0 0];

internalField   nonuniform List<scalar> 
1200
(
300
300
300
300
300.00001
300.00002
300.00003
300.00006
300.0001
300.00017
300.00027
300.00078
300.01148
300.28189
300.52004
300.71646
300.8646
300.96109
301.00833
301.01338
300.98576
300.93546
300.8715
300.80122
300.73007
300.66173
300.59847
300.54153
300.49149
300.44988
300
300
300
300
300
300
300
300
300
300.00001
300.00001
300.00005
300.00058
300.00805
300.02077
300.0369
300.05469
300.07349
300.0923
300.11015
300.12633
300.14041
300.15223
300.1618
300.16929
300.17496
300.17914
300.18224
300.1847
300.1869
300
300
300
300
300
300
300.00001
300.00001
300.00001
300.00001
300.00001
300.00001
300.00003
300.00022
300.00068
300.00149
300.00266
300.00419
300.00607
300.00826
300.01071
300.01336
300.01614
300.01901
300.02191
300.0248
300.02767
300.03051
300.03332
300.03605
300
300
300
300
300.00001
300.00001
300.00001
300.00001
300.00001
300.00001
300.00001
300.00001
300.00001
300.00002
300.00004
300.00009
300.00018
300.00031
300.00051
300.00077
300.00112
300.00154
300.00205
300.00264
300.00331
300.00406
300.00488
300.00577
300.00672
300.00769
300
300
300
300.00001
300.00001
300.00002
300.00005
300.00008
300.00014
300.00023
300.00037
300.00092
300.0127
300.35959
300.66757
300.92393
301.11909
301.2489
301.31606
301.3306
301.30502
301.25163
301.18104
301.10162
301.01952
300.93905
300.86304
300.79336
300.7313
300.67908
300
300
300
300
300
300
300
300
300
300.00001
300.00002
300.00005
300.00056
300.00883
300.02299
300.04105
300.0611
300.0819
300.10293
300.1232
300.142
300.1589
300.17369
300.18642
300.19723
300.20637
300.2142
300.22118
300.22786
300.23472
300
300
300
300
300
300
300
300
300.00001
300.00001
300.00001
300.00001
300.00003
300.0002
300.00064
300.0014
300.0025
300.00395
300.00572
300.0078
300.01014
300.01271
300.01547
300.01839
300.02144
300.02463
300.02797
300.03151
300.03532
300.03944
300
300
300
300
300
300.00001
300.00001
300.00001
300.00001
300.00001
300.00001
300.00001
300.00001
300.00002
300.00004
300.00007
300.00014
300.00025
300.0004
300.00061
300.00088
300.00122
300.00164
300.00215
300.00276
300.00348
300.00433
300.00536
300.0066
300.00808
300
300
300
300.00001
300.00002
300.00004
300.00007
300.00013
300.00023
300.00039
300.00066
300.00167
300.02218
300.6356
301.1772
301.62325
301.95293
302.15579
302.2431
302.23987
302.17268
302.06478
301.9344
301.79482
301.65519
301.52153
301.3977
301.28615
301.18845
301.10482
300
300
300
300
300
300
300
300
300.00001
300.00002
300.00003
300.00009
300.00093
300.01475
300.03852
300.06906
300.10325
300.13887
300.17484
300.20962
300.24215
300.27182
300.2984
300.32187
300.34251
300.36087
300.37776
300.39436
300.41226
300.43412
300
300
300
300
300
300
300
300
300.00001
300.00001
300.00001
300.00001
300.00004
300.00032
300.00104
300.00229
300.00411
300.00652
300.0095
300.01306
300.01717
300.02181
300.02696
300.03264
300.03892
300.04591
300.05382
300.063
300.07405
300.08886
300
300
300
300
300
300.00001
300.00001
300.00001
300.00001
300.00001
300.00001
300.00001
300.00001
300.00002
300.00005
300.00011
300.00021
300.00038
300.00063
300.00098
300.00145
300.00206
300.00285
300.00387
300.00517
300.00686
300.00909
300.01211
300.01627
300.02212
300
300
300.00001
300.00001
300.00003
300.00005
300.0001
300.00019
300.00035
300.00063
300.00113
300.00305
300.04062
301.15663
302.14524
302.96143
303.55184
303.87124
303.97083
303.9161
303.76281
303.55262
303.31457
303.06797
302.82511
302.59353
302.37766
302.18018
302.00314
301.8524
300
300
300
300
300
300
300
300.00001
300.00001
300.00003
300.00006
300.00016
300.00164
300.02633
300.07108
300.13298
300.20848
300.29192
300.37791
300.46231
300.54227
300.61603
300.6828
300.74249
300.79559
300.8431
300.88658
300.92827
300.97154
301.02068
300
300
300
300
300
300
300
300.00001
300.00001
300.00001
300.00001
300.00001
300.00006
300.00057
300.00191
300.00435
300.00815
300.01349
300.02069
300.02993
300.04132
300.05494
300.07095
300.08957
300.11122
300.13645
300.16633
300.20253
300.24763
300.30345
300
300
300
300
300
300.00001
300.00001
300.00001
300.00001
300.00001
300.00001
300.00001
300.00001
300.00003
300.00008
300.00019
300.00041
300.00077
300.00134
300.0022
300.00345
300.00522
300.00768
300.01103
300.0156
300.02204
300.03109
300.04387
300.06193
300.08595
300
300
300.00001
300.00001
300.00003
300.00006
300.00013
300.00024
300.00045
300.00084
300.00159
300.00485
300.06957
301.9982
303.71738
305.16322
306.21185
306.60095
306.60677
306.39249
306.05769
305.66407
305.24979
304.83797
304.44213
304.06971
303.72446
303.40808
303.12179
302.87363
300
300
300
300
300
300
300
300.00001
300.00002
300.00004
300.00008
300.00025
300.00275
300.04683
300.13612
300.27511
300.46262
300.67691
300.90053
301.12004
301.32585
301.51177
301.67436
301.81227
301.92563
302.01569
302.0844
302.13423
302.1679
302.18876
300
300
300
300
300
300
300
300.00001
300.00001
300.00001
300.00001
300.00002
300.00009
300.00101
300.00358
300.00938
300.02052
300.03897
300.06605
300.10263
300.14896
300.20473
300.26925
300.34164
300.421
300.50667
300.59854
300.69742
300.8055
300.92379
300
300
300
300
300
300.00001
300.00001
300.00001
300.00001
300.00001
300.00001
300.00001
300.00001
300.00004
300.00014
300.00038
300.00091
300.00192
300.00384
300.00715
300.01242
300.02028
300.03139
300.04646
300.06629
300.09184
300.12438
300.16581
300.21894
300.28507
300
300
300.00001
300.00001
300.00003
300.00006
300.00013
300.00024
300.00045
300.00084
300.00159
300.00485
300.06957
301.9982
303.71738
305.16323
306.21187
306.60096
306.60679
306.39251
306.05771
305.66409
305.2498
304.83798
304.44214
304.06972
303.72447
303.40809
303.1218
302.87364
300
300
300
300
300
300
300
300.00001
300.00002
300.00004
300.00008
300.00025
300.00275
300.04683
300.13612
300.27511
300.46262
300.67692
300.90054
301.12004
301.32585
301.51177
301.67437
301.81227
301.92564
302.0157
302.08441
302.13424
302.16791
302.18877
300
300
300
300
300
300
300
300.00001
300.00001
300.00001
300.00001
300.00002
300.00009
300.00101
300.00358
300.00938
300.02052
300.03897
300.06605
300.10264
300.14896
300.20473
300.26925
300.34164
300.421
300.50667
300.59854
300.69743
300.80551
300.92379
300
300
300
300
300
300.00001
300.00001
300.00001
300.00001
300.00001
300.00001
300.00001
300.00001
300.00004
300.00014
300.00038
300.00091
300.00192
300.00384
300.00715
300.01242
300.02028
300.03139
300.04646
300.06629
300.09184
300.12438
300.16581
300.21894
300.28508
300
300
300.00001
300.00001
300.00003
300.00005
300.0001
300.00019
300.00035
300.00063
300.00113
300.00305
300.04062
301.15663
302.14524
302.96143
303.55185
303.87125
303.97084
303.91611
303.76282
303.55263
303.31458
303.06798
302.82513
302.59354
302.37767
302.1802
302.00315
301.85241
300
300
300
300
300
300
300
300.00001
300.00001
300.00003
300.00006
300.00016
300.00164
300.02633
300.07108
300.13298
300.20848
300.29192
300.37791
300.46231
300.54227
300.61604
300.68281
300.7425
300.79559
300.84311
300.88658
300.92828
300.97154
301.02069
300
300
300
300
300
300
300
300.00001
300.00001
300.00001
300.00001
300.00001
300.00006
300.00057
300.00191
300.00435
300.00815
300.01349
300.02069
300.02993
300.04132
300.05494
300.07095
300.08957
300.11122
300.13645
300.16633
300.20253
300.24763
300.30345
300
300
300
300
300
300.00001
300.00001
300.00001
300.00001
300.00001
300.00001
300.00001
300.00001
300.00003
300.00008
300.00019
300.00041
300.00077
300.00134
300.0022
300.00345
300.00522
300.00768
300.01103
300.0156
300.02204
300.03109
300.04387
300.06193
300.08595
300
300
300
300.00001
300.00002
300.00004
300.00007
300.00013
300.00023
300.00039
300.00066
300.00167
300.02218
300.6356
301.1772
301.62325
301.95294
302.15581
302.24312
302.23989
302.1727
302.0648
301.93442
301.79484
301.65521
301.52155
301.39771
301.28616
301.18847
301.10484
300
300
300
300
300
300
300
300
300.00001
300.00002
300.00003
300.00009
300.00093
300.01475
300.03852
300.06906
300.10325
300.13887
300.17484
300.20962
300.24215
300.27182
300.2984
300.32187
300.34252
300.36087
300.37776
300.39436
300.41227
300.43412
300
300
300
300
300
300
300
300
300.00001
300.00001
300.00001
300.00001
300.00004
300.00032
300.00104
300.00229
300.00411
300.00652
300.0095
300.01306
300.01717
300.02181
300.02696
300.03264
300.03892
300.04591
300.05382
300.063
300.07405
300.08886
300
300
300
300
300
300.00001
300.00001
300.00001
300.00001
300.00001
300.00001
300.00001
300.00001
300.00002
300.00005
300.00011
300.00021
300.00038
300.00063
300.00098
300.00145
300.00206
300.00285
300.00387
300.00517
300.00686
300.00909
300.01211
300.01627
300.02212
300
300
300
300.00001
300.00001
300.00002
300.00005
300.00008
300.00014
300.00023
300.00037
300.00092
300.0127
300.35959
300.66757
300.92394
301.1191
301.24891
301.31607
301.33062
301.30504
301.25165
301.18106
301.10164
301.01954
300.93906
300.86306
300.79338
300.73131
300.67909
300
300
300
300
300
300
300
300
300
300.00001
300.00002
300.00005
300.00056
300.00883
300.02299
300.04105
300.0611
300.0819
300.10293
300.1232
300.142
300.1589
300.17369
300.18642
300.19724
300.20637
300.2142
300.22118
300.22787
300.23473
300
300
300
300
300
300
300
300
300.00001
300.00001
300.00001
300.00001
300.00003
300.0002
300.00064
300.0014
300.0025
300.00395
300.00572
300.0078
300.01014
300.01271
300.01547
300.01839
300.02144
300.02463
300.02797
300.03151
300.03532
300.03944
300
300
300
300
300
300.00001
300.00001
300.00001
300.00001
300.00001
300.00001
300.00001
300.00001
300.00002
300.00004
300.00007
300.00014
300.00025
300.0004
300.00061
300.00088
300.00122
300.00164
300.00215
300.00276
300.00348
300.00433
300.00536
300.0066
300.00808
300
300
300
300
300.00001
300.00002
300.00003
300.00006
300.0001
300.00017
300.00027
300.00078
300.01148
300.28188
300.52004
300.71646
300.86461
300.9611
301.00835
301.01341
300.98579
300.93548
300.87152
300.80124
300.73009
300.66175
300.59849
300.54154
300.49151
300.44989
300
300
300
300
300
300
300
300
300
300.00001
300.00001
300.00005
300.00058
300.00805
300.02077
300.0369
300.05469
300.07349
300.0923
300.11015
300.12633
300.14042
300.15224
300.1618
300.16929
300.17496
300.17914
300.18224
300.18471
300.1869
300
300
300
300
300
300
300.00001
300.00001
300.00001
300.00001
300.00001
300.00001
300.00003
300.00022
300.00068
300.00149
300.00266
300.00419
300.00607
300.00826
300.01071
300.01336
300.01614
300.01901
300.02191
300.02481
300.02767
300.03051
300.03332
300.03605
300
300
300
300
300.00001
300.00001
300.00001
300.00001
300.00001
300.00001
300.00001
300.00001
300.00001
300.00002
300.00004
300.00009
300.00018
300.00031
300.00051
300.00077
300.00112
300.00154
300.00205
300.00264
300.00331
300.00406
300.00488
300.00577
300.00672
300.00769
)
;

boundaryField
{
    maxY
    {
        type            zeroGradient;
    }
    minX
    {
        type            fixedValue;
        value           uniform 300;
    }
    maxX
    {
        type            inletOutlet;
        inletValue      uniform 300;
        value           nonuniform List<scalar> 
40
(
300.44847
300.18636
300.03595
300.00766
300.67733
300.23416
300.03935
300.00806
301.10262
300.4333
300.08867
300.02206
301.84956
301.01905
300.30282
300.08573
302.87009
302.18574
300.92211
300.28441
302.8701
302.18575
300.92211
300.28441
301.84957
301.01906
300.30282
300.08573
301.10263
300.43331
300.08867
300.02206
300.67735
300.23417
300.03935
300.00806
300.44848
300.18636
300.03595
300.00766
)
;
    }
    minZ
    {
        type            zeroGradient;
    }
    maxZ
    {
        type            zeroGradient;
    }
    topAir_to_rightSolid
    {
        type            compressible::turbulentTemperatureRadCoupledMixed;
        refValue        nonuniform List<scalar> 
130
(
302.92709
302.28801
301.70352
301.21263
300.82828
300.54464
300.34577
300.21257
300.127
300.07424
300.04321
300.02633
300.01897
304.35576
303.32058
302.4062
301.66776
301.11117
300.71439
300.44458
300.26858
300.15805
300.0912
300.0525
300.0317
300.0227
307.52005
305.5011
303.82414
302.5506
301.6422
301.02471
300.62142
300.36715
300.212
300.12039
300.06839
300.04086
300.02906
312.85645
308.81491
305.79892
303.69775
302.296
301.39127
300.82382
300.47735
300.27128
300.1521
300.08555
300.05075
300.03595
319.88941
312.30368
307.58716
304.6351
302.79367
301.65686
300.9655
300.55267
300.31118
300.17327
300.097
300.05739
300.04062
319.88945
312.30369
307.5872
304.63509
302.79367
301.65686
300.96551
300.55267
300.31118
300.17327
300.097
300.05739
300.04062
312.8565
308.81494
305.79895
303.69778
302.29601
301.39127
300.82384
300.47735
300.27128
300.1521
300.08555
300.05075
300.03595
307.52015
305.50117
303.8242
302.55064
301.64222
301.02472
300.62144
300.36716
300.212
300.12039
300.06839
300.04086
300.02907
304.35586
303.32066
302.40626
301.6678
301.11119
300.71441
300.44461
300.26859
300.15805
300.0912
300.0525
300.0317
300.0227
302.9272
302.2881
301.70359
301.21268
300.82831
300.54466
300.34579
300.21258
300.12701
300.07425
300.04322
300.02633
300.01897
)
;
        refGradient     uniform 0;
        valueFraction   uniform 0.99967867;
        source          uniform 0;
        logInterval     -1;
        writePrecision  8;
        updateHeader    1;
        writeToFile     0;
        useUserTime     1;
        kappaMethod     fluidThermo;
        value           nonuniform List<scalar> 
130
(
302.92646
302.2876
301.7033
301.21256
300.82831
300.54474
300.34592
300.21274
300.12717
300.07441
300.04337
300.02648
300.01911
304.35476
303.31993
302.40586
301.66764
301.11121
300.71454
300.44479
300.26882
300.1583
300.09145
300.05274
300.03193
300.02291
307.51833
305.50005
303.82363
302.55048
301.64233
301.025
300.62179
300.36757
300.21242
300.1208
300.06878
300.04123
300.02941
312.85356
308.81336
305.79831
303.69777
302.2964
301.39188
300.82454
300.4781
300.27203
300.15281
300.08622
300.05137
300.03654
319.88514
312.30184
307.58678
304.63555
302.79459
301.65801
300.96674
300.55391
300.31239
300.17441
300.09806
300.05838
300.04153
319.88518
312.30186
307.58681
304.63555
302.79459
301.65801
300.96676
300.55391
300.31239
300.17441
300.09806
300.05838
300.04153
312.85361
308.81338
305.79835
303.6978
302.29642
301.39189
300.82456
300.4781
300.27203
300.15281
300.08622
300.05137
300.03654
307.51843
305.50012
303.82369
302.55052
301.64235
301.02501
300.62181
300.36757
300.21242
300.1208
300.06878
300.04123
300.02941
304.35486
303.32001
302.40592
301.66769
301.11124
300.71456
300.44482
300.26883
300.1583
300.09145
300.05274
300.03193
300.02291
302.92657
302.28769
301.70337
301.21261
300.82834
300.54476
300.34594
300.21275
300.12718
300.07442
300.04338
300.02648
300.01911
)
;
    }
    topAir_to_heater
    {
        type            compressible::turbulentTemperatureRadCoupledMixed;
        refValue        nonuniform List<scalar> 
40
(
304.71211
304.50409
304.10541
303.55573
307.24771
306.92299
306.28861
305.39397
313.1108
312.53666
311.36793
309.62845
323.87143
322.95653
320.93648
317.55254
341.64108
340.62463
337.97605
332.33054
341.64113
340.62472
337.97617
332.33067
323.87141
322.95658
320.93658
317.55266
313.11076
312.53669
311.36803
309.62858
307.24767
306.92302
306.2887
305.3941
304.71205
304.50411
304.10549
303.55587
)
;
        refGradient     uniform 0;
        valueFraction   uniform 0.99967867;
        source          uniform 0;
        logInterval     -1;
        writePrecision  8;
        updateHeader    1;
        writeToFile     0;
        useUserTime     1;
        kappaMethod     fluidThermo;
        value           nonuniform List<scalar> 
40
(
304.71069
304.5028
304.10432
303.55486
307.24549
306.92098
306.28689
305.3926
313.10679
312.53301
311.3648
309.62598
323.86413
322.94984
320.9307
317.54804
341.62835
340.61277
337.96551
332.32215
341.62839
340.61286
337.96563
332.32228
323.86412
322.9499
320.9308
317.54816
313.10675
312.53304
311.3649
309.62611
307.24546
306.92101
306.28697
305.39273
304.71063
304.50283
304.1044
303.555
)
;
    }
    topAir_to_leftSolid
    {
        type            compressible::turbulentTemperatureRadCoupledMixed;
        refValue        nonuniform List<scalar> 
130
(
300.00002
300.00002
300.00004
300.00007
300.00013
300.00022
300.00037
300.00059
300.00091
300.00132
300.00182
300.00233
300.00276
300.00002
300.00003
300.00005
300.00009
300.00017
300.00031
300.00053
300.00087
300.00139
300.00212
300.00305
300.0041
300.00502
300.00003
300.00004
300.00007
300.00013
300.00025
300.00046
300.00082
300.00142
300.00239
300.00385
300.00592
300.00857
300.01129
300.00003
300.00005
300.00009
300.00018
300.00034
300.00065
300.00119
300.00214
300.00376
300.00645
300.01072
300.01715
300.02563
300.00004
300.00006
300.00011
300.00021
300.00041
300.00078
300.00147
300.00271
300.00494
300.00888
300.01587
300.02825
300.04976
300.00004
300.00006
300.00011
300.00021
300.00041
300.00078
300.00147
300.00271
300.00494
300.00888
300.01587
300.02825
300.04976
300.00003
300.00005
300.00009
300.00018
300.00034
300.00065
300.00119
300.00214
300.00376
300.00645
300.01073
300.01715
300.02563
300.00003
300.00004
300.00007
300.00013
300.00025
300.00046
300.00082
300.00142
300.00239
300.00385
300.00592
300.00857
300.01129
300.00002
300.00003
300.00005
300.00009
300.00017
300.00031
300.00053
300.00087
300.00139
300.00212
300.00305
300.0041
300.00502
300.00002
300.00002
300.00004
300.00007
300.00013
300.00022
300.00037
300.00059
300.00091
300.00132
300.00182
300.00233
300.00276
)
;
        refGradient     uniform 0;
        valueFraction   uniform 0.99967867;
        source          uniform 0;
        logInterval     -1;
        writePrecision  8;
        updateHeader    1;
        writeToFile     0;
        useUserTime     1;
        kappaMethod     fluidThermo;
        value           nonuniform List<scalar> 
130
(
300.00002
300.00002
300.00004
300.00007
300.00013
300.00022
300.00037
300.00059
300.00091
300.00132
300.00182
300.00233
300.00276
300.00002
300.00003
300.00005
300.00009
300.00017
300.00031
300.00053
300.00087
300.00139
300.00212
300.00305
300.0041
300.00502
300.00003
300.00004
300.00007
300.00013
300.00025
300.00046
300.00082
300.00142
300.00239
300.00385
300.00592
300.00857
300.0113
300.00003
300.00005
300.00009
300.00018
300.00034
300.00065
300.00119
300.00214
300.00376
300.00645
300.01072
300.01715
300.02563
300.00004
300.00006
300.00011
300.00021
300.00041
300.00078
300.00147
300.00271
300.00493
300.00888
300.01586
300.02825
300.04977
300.00004
300.00006
300.00011
300.00021
300.00041
300.00078
300.00147
300.00271
300.00493
300.00888
300.01586
300.02825
300.04977
300.00003
300.00005
300.00009
300.00018
300.00034
300.00065
300.00119
300.00214
300.00376
300.00645
300.01072
300.01715
300.02563
300.00003
300.00004
300.00007
300.00013
300.00025
300.00046
300.00082
300.00142
300.00239
300.00385
300.00592
300.00857
300.0113
300.00002
300.00003
300.00005
300.00009
300.00017
300.00031
300.00053
300.00087
300.00139
300.00212
300.00305
300.0041
300.00502
300.00002
300.00002
300.00004
300.00007
300.00013
300.00022
300.00037
300.00059
300.00091
300.00132
300.00182
300.00233
300.00276
)
;
    }
}


// ************************************************************************* //
