/*--------------------------------*- C++ -*----------------------------------*\
| =========                 |                                                 |
| \\      /  F ield         | OpenFOAM: The Open Source CFD Toolbox           |
|  \\    /   O peration     | Version:  2412                                  |
|   \\  /    A nd           | Website:  www.openfoam.com                      |
|    \\/     M anipulation  |                                                 |
\*---------------------------------------------------------------------------*/
FoamFile
{
    version     2.0;
    format      ascii;
    arch        "LSB;label=32;scalar=64";
    class       volVectorField;
    location    "30/topAir";
    object      U;
}
// * * * * * * * * * * * * * * * * * * * * * * * * * * * * * * * * * * * * * //

dimensions      [0 1 -1 0 0 0 0];

internalField   nonuniform List<vector> 
1200
(
(0.097230561 0.00096439682 0.00080129147)
(0.096224922 0.0012991501 0.0012022862)
(0.09437317 0.0013358453 0.0013579885)
(0.091894136 0.0013066937 0.0014219986)
(0.089356004 0.0012582531 0.0014441251)
(0.086951928 0.0011925594 0.0014341414)
(0.084673328 0.0011153228 0.0013992443)
(0.082496257 0.0010331317 0.0013480016)
(0.080421901 0.00094900919 0.001287338)
(0.078461965 0.00086238283 0.0012220093)
(0.076629259 0.0007686938 0.0011557439)
(0.074943062 0.00065588268 0.0010926928)
(0.073450107 0.00050056053 0.0010384874)
(0.072147832 0.00039397751 0.0010078655)
(0.070955158 0.00028865609 0.0010094752)
(0.06981125 0.00017016908 0.0010388326)
(0.068683005 2.7660833e-05 0.0010866928)
(0.067604507 -0.00013444474 0.0011475411)
(0.066583352 -0.0003104488 0.0012126184)
(0.065625518 -0.00049257801 0.0012760522)
(0.064739297 -0.00067190344 0.0013331635)
(0.063930464 -0.00083914233 0.0013798639)
(0.063199994 -0.00098475304 0.0014121552)
(0.062543555 -0.0010986187 0.0014251861)
(0.061950926 -0.0011689381 0.0014126434)
(0.061405622 -0.0011817349 0.0013658441)
(0.060884027 -0.0011183039 0.001272557)
(0.060354 -0.00095376048 0.0011155098)
(0.05975898 -0.00066278609 0.00086873087)
(0.058768077 -0.00020474183 0.00052180906)
(0.099371167 0.00097610474 0.00082729875)
(0.10013516 0.0013309737 0.0012561468)
(0.10060741 0.0014038372 0.0014399886)
(0.10061198 0.0014161528 0.0015330196)
(0.10043745 0.0014059019 0.0015830769)
(0.10023651 0.001373956 0.0016000275)
(0.10001796 0.0013258497 0.0015914432)
(0.099765251 0.0012669245 0.0015656653)
(0.099479242 0.0011982231 0.0015290455)
(0.09917038 0.0011167385 0.0014855358)
(0.098847133 0.0010153391 0.0014373773)
(0.098510012 0.00088104557 0.0013853831)
(0.098151316 0.00069742921 0.0013285206)
(0.097774015 0.00055439037 0.0012627751)
(0.097425244 0.00041083022 0.0011908661)
(0.097108776 0.00025135182 0.0011159814)
(0.096823759 6.8540757e-05 0.0010407032)
(0.096541185 -0.00013532844 0.00096520923)
(0.096250564 -0.00035444848 0.00089285525)
(0.095950715 -0.0005807338 0.00082374672)
(0.095642009 -0.00080450609 0.00075731219)
(0.095326501 -0.0010151682 0.00069249411)
(0.095008777 -0.0012012104 0.00062769213)
(0.094697333 -0.0013484573 0.00055896761)
(0.094405149 -0.001438334 0.00048209859)
(0.094151247 -0.0014494314 0.00039164028)
(0.093961546 -0.001356571 0.00027958661)
(0.093886816 -0.0011264024 0.00013582335)
(0.094006775 -0.00071689252 -4.3604787e-05)
(0.094575772 -9.286189e-05 -0.00025072625)
(0.099371071 -0.00097685634 0.00082729551)
(0.10013471 -0.0013327007 0.0012561376)
(0.1006062 -0.0014070914 0.0014399668)
(0.10060935 -0.0014219628 0.0015329695)
(0.10043226 -0.0014160447 0.0015829665)
(0.10022682 -0.0013914381 0.0015997919)
(0.10000047 -0.0013556884 0.0015909559)
(0.099734482 -0.0013173835 0.0015646885)
(0.099426321 -0.001282736 0.0015271518)
(0.099081536 -0.0012568085 0.0014820073)
(0.098702725 -0.0012446535 0.0014311566)
(0.09828704 -0.0012501855 0.0013752898)
(0.097829633 -0.0012700416 0.001314164)
(0.09733595 -0.0012828412 0.0012465588)
(0.096823666 -0.0012950355 0.0011723185)
(0.096305536 -0.0013137823 0.0010927975)
(0.095787256 -0.0013390293 0.0010097071)
(0.095270858 -0.0013720229 0.0009242242)
(0.094756475 -0.0014111558 0.00083737078)
(0.094245489 -0.0014532622 0.00074902172)
(0.093741451 -0.0014929819 0.00065836295)
(0.093251152 -0.0015233509 0.00056336568)
(0.092785782 -0.0015391133 0.00046334879)
(0.092363484 -0.0015338907 0.00035587676)
(0.092019936 -0.0014979222 0.00023572228)
(0.091813774 -0.0014178196 9.9107113e-05)
(0.091787872 -0.0012765354 -5.2970002e-05)
(0.09199704 -0.001051917 -0.00021723937)
(0.092510648 -0.00071325388 -0.00038316949)
(0.093791479 -0.00023834388 -0.00054623546)
(0.097230369 -0.00096466781 0.000801283)
(0.096224065 -0.0012997691 0.0012022615)
(0.094370959 -0.0013370041 0.0013579323)
(0.091889514 -0.001308744 0.0014218773)
(0.089347232 -0.0012618043 0.0014438698)
(0.086936111 -0.0011986486 0.0014336128)
(0.084645671 -0.0011256964 0.0013981665)
(0.08244887 -0.0010507143 0.0013458384)
(0.080341892 -0.00097872157 0.0012830612)
(0.078328331 -0.00091264785 0.0012136639)
(0.076407573 -0.00085446099 0.001139613)
(0.074574481 -0.00080513812 0.0010616435)
(0.072823468 -0.00076344611 0.00097958659)
(0.071153806 -0.00072512607 0.00089273474)
(0.069572477 -0.00068980717 0.00080087159)
(0.068088295 -0.00065976039 0.00070507059)
(0.066705025 -0.00063589288 0.00060718958)
(0.065421912 -0.00061887406 0.00050912037)
(0.064236889 -0.0006083383 0.000411288)
(0.063149962 -0.00060272527 0.00031211177)
(0.062163046 -0.00059855888 0.00020819901)
(0.061296417 -0.00059122334 9.327112e-05)
(0.060565 -0.0005793975 -3.2609351e-05)
(0.059980762 -0.00056330568 -0.00016733997)
(0.059564537 -0.0005428452 -0.00031112612)
(0.05934315 -0.00051407955 -0.00046365516)
(0.059351198 -0.00046841801 -0.00062104769)
(0.059631015 -0.00039548628 -0.00077347617)
(0.060243384 -0.00028645291 -0.00089726891)
(0.061694187 -0.00010272286 -0.0009836493)
(0.09850877 0.00098836289 0.001062629)
(0.098434003 0.001343402 0.0016299355)
(0.097920791 0.001397059 0.0018719613)
(0.096979225 0.0013839275 0.0019880433)
(0.095956277 0.0013493575 0.0020461057)
(0.094987266 0.0012953926 0.0020596356)
(0.094068267 0.0012282209 0.0020381422)
(0.093179398 0.0011547058 0.0019932183)
(0.092319129 0.0010779701 0.0019343035)
(0.091496659 0.00099738374 0.0018680525)
(0.090725153 0.00090794089 0.0018004085)
(0.090026359 0.00079625855 0.001739518)
(0.089457635 0.00063593043 0.0017008533)
(0.08902228 0.00052605699 0.0017286412)
(0.088625934 0.00041424183 0.001846935)
(0.088191414 0.00028896442 0.0020433039)
(0.087686822 0.00014518367 0.0022912204)
(0.087119734 -1.7130044e-05 0.0025666129)
(0.086532659 -0.00018929135 0.0028448033)
(0.08593956 -0.00036627139 0.0031088969)
(0.085357556 -0.00054177378 0.0033462159)
(0.084801999 -0.00070840903 0.003546625)
(0.084283261 -0.00085783232 0.0037006828)
(0.08380624 -0.00098234035 0.0037976839)
(0.083368296 -0.0010707846 0.0038232589)
(0.082957975 -0.0011087115 0.0037574122)
(0.082553485 -0.0010772482 0.0035726595)
(0.082117931 -0.00095001012 0.0032334845)
(0.081568801 -0.00068630653 0.002700109)
(0.080436663 -0.00019642158 0.0019334562)
(0.10070787 0.0009959617 0.0010947483)
(0.10246116 0.001357173 0.0016840304)
(0.10434074 0.0014298383 0.0019455191)
(0.10596555 0.0014414263 0.0020841944)
(0.1074118 0.0014311117 0.0021677113)
(0.10877883 0.0013999011 0.0022090268)
(0.11008069 0.0013533492 0.0022172199)
(0.11130547 0.0012967956 0.0022030166)
(0.11245235 0.0012312435 0.0021745937)
(0.11352958 0.0011535135 0.0021366628)
(0.11454492 0.0010560025 0.0020912416)
(0.11549898 0.00092469282 0.0020371664)
(0.11638495 0.00074113393 0.0019667286)
(0.11721308 0.00060372138 0.0018638011)
(0.11803795 0.0004653863 0.0017345785)
(0.11886745 0.00031183178 0.0015890886)
(0.11970142 0.0001390045 0.0014365417)
(0.12053122 -5.316515e-05 0.0012840997)
(0.12133227 -0.00025935113 0.001139987)
(0.12209994 -0.00047408953 0.0010060814)
(0.1228341 -0.00069055946 0.00088161845)
(0.1235362 -0.00090149506 0.0007635983)
(0.12420781 -0.0010966735 0.00064632723)
(0.12485719 -0.0012640072 0.00052180822)
(0.12549648 -0.0013888031 0.00037797025)
(0.12614009 -0.0014497162 0.0001993002)
(0.12680939 -0.0014149561 -3.3969835e-05)
(0.12752414 -0.0012398922 -0.00034524115)
(0.12832428 -0.00086253612 -0.00075528097)
(0.12963945 -0.00021051723 -0.0012270331)
(0.10070777 -0.00099674081 0.0010947309)
(0.10246069 -0.0013589665 0.0016839898)
(0.1043395 -0.0014332122 0.0019454356)
(0.10596287 -0.0014474297 0.0020840239)
(0.10740654 -0.0014415485 0.0021673642)
(0.10876905 -0.0014178138 0.0022083258)
(0.11006313 -0.0013838076 0.0022158233)
(0.11127472 -0.0013481529 0.0022002841)
(0.11239971 -0.0013171026 0.0021693713)
(0.11344167 -0.0012957081 0.0021269959)
(0.11440305 -0.0012888401 0.0020742084)
(0.11528228 -0.0012998699 0.0020096545)
(0.11607705 -0.0013243451 0.0019293876)
(0.11679667 -0.001339158 0.0018276359)
(0.11746371 -0.0013515555 0.0017015558)
(0.11809543 -0.0013695687 0.001553368)
(0.11870014 -0.0013943897 0.001386936)
(0.11928242 -0.0014261014 0.0012063243)
(0.11984362 -0.0014663897 0.0010151593)
(0.12038469 -0.0015138885 0.00081463269)
(0.12090858 -0.0015662468 0.00060384098)
(0.1214251 -0.001621097 0.00038051247)
(0.12194337 -0.0016725477 0.00014196317)
(0.12247609 -0.0017101811 -0.00011626472)
(0.1230358 -0.0017219365 -0.00040115432)
(0.1236336 -0.0016907147 -0.00071892784)
(0.12431403 -0.0015912246 -0.0010735898)
(0.12513638 -0.0013874975 -0.0014647058)
(0.12618771 -0.0010343891 -0.0018821716)
(0.12811472 -0.00050240262 -0.0022805292)
(0.098508574 -0.00098864322 0.0010625932)
(0.098433126 -0.0013440443 0.0016298511)
(0.097918536 -0.0013982607 0.0018717865)
(0.096974524 -0.0013860491 0.0019876845)
(0.095947383 -0.0013530211 0.0020453711)
(0.094971271 -0.0013016547 0.0020581393)
(0.094040367 -0.0012388608 0.002035122)
(0.093131691 -0.0011727124 0.0019871894)
(0.092238693 -0.0011084036 0.0019224049)
(0.091362403 -0.0010489937 0.0018448171)
(0.090502434 -0.0009964904 0.0017554344)
(0.089656006 -0.00095176958 0.0016529886)
(0.08882127 -0.00091337825 0.0015342984)
(0.088002481 -0.00087701642 0.0013951212)
(0.087212786 -0.00084227033 0.0012324561)
(0.086467416 -0.00081170552 0.001047007)
(0.08577575 -0.00078641291 0.00084239463)
(0.085140418 -0.0007665422 0.00062303361)
(0.084562358 -0.0007526803 0.00039216594)
(0.08404501 -0.00074483752 0.00015039438)
(0.083589384 -0.00074227946 -0.0001052028)
(0.083182247 -0.00074393108 -0.00037855027)
(0.082823833 -0.00074694478 -0.00067109035)
(0.0825269 -0.00074544749 -0.00098437083)
(0.082310138 -0.00073176253 -0.0013213141)
(0.08220401 -0.00069769541 -0.0016844082)
(0.082253653 -0.00063394088 -0.002071191)
(0.082522152 -0.00052656469 -0.0024670468)
(0.083101496 -0.00035975081 -0.0028325744)
(0.08461211 -9.4694714e-05 -0.0031140768)
(0.098379344 0.00098337661 0.00041295301)
(0.098078919 0.0013324291 0.00071032451)
(0.097475367 0.0013797714 0.00088550804)
(0.096588962 0.001361904 0.00099292716)
(0.095693423 0.0013240913 0.0010644083)
(0.094885651 0.0012677476 0.0011085794)
(0.094154459 0.0011987924 0.001129293)
(0.093477264 0.0011238641 0.0011319094)
(0.092847494 0.0010455172 0.0011221294)
(0.092270337 0.0009617281 0.0011053921)
(0.091759463 0.00086409147 0.0010885901)
(0.091345999 0.00073085721 0.0010842319)
(0.091123638 0.00052005315 0.0011204771)
(0.091102848 0.00041290223 0.0012780217)
(0.091133499 0.00031769128 0.0015980838)
(0.091091611 0.00021526187 0.0020545755)
(0.090933903 9.9845789e-05 0.0025973974)
(0.090666176 -3.1839841e-05 0.0031742817)
(0.090333357 -0.00017475365 0.0037430936)
(0.089959012 -0.00032752543 0.0042769456)
(0.089566221 -0.00048569589 0.0047590989)
(0.089171659 -0.00064196666 0.0051779948)
(0.088782598 -0.00078740149 0.0055232356)
(0.088393673 -0.00090936465 0.0057826986)
(0.087986132 -0.00099362804 0.0059387402)
(0.087525456 -0.0010205167 0.0059642743)
(0.086958884 -0.00096203657 0.0058172228)
(0.086215049 -0.00077948556 0.0054321884)
(0.085151924 -0.00042266295 0.0047076655)
(0.083128345 0.0002952868 0.003499237)
(0.10057553 0.00099541425 0.00042528828)
(0.10210375 0.0013567387 0.00073708416)
(0.1038962 0.0014265687 0.00092796712)
(0.10557899 0.001434678 0.0010535039)
(0.10715411 0.0014211625 0.0011452254)
(0.1086838 0.0013868185 0.0012113272)
(0.11017577 0.0013369352 0.0012552703)
(0.11161592 0.0012765087 0.0012816367)
(0.11299851 0.001205761 0.0012946824)
(0.11432631 0.0011198009 0.0012969459)
(0.11560153 0.0010075412 0.0012884803)
(0.11681603 0.00084816513 0.0012640561)
(0.11795012 0.00061468981 0.001205161)
(0.11901229 0.00048485137 0.0010795207)
(0.12008255 0.00037672048 0.00089911591)
(0.12116977 0.00026488878 0.0006834386)
(0.12227013 0.00014001162 0.00045379423)
(0.12337399 -4.2454452e-06 0.00022937243)
(0.12445377 -0.00016745105 2.3023545e-05)
(0.12549702 -0.00034811252 -0.00015853254)
(0.12649743 -0.0005412769 -0.00031426347)
(0.12744962 -0.00073724159 -0.00044809116)
(0.12835067 -0.00092353222 -0.00056880104)
(0.12919594 -0.0010829863 -0.00068882724)
(0.12998213 -0.0011919122 -0.00082838564)
(0.13071019 -0.0012160069 -0.0010155878)
(0.13138431 -0.0011048864 -0.0012884228)
(0.13201691 -0.00078511024 -0.0016966248)
(0.13269622 -0.00015518702 -0.0022986391)
(0.13362064 0.00092673641 -0.0030880363)
(0.10057542 -0.00099624871 0.0004252599)
(0.10210324 -0.001358669 0.00073701516)
(0.10389483 -0.001430225 0.00092782377)
(0.10557598 -0.0014412401 0.0010532143)
(0.10714817 -0.0014326861 0.0011446462)
(0.10867263 -0.0014068248 0.0012101799)
(0.11015545 -0.0013713948 0.0012530231)
(0.11157985 -0.0013354549 0.0012773)
(0.11293591 -0.0013058879 0.0012864855)
(0.11422051 -0.0012885209 0.0012819412)
(0.11542963 -0.0012889117 0.0012625083)
(0.11655492 -0.0013098184 0.0012238987)
(0.11758788 -0.001341052 0.0011577778)
(0.11853824 -0.0013435044 0.0010517505)
(0.11943728 -0.0013289109 0.00089990567)
(0.12030858 -0.0013124378 0.00070592188)
(0.12116172 -0.0013011477 0.00047449746)
(0.12199949 -0.0013005776 0.00021423631)
(0.12281849 -0.0013144692 -6.8967461e-05)
(0.12361478 -0.001341006 -0.00037011671)
(0.12438705 -0.0013779234 -0.0006865617)
(0.12513183 -0.0014204464 -0.0010162616)
(0.12585181 -0.001459531 -0.0013621953)
(0.12655583 -0.0014827177 -0.0017304518)
(0.12726136 -0.0014697738 -0.0021319488)
(0.12799867 -0.0013916108 -0.0025810239)
(0.12881793 -0.0012050231 -0.0030978175)
(0.12979746 -0.00084490624 -0.003702136)
(0.13107982 -0.00021727723 -0.0043993564)
(0.13341848 0.00071069753 -0.0051118647)
(0.098379128 -0.00098367685 0.00041289359)
(0.098077946 -0.0013331206 0.00071017943)
(0.097472842 -0.0013810752 0.00088520491)
(0.096583647 -0.0013642274 0.00099231244)
(0.095683243 -0.0013281483 0.0010631736)
(0.09486707 -0.001274772 0.0011061136)
(0.094121462 -0.0012109074 0.0011243962)
(0.093419645 -0.0011447331 0.0011222407)
(0.092747934 -0.0010815526 0.001103144)
(0.092099356 -0.001024487 0.0010682721)
(0.091466273 -0.00097547073 0.0010161586)
(0.090839335 -0.00093482979 0.0009426468)
(0.090211146 -0.00089940608 0.0008409416)
(0.089583475 -0.00086185768 0.00070274208)
(0.088971756 -0.00082109952 0.00052245088)
(0.088395531 -0.00078178569 0.00029990625)
(0.08786579 -0.00074647015 4.0360067e-05)
(0.087384857 -0.0007166729 -0.00024828539)
(0.086948774 -0.00069282608 -0.00055833752)
(0.086547995 -0.00067284977 -0.00088499805)
(0.086177627 -0.00065594199 -0.0012275841)
(0.085838884 -0.00064163643 -0.001586021)
(0.085536724 -0.00062600258 -0.0019643221)
(0.085281432 -0.00060297971 -0.0023679177)
(0.085092136 -0.00056288802 -0.002800558)
(0.085006611 -0.00049280466 -0.0032715175)
(0.085091502 -0.00037385626 -0.0037921234)
(0.085457305 -0.00017684065 -0.0043681734)
(0.086254977 0.0001360987 -0.0049882151)
(0.088708901 0.0006008669 -0.0055866461)
(0.098355232 0.00098573506 0.00022303179)
(0.097980014 0.0013379955 0.00042046995)
(0.097289495 0.0013876951 0.00056739064)
(0.096336849 0.0013712453 0.00066823278)
(0.095397758 0.0013341523 0.00073590944)
(0.094561228 0.0012777753 0.00077912494)
(0.09381315 0.0012079244 0.00080284686)
(0.093131374 0.0011310671 0.00081134905)
(0.092509934 0.0010491948 0.00080907249)
(0.091955715 0.00095853528 0.00080088734)
(0.091488898 0.00084566314 0.00079374216)
(0.09116026 0.00067520494 0.00080157498)
(0.091127297 0.00038042488 0.00085942262)
(0.091412611 0.0003173978 0.0010804652)
(0.091766978 0.00032665796 0.0015277077)
(0.091982754 0.00037434773 0.0021697165)
(0.091994155 0.00044937066 0.0029395919)
(0.091805371 0.00052655303 0.0037539668)
(0.091454858 0.00059209552 0.0045511135)
(0.09098839 0.00063891052 0.0052985674)
(0.090441414 0.00066564156 0.0059815582)
(0.08983523 0.00067586611 0.0065909243)
(0.089178013 0.00067694975 0.0071171753)
(0.088464383 0.00067952813 0.0075468817)
(0.087673035 0.00069772371 0.0078586034)
(0.086762132 0.0007522465 0.0080157817)
(0.08566174 0.00087464997 0.0079543742)
(0.084262015 0.0011182083 0.0075601363)
(0.082348921 0.0015797788 0.0066282141)
(0.078187863 0.002577433 0.004903809)
(0.10055177 0.00099563844 0.00023001525)
(0.10200562 0.0013582736 0.00043646129)
(0.10371182 0.0014289571 0.00059357178)
(0.10532915 0.0014371706 0.00070628138)
(0.10686065 0.0014232096 0.00078756888)
(0.10836035 0.0013877969 0.00084585473)
(0.10983289 0.0013359369 0.00088567795)
(0.11126404 0.0012721173 0.00091059005)
(0.1126473 0.0011955188 0.00092363115)
(0.11398319 0.0010989971 0.00092649759)
(0.11526876 0.00096663211 0.00091783202)
(0.1164828 0.00076765354 0.00088798309)
(0.1175862 0.00046419738 0.00080560919)
(0.11858599 0.00039781088 0.00062031049)
(0.11959757 0.00043017934 0.00034604923)
(0.12062909 0.00052215863 2.3000668e-05)
(0.12166846 0.00065341013 -0.00031120595)
(0.12270143 0.00079523736 -0.00061999259)
(0.12370492 0.0009285471 -0.00088699775)
(0.12465946 0.0010452893 -0.0011055567)
(0.12555124 0.0011443752 -0.0012764411)
(0.12636818 0.0012312125 -0.0014060043)
(0.12709687 0.0013172719 -0.0015048876)
(0.12771915 0.0014200575 -0.0015895702)
(0.12820887 0.0015641086 -0.0016821168)
(0.12852567 0.0017903853 -0.0018150219)
(0.12860864 0.0021631993 -0.002037907)
(0.12837807 0.0027895371 -0.0024282168)
(0.12777259 0.0038536354 -0.0031086569)
(0.12616403 0.0056565814 -0.0042538709)
(0.10055165 -0.0009965286 0.00022999137)
(0.10200505 -0.0013603437 0.0004364023)
(0.1037103 -0.0014329091 0.00059344801)
(0.10532579 -0.001444331 0.00070602987)
(0.10685393 -0.0014359219 0.00078706343)
(0.10834759 -0.0014101387 0.00084484903)
(0.10980941 -0.0013749446 0.00088369808)
(0.11122182 -0.001339847 0.00090674972)
(0.11257311 -0.0013124538 0.00091634775)
(0.11385665 -0.0012995142 0.00091321814)
(0.11506331 -0.0013071349 0.00089548748)
(0.11617811 -0.0013358363 0.00085719705)
(0.11718535 -0.0013634324 0.00078663517)
(0.11809965 -0.0013226392 0.00066307826)
(0.11897203 -0.0012304854 0.00047454291)
(0.1198369 -0.001110978 0.00022414819)
(0.12071154 -0.00097957608 -7.6000993e-05)
(0.12160361 -0.00084912102 -0.00041917077)
(0.12250909 -0.00072697999 -0.00079832838)
(0.1234197 -0.0006160531 -0.001202658)
(0.12432682 -0.00051498384 -0.0016250639)
(0.12522395 -0.0004170548 -0.0020633849)
(0.12610673 -0.00030906617 -0.0025184209)
(0.12697368 -0.00016868807 -0.0029955188)
(0.12782581 4.0316016e-05 -0.0035053496)
(0.12863004 0.00036655059 -0.0040659883)
(0.12939807 0.00088124696 -0.0047050245)
(0.1301688 0.0016911939 -0.0054603341)
(0.13107038 0.0029452278 -0.0063739612)
(0.13282906 0.004753628 -0.007436671)
(0.098354995 -0.00098605538 0.00022298175)
(0.097978937 -0.0013387374 0.00042034618)
(0.09728668 -0.0013891053 0.00056712959)
(0.096330867 -0.0013737841 0.00066770014)
(0.095386163 -0.0013386376 0.00073483366)
(0.094539756 -0.0012856474 0.00077696296)
(0.093774367 -0.0012217156 0.0007985173)
(0.093062289 -0.0011552688 0.00080270195)
(0.092387751 -0.001091945 0.0007918209)
(0.091740042 -0.0010351731 0.00076641422)
(0.091106769 -0.00098693274 0.00072444512)
(0.090473349 -0.00094669903 0.00066056616)
(0.089827983 -0.00090862456 0.0005655475)
(0.089172866 -0.00085914698 0.00042680965)
(0.088529352 -0.00079536414 0.00023488887)
(0.087924953 -0.00072584917 -7.9076521e-06)
(0.087378533 -0.00065198565 -0.00029180591)
(0.086893224 -0.00057739308 -0.0006032734)
(0.086461032 -0.000503511 -0.00093399057)
(0.086073004 -0.00043258583 -0.0012883255)
(0.085725509 -0.00036513358 -0.0016703811)
(0.085420119 -0.00029898942 -0.0020843549)
(0.085164605 -0.00022810605 -0.0025362219)
(0.084977043 -0.00013908484 -0.0030346302)
(0.084891117 -5.9038751e-06 -0.0035915319)
(0.085029056 0.00019833288 -0.0042226206)
(0.085492919 0.0005115857 -0.0049470186)
(0.086447216 0.00098536424 -0.005783638)
(0.088149713 0.0016685778 -0.0067378762)
(0.09218251 0.0025988027 -0.0077021923)
(0.098342792 0.00098577972 6.6425198e-05)
(0.097930774 0.0013380397 0.00012492935)
(0.097192796 0.0013871604 0.00016684926)
(0.096199885 0.0013696528 0.00019253095)
(0.095233368 0.0013313031 0.00020651187)
(0.094379101 0.0012735375 0.00021270288)
(0.093619577 0.0012020938 0.00021341272)
(0.092931479 0.0011232322 0.00021024546)
(0.092309083 0.001038352 0.00020471066)
(0.091761253 0.00094187498 0.00019854911)
(0.091315237 0.00081486402 0.00019456593)
(0.091044653 0.0006058624 0.00019919652)
(0.091193389 0.00022021417 0.00023047736)
(0.091812171 0.00031305164 0.00035279767)
(0.092533675 0.00060975456 0.00060585701)
(0.093040363 0.0010628132 0.00097852932)
(0.093211069 0.0016352782 0.0014397467)
(0.093042956 0.0021918142 0.0019422829)
(0.092620748 0.0027012746 0.0024486984)
(0.092035249 0.003154892 0.0029408459)
(0.091339966 0.0035508819 0.0034104326)
(0.090557347 0.0038929748 0.0038511342)
(0.089689609 0.0041890494 0.0042554582)
(0.088720067 0.0044501049 0.0046130247)
(0.087607248 0.0046908405 0.0049081041)
(0.086272546 0.0049324859 0.0051148394)
(0.084577956 0.0052087252 0.0051884931)
(0.082286095 0.005577261 0.0050491712)
(0.078939173 0.0061212699 0.0045537332)
(0.071084984 0.0071499392 0.0035183311)
(0.10053937 0.00099564713 6.8473787e-05)
(0.10195651 0.0013587258 0.00012963635)
(0.10361567 0.0014295633 0.00017458021)
(0.1051935 0.0014374529 0.00020384035)
(0.10669801 0.0014227932 0.00022198503)
(0.10817977 0.0013863127 0.00023279008)
(0.10963988 0.001332854 0.00023836259)
(0.1110625 0.001266514 0.00023999758)
(0.11243985 0.001185612 0.0002385929)
(0.11376975 0.0010810363 0.00023437587)
(0.11504153 0.00093233062 0.00022588522)
(0.11621189 0.00069875384 0.00020669135)
(0.11720567 0.00033529121 0.00015703144)
(0.11801384 0.00046161814 4.6074267e-05)
(0.11881682 0.0008540562 -0.00011873836)
(0.11962695 0.0014467107 -0.00030499834)
(0.1204073 0.0022023222 -0.00048516117)
(0.12113085 0.0029854779 -0.00063382565)
(0.12174867 0.0037550179 -0.00074033758)
(0.1222301 0.0045005393 -0.00080147991)
(0.12255645 0.0052186939 -0.00081848036)
(0.12271342 0.0059115646 -0.00079576349)
(0.12268613 0.0065865526 -0.00074033758)
(0.12245342 0.0072566622 -0.00066195648)
(0.12198013 0.0079431648 -0.00057409366)
(0.12120543 0.0086822088 -0.00049716311)
(0.12002486 0.0095370895 -0.00046363418)
(0.11826139 0.010622024 -0.00052944991)
(0.11560866 0.012147047 -0.00080216282)
(0.10928499 0.01447778 -0.0014748711)
(0.10053925 -0.00099657507 6.8464148e-05)
(0.10195591 -0.0013608899 0.00012961252)
(0.10361404 -0.0014337134 0.00017453015)
(0.10518991 -0.0014450143 0.00020373825)
(0.10669079 -0.0014363049 0.00022177919)
(0.10816595 -0.0014102345 0.00023237921)
(0.10961424 -0.0013749692 0.00023755029)
(0.11101603 -0.0013403259 0.00023841558)
(0.11235769 -0.0013143877 0.00023558529)
(0.11362945 -0.0013043979 0.00022891914)
(0.11481689 -0.0013161204 0.00021697728)
(0.11589712 -0.001345281 0.00019606845)
(0.11684181 -0.0013498865 0.00015911499)
(0.11766896 -0.0012179769 9.2733881e-05)
(0.11846079 -0.00096356961 -1.1839635e-05)
(0.11929271 -0.00061742758 -0.00015418229)
(0.12018984 -0.0001937292 -0.00032348537)
(0.12115366 0.00028769507 -0.00051888652)
(0.12210709 0.0008164731 -0.0007371658)
(0.12304266 0.0013813833 -0.00097031787)
(0.12394178 0.001976174 -0.0012121196)
(0.12478618 0.0026009522 -0.0014587068)
(0.12555706 0.0032620662 -0.0017082635)
(0.12623302 0.0039737179 -0.0019610266)
(0.12678872 0.0047621095 -0.002219084)
(0.1271926 0.0056726659 -0.0024909924)
(0.12740574 0.0067844018 -0.0027919228)
(0.12738518 0.0082348809 -0.0031485331)
(0.12712988 0.010262233 -0.0036062212)
(0.12611407 0.013200595 -0.004214365)
(0.09834254 -0.00098611373 6.6404963e-05)
(0.097929628 -0.0013388154 0.00012487936)
(0.097189787 -0.0013886419 0.0001667435)
(0.096193455 -0.0013723355 0.00019231441)
(0.095220812 -0.0013360761 0.00020607266)
(0.094355641 -0.001281984 0.00021181543)
(0.09357674 -0.0012170382 0.00021162299)
(0.092854154 -0.001149782 0.00020663544)
(0.092170065 -0.0010860119 0.00019741266)
(0.091510711 -0.0010292404 0.0001837013)
(0.090859187 -0.00098115081 0.00016399922)
(0.090194755 -0.00093970573 0.00013501662)
(0.089498424 -0.00089519888 9.1118015e-05)
(0.088770791 -0.00082309036 2.4210619e-05)
(0.088049284 -0.00071476549 -7.2338061e-05)
(0.087381769 -0.00057578727 -0.00019566669)
(0.086795076 -0.00041491754 -0.00033980641)
(0.086298644 -0.00022435592 -0.00049767051)
(0.085982104 2.73562e-06 -0.00066519894)
(0.085828828 0.00025308241 -0.00084822319)
(0.085835066 0.00051860945 -0.0010521051)
(0.08599847 0.00079915207 -0.0012808747)
(0.086315788 0.001100505 -0.0015388698)
(0.086787209 0.001434842 -0.0018328123)
(0.087421449 0.0018231558 -0.0021739653)
(0.088245575 0.002298632 -0.0025724118)
(0.089322191 0.0029152693 -0.0030384543)
(0.090779501 0.0037608235 -0.0035818192)
(0.09292174 0.0049649456 -0.0042020489)
(0.097594049 0.0067277725 -0.0048303827)
(0.098342792 0.00098577978 -6.6423836e-05)
(0.097930774 0.0013380397 -0.00012492894)
(0.097192796 0.0013871604 -0.00016684891)
(0.096199885 0.0013696528 -0.00019253069)
(0.095233368 0.0013313031 -0.00020651173)
(0.094379101 0.0012735375 -0.00021270278)
(0.093619577 0.0012020939 -0.0002134128)
(0.092931478 0.0011232322 -0.00021024536)
(0.092309083 0.0010383522 -0.00020471137)
(0.091761253 0.00094187498 -0.00019854974)
(0.091315237 0.00081486443 -0.00019456782)
(0.091044653 0.00060586214 -0.00019919841)
(0.091193389 0.00022021304 -0.00023047868)
(0.091812173 0.00031305134 -0.00035279964)
(0.092533678 0.00060975339 -0.00060585767)
(0.093040368 0.0010628151 -0.00097852917)
(0.093211076 0.0016352823 -0.0014397415)
(0.093042963 0.0021918215 -0.0019422734)
(0.092620754 0.0027012852 -0.0024486829)
(0.092035257 0.0031549066 -0.0029408262)
(0.091339974 0.0035508976 -0.003410405)
(0.090557354 0.0038929959 -0.0038511014)
(0.089689616 0.0041890709 -0.0042554173)
(0.088720072 0.00445013 -0.0046129803)
(0.087607257 0.004690865 -0.0049080505)
(0.086272548 0.0049325118 -0.0051147821)
(0.084577953 0.0052087534 -0.0051884349)
(0.082286086 0.005577291 -0.005049114)
(0.07893915 0.0061213013 -0.0045536821)
(0.071084926 0.0071499729 -0.0035182944)
(0.10053937 0.00099564715 -6.8472425e-05)
(0.10195651 0.0013587258 -0.00012963594)
(0.10361567 0.0014295633 -0.00017458002)
(0.1051935 0.0014374529 -0.00020384029)
(0.10669801 0.0014227932 -0.00022198513)
(0.10817977 0.0013863128 -0.00023279039)
(0.10963988 0.0013328541 -0.00023836294)
(0.1110625 0.001266514 -0.00023999796)
(0.11243985 0.0011856121 -0.00023859367)
(0.11376975 0.0010810364 -0.00023437667)
(0.11504153 0.00093233105 -0.00022588593)
(0.11621189 0.00069875359 -0.00020669111)
(0.11720567 0.00033529021 -0.00015703074)
(0.11801384 0.00046161695 -4.6072319e-05)
(0.11881682 0.00085405508 0.00011873842)
(0.11962695 0.0014467119 0.00030499727)
(0.12040729 0.0022023267 0.000485158)
(0.12113085 0.0029854865 0.00063382167)
(0.12174866 0.0037550305 0.00074033255)
(0.12223009 0.004500557 0.00080147472)
(0.12255644 0.0052187157 0.00081847379)
(0.12271341 0.0059115926 0.00079575928)
(0.12268611 0.0065865836 0.00074033358)
(0.1224534 0.0072566983 0.00066195367)
(0.1219801 0.0079432 0.00057409114)
(0.12120539 0.0086822488 0.00049715987)
(0.12002482 0.0095371331 0.00046363017)
(0.11826134 0.010622071 0.0005294436)
(0.11560859 0.012147098 0.00080215173)
(0.10928488 0.014477836 0.0014748503)
(0.10053925 -0.00099657512 -6.8462784e-05)
(0.10195591 -0.0013608899 -0.00012961212)
(0.10361404 -0.0014337133 -0.00017452994)
(0.10518991 -0.0014450143 -0.00020373823)
(0.10669079 -0.0014363049 -0.0002217794)
(0.10816595 -0.0014102345 -0.0002323795)
(0.10961424 -0.0013749691 -0.00023755076)
(0.11101603 -0.0013403261 -0.00023841602)
(0.11235769 -0.0013143873 -0.00023558616)
(0.11362945 -0.0013043982 -0.00022891975)
(0.11481689 -0.0013161201 -0.00021697801)
(0.11589712 -0.0013452814 -0.00019606839)
(0.11684181 -0.0013498865 -0.00015911424)
(0.11766896 -0.0012179775 -9.2733425e-05)
(0.11846079 -0.00096356901 1.1839349e-05)
(0.1192927 -0.00061742664 0.00015418075)
(0.12018984 -0.00019372643 0.00032348296)
(0.12115365 0.00028769979 0.00051888369)
(0.12210709 0.00081648035 0.00073716166)
(0.12304265 0.0013813935 0.00097031177)
(0.12394178 0.001976189 0.0012121135)
(0.12478617 0.0026009699 0.0014587005)
(0.12555705 0.0032620898 0.001708256)
(0.12623301 0.0039737445 0.0019610173)
(0.12678871 0.0047621395 0.0022190678)
(0.12719258 0.0056727011 0.0024909726)
(0.12740572 0.0067844423 0.0027918983)
(0.12738515 0.0082349257 0.0031485048)
(0.12712984 0.010262284 0.0036061863)
(0.12611401 0.013200656 0.0042143222)
(0.09834254 -0.00098611374 -6.6403614e-05)
(0.097929628 -0.0013388154 -0.00012487886)
(0.097189787 -0.0013886419 -0.00016674314)
(0.096193455 -0.0013723356 -0.00019231414)
(0.095220812 -0.0013360762 -0.00020607245)
(0.094355641 -0.001281984 -0.00021181539)
(0.09357674 -0.001217038 -0.00021162291)
(0.092854154 -0.0011497823 -0.0002066358)
(0.092170064 -0.0010860116 -0.00019741293)
(0.09151071 -0.0010292409 -0.00018370234)
(0.090859187 -0.00098115076 -0.00016400036)
(0.090194754 -0.00093970613 -0.00013501809)
(0.089498424 -0.00089519905 -9.1119938e-05)
(0.08877079 -0.00082309013 -2.4213226e-05)
(0.088049283 -0.00071476525 7.2334186e-05)
(0.087381767 -0.00057578643 0.00019566121)
(0.086795074 -0.00041491657 0.00033979867)
(0.086298642 -0.00022435416 0.00049766071)
(0.085982103 2.7384574e-06 0.00066518544)