/*--------------------------------*- C++ -*----------------------------------*\
| =========                 |                                                 |
| \\      /  F ield         | OpenFOAM: The Open Source CFD Toolbox           |
|  \\    /   O peration     | Version:  2412                                  |
|   \\  /    A nd           | Website:  www.openfoam.com                      |
|    \\/     M anipulation  |                                                 |
\*---------------------------------------------------------------------------*/
FoamFile
{
    version     2.0;
    format      ascii;
    arch        "LSB;label=32;scalar=64";
    class       volScalarField;
    location    "60/leftSolid";
    object      T;
}
// * * * * * * * * * * * * * * * * * * * * * * * * * * * * * * * * * * * * * //

dimensions      [0 0 0 1 0 0 0];

internalField   nonuniform List<scalar> 
130
(
300.00172
300.00199
300.00255
300.00345
300.00475
300.00653
300.00883
300.01171
300.01513
300.01897
300.02292
300.02651
300.0291
300.00182
300.00212
300.00275
300.00377
300.00526
300.00733
300.0101
300.01367
300.01812
300.02336
300.02913
300.03479
300.03916
300.002
300.00234
300.00308
300.00429
300.0061
300.0087
300.01231
300.0172
300.02366
300.03188
300.04186
300.05299
300.06325
300.00217
300.00257
300.00342
300.00484
300.007
300.01019
300.01478
300.02127
300.03036
300.0429
300.05985
300.08195
300.1077
300.00228
300.00271
300.00364
300.00519
300.00759
300.01118
300.01645
300.02416
300.03538
300.05182
300.07616
300.11285
300.16717
300.00228
300.00271
300.00364
300.00519
300.00759
300.01118
300.01645
300.02416
300.03538
300.05182
300.07616
300.11285
300.16717
300.00217
300.00257
300.00342
300.00484
300.007
300.01019
300.01478
300.02127
300.03036
300.0429
300.05985
300.08195
300.1077
300.002
300.00234
300.00308
300.00429
300.0061
300.0087
300.01231
300.0172
300.02366
300.03188
300.04186
300.05299
300.06325
300.00182
300.00212
300.00275
300.00377
300.00526
300.00733
300.0101
300.01367
300.01812
300.02336
300.02913
300.03479
300.03916
300.00172
300.00199
300.00255
300.00345
300.00475
300.00653
300.00883
300.01171
300.01513
300.01897
300.02292
300.02651
300.0291
)
;

boundaryField
{
    minX
    {
        type            zeroGradient;
    }
    minZ
    {
        type            zeroGradient;
    }
    maxZ
    {
        type            zeroGradient;
    }
    leftSolid_to_bottomWater
    {
        type            compressible::turbulentTemperatureRadCoupledMixed;
        refValue        nonuniform List<scalar> 
130
(
300.00003
300.00006
300.00008
300.00012
300.00017
300.00025
300.00035
300.00049
300.00067
300.00089
300.00114
300.00185
300.01762
300.00003
300.00006
300.00009
300.00013
300.00018
300.00027
300.00039
300.00055
300.00078
300.00107
300.00153
300.0049
300.05899
300.00004
300.00007
300.0001
300.00015
300.00022
300.00032
300.00048
300.00072
300.00105
300.00153
300.00284
300.02534
300.44478
300.00004
300.00007
300.00011
300.00017
300.00025
300.00039
300.0006
300.00091
300.00138
300.00216
300.00599
300.10411
302.29806
300.00004
300.00008
300.00012
300.00018
300.00028
300.00043
300.00068
300.00106
300.00166
300.00277
300.01173
300.29154
308.34898
300.00004
300.00008
300.00012
300.00018
300.00028
300.00043
300.00068
300.00106
300.00166
300.00277
300.01173
300.29154
308.34897
300.00004
300.00007
300.00011
300.00017
300.00025
300.00039
300.0006
300.00091
300.00138
300.00216
300.00599
300.10411
302.29806
300.00004
300.00007
300.0001
300.00015
300.00022
300.00032
300.00048
300.00071
300.00105
300.00153
300.00284
300.02534
300.44478
300.00003
300.00006
300.00009
300.00013
300.00018
300.00027
300.00039
300.00055
300.00078
300.00107
300.00153
300.0049
300.05899
300.00003
300.00006
300.00008
300.00012
300.00017
300.00025
300.00035
300.00049
300.00067
300.00089
300.00114
300.00185
300.01762
)
;
        refGradient     uniform 0;
        valueFraction   uniform 0.0075140686;
        source          uniform 0;
        logInterval     -1;
        writePrecision  8;
        updateHeader    1;
        writeToFile     0;
        useUserTime     1;
        kappaMethod     solidThermo;
        value           nonuniform List<scalar> 
130
(
300.0017
300.00197
300.00253
300.00342
300.00471
300.00647
300.00875
300.01161
300.015
300.0188
300.02273
300.02629
300.02898
300.00181
300.0021
300.00273
300.00373
300.00521
300.00726
300.01001
300.01356
300.01796
300.02317
300.02889
300.03452
300.03926
300.00198
300.00232
300.00305
300.00425
300.00605
300.00863
300.01221
300.01706
300.02346
300.03162
300.04152
300.05273
300.06606
300.00215
300.00255
300.00339
300.00479
300.00694
300.0101
300.01465
300.0211
300.03011
300.04255
300.05939
300.08205
300.12408
300.00226
300.00269
300.0036
300.00514
300.00752
300.01108
300.01632
300.02396
300.0351
300.05141
300.07561
300.11412
300.22855
300.00226
300.00269
300.0036
300.00514
300.00752
300.01108
300.01632
300.02396
300.0351
300.05141
300.07561
300.11412
300.22855
300.00215
300.00255
300.00339
300.00479
300.00694
300.0101
300.01465
300.0211
300.03011
300.04255
300.05939
300.08205
300.12408
300.00198
300.00232
300.00305
300.00425
300.00605
300.00863
300.01221
300.01706
300.02346
300.03162
300.04152
300.05273
300.06606
300.00181
300.0021
300.00273
300.00373
300.00521
300.00726
300.01001
300.01356
300.01796
300.02317
300.02889
300.03452
300.03926
300.0017
300.00197
300.00253
300.00342
300.00471
300.00647
300.00875
300.01161
300.015
300.0188
300.02273
300.0263
300.02898
)
;
    }
    leftSolid_to_heater
    {
        type            compressible::turbulentTemperatureRadCoupledMixed;
        refValue        nonuniform List<scalar> 10(319.32506 323.14933 331.27227 344.61278 364.27608 364.2761 344.61279 331.27228 323.14933 319.32501);
        refGradient     uniform 0;
        valueFraction   uniform 2.0832466e-05;
        source          uniform 0;
        logInterval     -1;
        thicknessLayers List<scalar> 1(0.001);
        kappaLayers     List<scalar> 1(0.0005);
        writePrecision  8;
        updateHeader    1;
        writeToFile     0;
        useUserTime     1;
        kappaMethod     solidThermo;
        value           nonuniform List<scalar> 10(300.02947 300.0396 300.06384 300.10855 300.1684 300.1684 300.10855 300.06384 300.0396 300.02947);
    }
    leftSolid_to_topAir
    {
        type            compressible::turbulentTemperatureRadCoupledMixed;
        refValue        nonuniform List<scalar> 
130
(
300.00007
300.00015
300.00026
300.0004
300.0006
300.00087
300.00125
300.00175
300.00241
300.00323
300.00428
300.00703
300.05064
300.00008
300.00016
300.00027
300.00042
300.00063
300.00092
300.00131
300.00186
300.00257
300.00349
300.00467
300.00722
300.04524
300.00008
300.00018
300.0003
300.00047
300.00071
300.00106
300.00155
300.00223
300.00317
300.00443
300.00612
300.0097
300.05926
300.00009
300.0002
300.00033
300.00053
300.00081
300.00121
300.00181
300.00266
300.00388
300.00561
300.00809
300.01355
300.08473
300.0001
300.00021
300.00035
300.00056
300.00086
300.00131
300.00198
300.00296
300.0044
300.00652
300.00974
300.01747
300.11942
300.0001
300.00021
300.00035
300.00056
300.00086
300.00131
300.00198
300.00296
300.0044
300.00652
300.00974
300.01747
300.11942
300.00009
300.0002
300.00033
300.00053
300.00081
300.00121
300.00181
300.00266
300.00388
300.00561
300.00809
300.01355
300.08473
300.00008
300.00018
300.0003
300.00047
300.00071
300.00106
300.00155
300.00223
300.00317
300.00443
300.00612
300.0097
300.05926
300.00008
300.00016
300.00027
300.00042
300.00063
300.00092
300.00131
300.00186
300.00257
300.00349
300.00467
300.00722
300.04524
300.00007
300.00015
300.00026
300.0004
300.0006
300.00087
300.00125
300.00175
300.00241
300.00323
300.00428
300.00703
300.05064
)
;
        refGradient     uniform 0;
        valueFraction   uniform 0.00032132529;
        source          uniform 0;
        logInterval     -1;
        writePrecision  8;
        updateHeader    1;
        writeToFile     0;
        useUserTime     1;
        kappaMethod     solidThermo;
        value           nonuniform List<scalar> 
130
(
300.00171
300.00198
300.00255
300.00345
300.00474
300.00651
300.00881
300.01169
300.0151
300.01893
300.02288
300.02647
300.02907
300.00182
300.00212
300.00274
300.00376
300.00525
300.00731
300.01008
300.01365
300.01809
300.02333
300.02909
300.03474
300.03912
300.00199
300.00234
300.00307
300.00428
300.00609
300.00869
300.01229
300.01718
300.02362
300.03184
300.0418
300.05292
300.06319
300.00217
300.00256
300.00341
300.00483
300.00699
300.01017
300.01475
300.02124
300.03032
300.04285
300.05978
300.08186
300.10761
300.00228
300.00271
300.00363
300.00518
300.00757
300.01116
300.01643
300.02412
300.03534
300.05176
300.07608
300.11275
300.16705
300.00228
300.00271
300.00363
300.00518
300.00757
300.01116
300.01643
300.02412
300.03534
300.05176
300.07608
300.11275
300.16705
300.00217
300.00256
300.00341
300.00483
300.00699
300.01017
300.01475
300.02124
300.03032
300.04285
300.05978
300.08186
300.10761
300.00199
300.00234
300.00307
300.00428
300.00609
300.00869
300.01229
300.01718
300.02362
300.03184
300.0418
300.05292
300.06319
300.00182
300.00212
300.00274
300.00376
300.00525
300.00731
300.01008
300.01365
300.01809
300.02333
300.02909
300.03474
300.03912
300.00171
300.00198
300.00255
300.00345
300.00474
300.00651
300.00881
300.01169
300.0151
300.01893
300.02288
300.02647
300.02907
)
;
    }
}


// ************************************************************************* //
