/*--------------------------------*- C++ -*----------------------------------*\
| =========                 |                                                 |
| \\      /  F ield         | OpenFOAM: The Open Source CFD Toolbox           |
|  \\    /   O peration     | Version:  2412                                  |
|   \\  /    A nd           | Website:  www.openfoam.com                      |
|    \\/     M anipulation  |                                                 |
\*---------------------------------------------------------------------------*/
FoamFile
{
    version     2.0;
    format      ascii;
    arch        "LSB;label=32;scalar=64";
    class       volVectorField;
    location    "1.2";
    object      flux;
}
// * * * * * * * * * * * * * * * * * * * * * * * * * * * * * * * * * * * * * //

dimensions      [0 1 -1 1 0 0 0];

internalField   nonuniform List<vector> 
5712
(
(-0.349375 0.557997 0.32594)
(-0.427987 0.306729 0.987691)
(-0.794592 0.967381 0.248188)
(-1.24704 0.635885 1.0778)
(-1.20651 0.933279 0.135284)
(-2.35276 0.796983 1.13619)
(-0.829453 1.36347 0.228022)
(-2.49376 1.7019 1.7848)
(-0.852841 2.08101 0.371307)
(-1.99645 2.65127 2.2375)
(-1.04939 1.10779 0.382601)
(-1.73012 0.977339 1.59679)
(-0.800692 0.68115 0.409787)
(-1.06456 0.471387 1.42339)
(-0.431263 0.451652 0.404786)
(-0.439702 0.257385 1.22667)
(-0.58498 0.912762 0.188892)
(-0.671997 0.801775 0.106741)
(-0.790281 0.831168 0.572582)
(-0.72138 0.810185 0.276697)
(-0.545487 1.04496 0.175675)
(-0.821173 0.985647 0.0823337)
(-0.808567 1.21879 0.611366)
(-0.80953 1.03274 0.248106)
(-0.233134 0.324618 0.251759)
(-0.173068 0.222442 0.189858)
(-0.315362 0.169914 0.741411)
(-0.229106 0.11737 0.552272)
(-0.532179 0.468777 0.16881)
(-0.355609 0.297441 0.13671)
(-0.976653 0.261123 0.7452)
(-0.690726 0.169566 0.574671)
(-0.811908 0.952731 0.381588)
(-0.830695 0.997341 0.140302)
(-0.837485 0.840257 0.296025)
(-0.867048 0.661774 0.111572)
(-0.205049 0.669582 0.137392)
(-0.175456 0.533729 0.360062)
(-1.86985 0.574437 1.7602)
(-2.31146 0.550928 0.535133)
(-1.00123 0.760387 0.532089)
(-1.33202 0.752147 0.24039)
(-2.38927 1.57427 2.11869)
(-2.94301 1.73967 0.659447)
(-1.1095 1.11084 0.488859)
(-1.36514 1.18186 0.222599)
(-1.41183 0.829531 1.17885)
(-1.84434 0.653851 0.391537)
(-1.13281 0.832777 0.602838)
(-1.56241 0.5821 0.271731)
(-0.656146 0.354414 0.971094)
(-0.826141 0.308447 0.307365)
(-0.138535 0.272677 0.258492)
(-0.0444099 0.431584 0.1392)
(-0.178278 0.136372 0.41562)
(-0.0624062 0.192933 0.170906)
(-0.311147 0.360383 0.236537)
(-0.128772 0.571107 0.145672)
(-0.52995 0.228753 0.434956)
(-0.196106 0.322843 0.167527)
(-0.35787 0.363404 0.309908)
(-0.118839 0.679566 0.195901)
(-0.350572 0.279946 0.277334)
(-0.0999927 0.475831 0.119651)
(-0.682302 0.0856887 0.474697)
(-0.20005 0.316819 0.173882)
(-0.891615 0.0136869 0.185324)
(-0.281508 0.22565 0.0693457)
(-1.12729 0.757708 0.596785)
(-0.651782 0.916277 0.461519)
(-0.948403 0.810908 0.3536)
(-0.655896 0.916097 0.324402)
(-1.13565 0.949715 0.633809)
(-0.733877 0.958561 0.559923)
(-0.898667 0.984454 0.339468)
(-0.720618 0.946947 0.363657)
(-0.749321 0.7373 0.339486)
(-0.542621 0.894273 0.301813)
(-0.829745 0.725414 0.464087)
(-0.530711 0.876614 0.407715)
(-0.919691 0.819648 0.256382)
(-0.673559 0.914836 0.224557)
(-0.950691 0.807875 0.142648)
(-0.688953 0.912316 0.123662)
(-0.879971 1.00128 0.245852)
(-0.730595 0.940714 0.246153)
(-0.914669 1.00722 0.133597)
(-0.743166 0.937445 0.134375)
(-0.769058 0.696462 0.252533)
(-0.568736 0.898468 0.205023)
(-0.827368 0.636544 0.142185)
(-0.587713 0.896376 0.102747)
(-0.829402 0.791459 0.298262)
(-0.346271 0.870631 0.169588)
(-0.482118 0.996068 0.307954)
(-0.557388 1.43644 0.331879)
(-0.897247 0.831862 0.413381)
(-0.403795 1.02014 0.312826)
(-0.485725 0.993887 0.453292)
(-0.592609 1.59241 0.579047)
(-0.828414 0.74736 0.210469)
(-0.320369 0.764665 0.0919373)
(-0.499773 0.988275 0.192821)
(-0.543771 1.3526 0.19543)
(-0.855739 0.718166 0.115225)
(-0.321453 0.699604 0.0413044)
(-0.522852 0.986224 0.0856534)
(-0.545905 1.31261 0.0740022)
(-0.13438 0.221723 0.3165)
(-0.152764 0.287198 0.621348)
(-0.0478136 0.609531 0.224616)
(-0.0988236 1.02346 0.698854)
(-0.386283 0.261966 0.342863)
(-0.456412 0.299404 0.624844)
(-0.162945 0.744431 0.26655)
(-0.31948 1.13242 0.73836)
(-0.629304 0.305718 0.439196)
(-0.748329 0.320464 0.610459)
(-0.296827 0.899085 0.3639)
(-0.539508 1.25083 0.74148)
(-0.734948 1.05087 0.445092)
(-0.380563 1.12195 0.492656)
(-0.778497 0.921071 0.378363)
(-0.967321 0.870535 0.387058)
(-0.503394 1.2492 0.450782)
(-0.267642 1.13789 0.325599)
(-0.430648 1.0115 0.392133)
(-0.539947 0.915326 0.560365)
(-0.983523 0.795393 0.668743)
(-0.669023 1.43862 0.96381)
(-0.446597 1.04152 0.444837)
(-0.597718 0.983975 0.391114)
(-0.679242 0.851841 0.39395)
(-0.677577 0.920824 0.497942)
(-0.859074 1.833 0.76518)
(-0.146197 0.0758789 0.775658)
(-0.1482 0.100435 0.754377)
(-0.0927762 0.214416 0.905463)
(-0.0981912 0.460076 0.920114)
(-0.43247 0.106306 0.751084)
(-0.402031 0.150782 0.753826)
(-0.289428 0.277263 0.902579)
(-0.290187 0.522792 0.90581)
(-0.646531 0.156758 0.682427)
(-0.574118 0.151224 0.710522)
(-0.430805 0.364003 0.856444)
(-0.426282 0.603841 0.871705)
(-0.395946 1.09254 0.408849)
(-0.43859 1.05873 0.436659)
(-0.623929 0.926566 0.434114)
(-0.662723 0.859873 0.463236)
(-0.738417 0.811852 0.535643)
(-0.691507 0.696314 0.550821)
(-0.900568 0.605676 0.640975)
(-0.815456 0.52154 0.637637)
(-0.657756 0.499912 0.82187)
(-0.652036 0.762804 0.843046)
(-0.547796 0.968817 0.369795)
(-0.572333 0.851563 0.413831)
(-0.710719 0.914156 0.439998)
(-0.61938 0.834795 0.491224)
(-0.684265 0.793271 0.510044)
(-0.544567 0.712655 0.575811)
(-0.629497 0.710755 0.602442)
(-0.478525 0.611669 0.684578)
(-0.729124 0.587138 0.800128)
(-0.563879 0.817068 0.894897)
(-0.586874 0.95285 0.435379)
(-0.282429 1.00665 0.298401)
(-0.465827 0.992163 0.349018)
(-0.4348 1.08272 0.343195)
(-0.644597 0.940271 0.468496)
(-0.725009 0.860156 0.516367)
(-0.65939 0.961145 0.378684)
(-0.839745 0.914381 0.485427)
(-0.398212 0.886554 0.332609)
(-0.375014 0.890469 0.329487)
(-0.538048 0.87152 0.427703)
(-0.205845 0.858151 0.309801)
(-0.456023 1.01154 0.152476)
(-0.698931 1.11043 0.245371)
(-0.476054 1.00675 0.0582369)
(-0.75363 1.10251 0.0886602)
(-0.672222 0.977902 0.232548)
(-1.03673 0.955676 0.355675)
(-0.698693 0.969923 0.0858941)
(-1.06959 0.951447 0.129166)
(-0.394073 0.87784 0.135629)
(-0.625408 0.882979 0.223235)
(-0.412827 0.890559 0.0484554)
(-0.685188 0.891028 0.0796892)
(-0.489815 0.780973 0.32517)
(-0.34596 0.76645 0.274703)
(-0.645582 0.545414 0.338919)
(-0.273701 0.653739 0.216402)
(-0.521969 0.789546 0.462554)
(-0.154201 0.75523 0.334679)
(-0.608135 0.566514 0.53431)
(-0.1062 0.686295 0.365038)
(-0.515455 0.757165 0.157011)
(-0.512731 0.753453 0.173739)
(-0.679891 0.536512 0.193115)
(-0.34064 0.64976 0.112919)
(-0.469888 0.763353 0.113734)
(-0.597704 0.744528 0.120483)
(-0.628296 0.530163 0.126079)
(-0.437924 0.632354 0.094996)
(-0.134919 0.0821205 0.663245)
(-0.122116 0.0635387 0.441056)
(-0.0997044 0.0449003 0.146769)
(-0.0878923 0.0431144 0.71803)
(-0.0840111 0.0350019 0.456746)
(-0.0707533 0.0343363 0.158835)
(-0.357955 0.125376 0.648907)
(-0.294541 0.0821232 0.429752)
(-0.244235 0.0607577 0.149024)
(-0.241288 0.101947 0.711453)
(-0.192133 0.087341 0.453907)
(-0.154181 0.0719746 0.155432)
(-0.459271 0.127141 0.613006)
(-0.367737 0.113135 0.400561)
(-0.321896 0.114906 0.135145)
(-0.349279 0.184369 0.691589)
(-0.264289 0.151764 0.444061)
(-0.22704 0.132948 0.153626)
(-0.379598 0.964116 0.323465)
(-0.283753 0.807661 0.192829)
(-0.256024 0.70819 0.0545631)
(-0.605353 0.820467 0.408617)
(-0.415349 0.728297 0.280767)
(-0.317142 0.662186 0.0921982)
(-0.569465 0.570498 0.487062)
(-0.386135 0.518478 0.342014)
(-0.278839 0.488957 0.116096)
(-0.647087 0.422448 0.550827)
(-0.473484 0.378593 0.36404)
(-0.375331 0.354855 0.12091)
(-0.537997 0.301509 0.661802)
(-0.343542 0.206547 0.424193)
(-0.238104 0.158694 0.150155)
(-0.710168 0.763243 0.346202)
(-0.539444 0.662395 0.197063)
(-0.451962 0.596694 0.0669659)
(-0.53918 0.77906 0.375317)
(-0.396389 0.683432 0.248609)
(-0.304942 0.628452 0.0889331)
(-0.49656 0.591951 0.438289)
(-0.345253 0.493871 0.293712)
(-0.249752 0.442651 0.103281)
(-0.463341 0.439913 0.522856)
(-0.320435 0.364192 0.339763)
(-0.232719 0.328353 0.118217)
(-0.53118 0.308883 0.630165)
(-0.299045 0.211153 0.376532)
(-0.169012 0.162777 0.132401)
(-0.483366 1.18791 -0.021748)
(-0.780059 1.2169 0.0385984)
(-0.415323 1.27483 0.0139073)
(-0.586876 1.15799 0.104673)
(-0.404762 1.17432 0.0770665)
(-0.82308 1.15799 0.0763133)
(-0.343057 1.41439 0.197269)
(-0.677977 1.20118 0.171019)
(-0.00543868 0.747321 0.0242039)
(-0.0678515 0.807785 0.0372529)
(0.0113566 0.748467 0.0256213)
(-0.041151 0.727704 0.0390421)
(-0.142944 0.994026 0.0129185)
(-0.268026 0.859612 0.0356152)
(-0.092264 0.979066 0.0239384)
(-0.166824 0.762763 0.0523187)
(-0.0805044 1.07867 0.068633)
(-0.161387 1.11541 0.0430615)
(-0.453844 0.917861 0.14765)
(-0.667559 1.01931 0.106592)
(-0.350574 1.18382 0.0655296)
(-0.270522 1.05236 0.104554)
(-0.494149 1.21258 0.115729)
(-0.433262 1.2652 0.0201492)
(-0.676358 1.29795 0.250436)
(-0.725858 1.39924 0.07011)
(0.0203437 1.03751 -0.187628)
(0.229927 1.06876 -0.0462319)
(-0.348933 0.898427 0.0150285)
(-0.2432 0.888595 0.0119359)
(-0.272536 1.02031 -0.0157296)
(-0.155882 0.988493 -0.0145984)
(-0.0627025 0.669361 0.394858)
(-0.039919 0.383626 0.160524)
(-0.0525371 0.630935 0.103661)
(-0.033124 0.424005 0.0571573)
(-0.155565 0.651153 0.388133)
(-0.0482823 0.376093 0.16146)
(-0.0818531 0.609411 0.112103)
(-0.0136705 0.411086 0.0666472)
(-0.40069 0.595627 0.371472)
(-0.114917 0.347563 0.173129)
(-0.309218 0.567482 0.145206)
(-0.095836 0.390433 0.0941806)
(-0.350635 0.55915 0.109146)
(-0.105196 0.405204 0.0641243)
(-0.394907 0.537842 0.0499806)
(-0.127406 0.404208 0.04356)
(-0.517322 0.919556 0.536109)
(-0.499007 0.708612 0.465856)
(-0.400708 0.911005 0.230148)
(-0.490675 0.721531 0.295072)
(-0.801664 1.0366 0.630641)
(-0.710545 0.912355 0.587379)
(-0.653005 1.05216 0.304005)
(-0.670767 0.907244 0.363719)
(-0.287628 0.834416 0.197598)
(-0.363113 0.560221 0.239287)
(-0.336509 0.857697 0.434282)
(-0.337608 0.53575 0.353043)
(-0.374002 0.935503 0.141163)
(-0.484424 0.729177 0.188148)
(-0.392085 0.964821 0.073782)
(-0.487162 0.730465 0.10285)
(-0.622329 1.08595 0.198567)
(-0.653839 0.908101 0.232493)
(-0.644489 1.10991 0.107175)
(-0.656887 0.90786 0.126228)
(-0.253405 0.81722 0.105742)
(-0.365719 0.570868 0.153817)
(-0.244006 0.813962 0.0516482)
(-0.368471 0.572602 0.0881122)
(-0.023241 0.491115 0.16731)
(-0.0439059 0.339234 0.107847)
(-0.275967 0.422774 0.188409)
(-0.135891 0.277593 0.11314)
(-0.0236916 0.449075 0.296639)
(-0.0346674 0.303336 0.158221)
(-0.2424 0.391943 0.256323)
(-0.114166 0.254381 0.149644)
(-0.022983 0.504804 0.0932278)
(-0.0392027 0.359352 0.0706235)
(-0.289803 0.436936 0.127713)
(-0.149551 0.290765 0.0754425)
(-0.0338895 0.508984 0.0449439)
(-0.0429741 0.371887 0.0401867)
(-0.291203 0.440935 0.0769269)
(-0.157212 0.29814 0.0443353)
(0.00785711 0.108463 0.450315)
(0.014001 0.0585114 0.275368)
(-0.0178484 0.205949 0.20332)
(-0.0103002 0.122688 0.195319)
(0.0357885 0.111588 0.446203)
(0.0565746 0.0665048 0.276127)
(-0.0270319 0.208573 0.199085)
(-0.0135704 0.133691 0.190699)
(-0.0394681 0.120119 0.450652)
(0.00239107 0.0870552 0.268735)
(-0.0884656 0.206154 0.199943)
(-0.071075 0.151026 0.176902)
(0.291922 0.522094 0.538911)
(0.14758 0.891316 0.547757)
(0.172022 0.339329 0.478846)
(0.11947 0.308732 0.349462)
(0.00814547 0.229212 0.180172)
(0.279632 0.908004 0.331641)
(0.401102 0.571126 0.375938)
(0.18617 0.316614 0.374478)
(0.191482 0.282166 0.330523)
(0.0100932 0.180766 0.205288)
(-0.397674 0.878498 0.475016)
(-0.282417 0.624022 0.402281)
(-0.217925 0.452301 0.314897)
(-0.209885 0.331085 0.237989)
(-0.106764 0.218072 0.137118)
(0.0204948 0.0397403 0.212381)
(0.0165514 0.0353397 0.191908)
(-0.0047803 0.0871359 0.199474)
(-0.00647021 0.0773854 0.22155)
(0.0581623 0.0488093 0.215236)
(0.0599918 0.036686 0.190564)
(-0.0121615 0.10258 0.196168)
(-0.0149321 0.0897811 0.219)
(0.0520698 0.067897 0.212158)
(0.0682191 0.0552541 0.188841)
(-0.0406449 0.121604 0.188511)
(-0.0433917 0.106438 0.212902)
(0.110164 0.910275 0.371978)
(0.0422463 0.837786 0.353542)
(0.299492 0.564285 0.323054)
(0.195593 0.491368 0.275175)
(0.157066 0.346917 0.223962)
(0.103194 0.313165 0.217646)
(0.146781 0.264905 0.197864)
(0.114826 0.236234 0.196304)
(0.0032432 0.165983 0.165617)
(-0.0164258 0.146226 0.203975)
(-0.214532 0.793823 0.277548)
(-0.151949 0.657456 0.314478)
(0.00571893 0.564905 0.218371)
(0.0654674 0.463005 0.245473)
(0.0228365 0.414491 0.178558)
(0.0636124 0.35452 0.199559)
(-0.00635049 0.293229 0.157485)
(0.0301547 0.260701 0.181265)
(-0.0119642 0.199664 0.123573)
(-0.0196079 0.203717 0.188408)
(-0.166606 0.538923 0.196417)
(-0.177885 0.403834 0.158166)
(-0.380501 0.549127 0.134278)
(-0.239238 0.383494 0.0789347)
(-0.356005 0.7061 0.314113)
(-0.333881 0.505262 0.237698)
(-0.525713 0.724655 0.252047)
(-0.402121 0.503337 0.163978)
(-0.275633 0.437354 0.0932635)
(-0.165135 0.329195 0.0567297)
(-0.0939142 0.430442 0.138965)
(-0.117433 0.348841 0.124192)
(-0.448151 0.572073 0.1657)
(-0.191747 0.368223 0.0761029)
(-0.480524 0.579564 0.071635)
(-0.179169 0.374589 0.0395735)
(-0.602442 0.766351 0.227282)
(-0.390567 0.521508 0.133167)
(-0.642851 0.767795 0.0875367)
(-0.379697 0.528188 0.0603494)
(-0.331491 0.442417 0.125849)
(-0.120326 0.311324 0.0547056)
(-0.359492 0.451313 0.0596955)
(-0.104543 0.325597 0.0294464)
(-0.187684 0.311901 0.0675222)
(-0.142655 0.263347 0.0783061)
(-0.118981 0.218575 0.0738191)
(-0.211341 0.260755 0.121389)
(-0.0868416 0.314579 0.104007)
(-0.113699 0.27398 0.122069)
(-0.071869 0.221727 0.0875513)
(-0.174514 0.255379 0.156029)
(-0.206845 0.311382 0.083654)
(-0.12972 0.257102 0.0572127)
(-0.147212 0.213768 0.0542686)
(-0.243205 0.271696 0.0880055)
(-0.253358 0.327771 0.0332354)
(-0.11961 0.260972 0.0112551)
(-0.180322 0.221996 0.00527147)
(-0.236842 0.269251 0.0178126)
(0.017982 0.0648012 0.146416)
(0.0203217 0.0493748 0.0677886)
(0.0225961 0.0373707 0.0196781)
(-0.00413264 0.231275 0.148764)
(0.00394994 0.111643 0.0406019)
(0.00505354 0.083429 0.0109298)
(0.062986 0.0607334 0.147493)
(0.0677106 0.0536492 0.0732906)
(0.0697108 0.0439464 0.023051)
(-0.00480163 0.246203 0.149879)
(0.0161374 0.13146 0.0426915)
(0.0185868 0.102857 0.0120861)
(0.0772967 0.0766433 0.142885)
(0.097491 0.0763853 0.0726644)
(0.104816 0.0734515 0.0195945)
(-0.0222081 0.264952 0.14578)
(0.0282296 0.164099 0.0411844)
(0.0374903 0.138731 0.00991887)
(0.0108472 0.704946 0.24446)
(0.0344838 0.59555 0.138957)
(0.0303163 0.527874 0.0389202)
(0.130517 0.426587 0.186735)
(0.136558 0.370221 0.104868)
(0.123676 0.338089 0.030618)
(0.100095 0.293855 0.163251)
(0.111939 0.259643 0.0864203)
(0.106074 0.242097 0.0258017)
(0.110101 0.243936 0.142841)
(0.126296 0.212891 0.0710928)
(0.126161 0.197931 0.0181305)
(-0.00968826 0.311721 0.141782)
(0.0405698 0.216705 0.0382349)
(0.0370777 0.186353 0.00761843)
(-0.177373 0.523899 0.265731)
(-0.0915158 0.436154 0.144244)
(-0.0543667 0.383096 0.0466427)
(0.0197642 0.375927 0.210979)
(0.059707 0.315411 0.116924)
(0.0730981 0.282002 0.0390872)
(0.0349358 0.313223 0.173108)
(0.0723752 0.259263 0.09323)
(0.0817465 0.226491 0.0309485)
(0.0229895 0.282761 0.148365)
(0.0646868 0.232831 0.0656854)
(0.0728877 0.206641 0.0190913)
(-0.0467707 0.40665 0.151798)
(0.0259809 0.270484 0.0409883)
(0.0303476 0.235665 0.0134077)
(-0.0030165 0.205149 0.0571994)
(-0.000237887 0.114808 0.0204975)
(0.00053041 0.0711255 0.0100027)
(0.00110834 0.0493856 0.00225127)
(0.00239845 0.22776 0.0231214)
(0.00235507 0.122839 0.0086466)
(0.00281916 0.0737385 0.00447213)
(0.00226089 0.0509285 0.00133499)
(-0.00786434 0.199525 0.0583816)
(-0.000870058 0.113336 0.0215736)
(0.00162734 0.0710744 0.0115408)
(0.00303842 0.0499037 0.00347994)
(0.00541894 0.226026 0.0271511)
(0.00534924 0.123175 0.0110592)
(0.00590752 0.0748924 0.00691356)
(0.0048971 0.0519362 0.00305858)
(-0.0142248 0.189522 0.0656969)
(-0.00290878 0.111378 0.0252166)
(0.00114262 0.0727604 0.0146277)
(0.00478384 0.0504415 0.00529787)
(-0.00159165 0.219548 0.0443222)
(0.00351898 0.124247 0.0204154)
(0.00388448 0.0779915 0.0101784)
(0.00487122 0.0529039 0.00423192)
(-0.000354967 0.229046 0.0300693)
(0.00227559 0.128528 0.0166273)
(0.000863412 0.0770942 0.0057838)
(0.00117794 0.0535406 0.00144513)
(-0.00599634 0.234334 0.0291856)
(-0.00113713 0.132956 0.0176912)
(0.000390929 0.0789195 0.00811169)
(0.00159048 0.0544082 0.00373392)
(-0.0334769 0.200424 0.0521276)
(-0.0105217 0.117482 0.0225866)
(-0.00597415 0.075889 0.0109771)
(0.00126116 0.0518136 0.00212515)
(-0.0469945 0.169146 0.0486635)
(-0.0151848 0.106234 0.0205418)
(-0.0116186 0.0719745 0.0119963)
(0.0017665 0.0480018 0.00106507)
(-0.0274405 0.177123 0.067294)
(-0.00813876 0.107953 0.026434)
(-0.00388453 0.0732928 0.0157088)
(0.00419427 0.0488277 0.00462849)
(-0.038192 0.154823 0.0590809)
(-0.0122282 0.0998629 0.0229425)
(-0.010224 0.0694204 0.0147485)
(0.00201465 0.046017 0.00100622)
(-0.0307617 0.214165 0.0375935)
(-0.00998917 0.124342 0.0183323)
(-0.00536408 0.0775424 0.00827539)
(0.000946992 0.0532243 0.00163851)
(-0.0517104 0.178219 0.0363653)
(-0.0167419 0.111208 0.0170005)
(-0.0123837 0.0737206 0.00970017)
(0.00248812 0.0490294 0.00208094)
(-0.0321611 0.221808 0.0258654)
(-0.0111687 0.129216 0.0145867)
(-0.00491809 0.0793964 0.00768521)
(0.00197115 0.0540765 0.00378814)
(-0.0542244 0.183461 0.0237383)
(-0.0176524 0.114921 0.0130151)
(-0.0128809 0.0755746 0.00783513)
(0.00278434 0.0498114 0.00381193)
(-0.00260762 0.159649 0.0720584)
(-0.000416162 0.101451 0.0251476)
(-8.39758e-05 0.0675216 0.0129359)
(0.0008474 0.0468378 0.00160176)
(-0.00195674 0.114887 0.0727452)
(-0.000232831 0.0862306 0.0244007)
(-0.000499331 0.062903 0.0152024)
(0.000951912 0.0429451 -0.000758552)
(-0.00689504 0.155512 0.0712971)
(-0.00122394 0.100243 0.0252651)
(-8.07537e-05 0.0677112 0.0137965)
(0.00239268 0.0469394 0.0021163)
(-0.00322708 0.114585 0.069708)
(8.61662e-05 0.0861986 0.0234747)
(-0.000874739 0.0629899 0.0150774)
(0.00264798 0.0431225 -0.000672901)
(-0.0226516 0.149344 0.0709943)
(-0.0064705 0.0985328 0.0256135)
(-0.00331694 0.0685454 0.0157268)
(0.00323712 0.047098 0.0031936)
(-0.0167907 0.117351 0.062362)
(-0.0041704 0.0874963 0.0211233)
(-0.00335997 0.0635207 0.0147715)
(0.00428659 0.0436669 0.000146919)
(-0.00994374 0.143691 0.0652301)
(-0.00183876 0.0960213 0.0241349)
(-0.00094567 0.0680586 0.0164912)
(0.0049355 0.0469041 0.00541939)
(-0.00647223 0.118924 0.0684108)
(-0.000716699 0.0881964 0.0235009)
(-0.00185831 0.0650972 0.0184522)
(0.00449093 0.0441273 0.000897168)
(-0.0318554 0.136527 0.049776)
(-0.0096765 0.0935643 0.0184593)
(-0.0084494 0.0660331 0.012862)
(0.00435298 0.044112 0.00265443)
(0.00112628 0.0706279 0.0578693)
(0.000778509 0.0725207 0.0177264)
(0.000289788 0.0517434 0.011679)
(0.000938451 0.0159417 -0.0012136)
(0.00388716 0.0239076 0.022226)
(0.00161126 0.0654402 0.00626358)
(0.000764091 0.0467466 0.00363992)
(0.000666156 0.0148713 2.84687e-05)
(0.000892371 0.0758636 0.0574261)
(0.00142769 0.0745542 0.017921)
(0.00016394 0.0527377 0.0117802)
(0.00234213 0.0167469 -0.000933711)
(0.00966052 0.0311582 0.0228037)
(0.00416822 0.067747 0.00658204)
(0.00177411 0.0475361 0.00390153)
(0.00169963 0.0151529 0.000266096)
(-0.00200341 0.0844955 0.0544355)
(0.000868617 0.0777205 0.0173588)
(-0.000323871 0.0535785 0.0118959)
(0.0036369 0.0166637 -0.000392293)
(0.0136841 0.0427208 0.0222634)
(0.00604969 0.0715836 0.00662602)
(0.0026262 0.0484447 0.0041738)
(0.00254453 0.0152717 0.000580484)
(-0.00190607 0.0974605 0.0461437)
(0.00125169 0.0818937 0.0147914)
(-0.000424651 0.0553288 0.0112383)
(0.00475775 0.0178026 0.000280477)
(0.0154287 0.0574905 0.0197814)
(0.00717079 0.0765972 0.00584966)
(0.00279649 0.0501211 0.00437327)
(0.00284329 0.0159004 0.000975269)
(-0.00784627 0.116803 0.0404637)
(-5.45892e-05 0.0877287 0.0135959)
(-0.00303808 0.058263 0.0104322)
(0.00396327 0.019929 0.00120735)
(0.0100956 0.075409 0.0181006)
(0.00635172 0.0817964 0.00582741)
(0.00153388 0.0517902 0.00457791)
(0.00235914 0.0164198 0.00144352)
(-0.0311319 0.131696 0.0302202)
(-0.00497966 0.0950389 0.0120946)
(-0.00743903 0.0600825 0.00710062)
(0.00274095 0.0190601 0.00110551)
(-0.00850145 0.0790504 0.0159911)
(0.00137598 0.0885608 0.00724668)
(-0.000946969 0.0552981 0.00389052)
(0.00114835 0.0171682 0.00173013)
(-0.0191021 0.128668 0.0329576)
(-0.00182031 0.0917991 0.0116365)
(-0.00578349 0.0587496 0.0082949)
(0.00313219 0.0190703 0.0011312)
(-0.00081243 0.0793821 0.0163743)
(0.00392304 0.0859053 0.00623733)
(0.000111348 0.0534429 0.00421291)
(0.00171728 0.016722 0.00168295)
(-0.0411983 0.13224 0.0256802)
(-0.00883416 0.0973415 0.0120232)
(-0.00907958 0.0607526 0.00653308)
(0.00281407 0.0180672 0.0016311)
(-0.0134171 0.0773277 0.0151748)
(-0.00103043 0.0907868 0.00789317)
(-0.00181865 0.0564266 0.00388411)
(0.000831777 0.0171424 0.0020138)
(-0.0479897 0.131837 0.0187635)
(-0.0125357 0.0999124 0.0106337)
(-0.0106198 0.0625634 0.00611762)
(0.00255845 0.0184264 0.00309594)
(-0.0174477 0.0820428 0.0130956)
(-0.00363122 0.0934222 0.00787985)
(-0.00273142 0.0579861 0.00432605)
(0.000526874 0.0175011 0.00271239)
(0.000402901 0.0353808 0.000615924)
(0.000182969 0.0225717 0.000210996)
(8.42253e-05 0.0134609 8.91916e-05)
(4.04833e-05 0.00702185 4.28674e-05)
(2.41168e-05 0.00216665 2.59323e-05)
(0.000620023 0.0357521 0.000284528)
(0.00028997 0.0226601 0.000102682)
(0.000135912 0.0134903 4.47058e-05)
(6.64081e-05 0.00703316 2.1937e-05)
(3.98694e-05 0.00216969 1.35243e-05)
(0.000830022 0.0360069 0.000892105)
(0.000388151 0.0227654 0.000362626)
(0.000178836 0.0135424 0.000165589)
(8.6253e-05 0.00705567 8.18179e-05)
(5.19489e-05 0.00217583 4.97659e-05)
(0.00162032 0.0363416 0.000700191)
(0.000792894 0.0228922 0.000322765)
(0.000377198 0.0135955 0.000152183)
(0.000186645 0.00707807 7.57786e-05)
(0.000113098 0.00218208 4.61606e-05)
(0.00123878 0.0363057 0.00161693)
(0.000575784 0.0229598 0.000755273)
(0.000265715 0.0136318 0.000360714)
(0.000129127 0.00709334 0.000181793)
(7.83408e-05 0.00218609 0.000111623)
(0.00237922 0.0364921 0.00269352)
(0.00114133 0.0232179 0.00131874)
(0.000545158 0.0137564 0.000641129)
(0.000271976 0.00714848 0.000324169)
(0.000165905 0.00220178 0.000198707)
(0.000772001 0.0378039 0.00264321)
(0.00036771 0.0237072 0.00135447)
(0.00017761 0.0139928 0.000673171)
(8.94874e-05 0.00725421 0.00034442)
(5.48904e-05 0.00223179 0.000212866)
(0.000363098 0.0384221 0.00264655)
(0.000186278 0.0241416 0.00136462)
(9.16745e-05 0.0142224 0.000681081)
(4.65643e-05 0.00735972 0.000349701)
(2.8569e-05 0.00226201 0.000217082)
(0.00112065 0.0373901 0.00194287)
(0.000483862 0.0234422 0.0009665)
(0.00022412 0.0138512 0.000476956)
(0.000110173 0.00718844 0.000243579)
(6.66004e-05 0.00221277 0.000149494)
(0.000179162 0.0377105 0.00149362)
(6.14399e-05 0.0234953 0.000756157)
(2.49944e-05 0.0138621 0.000375927)
(1.116e-05 0.00719097 0.000193176)
(6.35432e-06 0.00221318 0.000118999)
(0.00184882 0.0364404 0.00206451)
(0.000831142 0.0231756 0.000986096)
(0.000388322 0.0137287 0.000477259)
(0.000192164 0.0071342 0.000242684)
(0.000116925 0.00219727 0.000149274)
(0.000445375 0.0372977 0.00147933)
(0.000177172 0.023336 0.00068704)
(7.90368e-05 0.0137882 0.000331842)
(3.79141e-05 0.00715808 0.00016912)
(2.24369e-05 0.00220374 0.00010366)
(0.000243213 0.0379811 0.00204804)
(8.24142e-05 0.0237317 0.00109635)
(3.31533e-05 0.0139954 0.000553266)
(1.48604e-05 0.0072538 0.000285299)
(8.55155e-06 0.00223148 0.000176636)
(0.000176113 0.0381714 0.00186952)
(6.84493e-05 0.0237675 0.000999848)
(3.00305e-05 0.0140007 0.000504977)
(1.43145e-05 0.0072542 0.00026073)
(8.52383e-06 0.00223136 0.000161426)
(0.000168831 0.0384474 0.00236649)
(6.25716e-05 0.0241842 0.00124409)
(2.65877e-05 0.0142432 0.000623982)
(1.22942e-05 0.00736873 0.000320974)
(6.89877e-06 0.00226455 0.000199198)
(5.83722e-05 0.0386894 0.00225274)
(9.18049e-06 0.0242013 0.00119527)
(1.47099e-06 0.0142407 0.000601404)
(-8.89861e-08 0.00736628 0.000309622)
(-4.95868e-07 0.00226376 0.000191832)
(0.000313165 0.0348409 0.000528934)
(0.000136126 0.022461 0.000182447)
(6.01529e-05 0.013427 7.6126e-05)
(2.79288e-05 0.00700937 3.63724e-05)
(1.62875e-05 0.00216333 2.19796e-05)
(0.00033579 0.0347227 0.000193667)
(0.000135841 0.0224001 7.20873e-05)
(5.8201e-05 0.0134057 3.06357e-05)
(2.66624e-05 0.00700142 1.49322e-05)
(1.54593e-05 0.00216122 9.25589e-06)
(0.000741708 0.035212 0.000680353)
(0.000313923 0.0226123 0.000263317)
(0.00013768 0.0134885 0.000117882)
(6.38733e-05 0.00703399 5.80935e-05)
(3.74469e-05 0.00216986 3.56329e-05)
(0.000790698 0.0350872 0.000216914)
(0.000309997 0.0225412 8.9149e-05)
(0.000132404 0.0134608 4.00727e-05)
(6.06635e-05 0.00702297 1.99224e-05)
(3.51587e-05 0.0021669 1.24962e-05)
(0.000960134 0.0357246 0.000808899)
(0.000384706 0.0228107 0.000365906)
(0.000166773 0.0135685 0.000172831)
(7.68141e-05 0.00706607 8.73636e-05)
(4.49616e-05 0.00217837 5.44027e-05)
(0.000997897 0.0358187 0.000411929)
(0.000388059 0.0227452 0.000185287)
(0.000167008 0.0135368 8.53053e-05)
(7.68059e-05 0.00705261 4.19965e-05)
(4.50605e-05 0.00217467 2.60598e-05)
(0.0013972 0.0364786 0.00176534)
(0.000597993 0.0230406 0.000831284)
(0.000273091 0.0136606 0.000397153)
(0.000133009 0.00710354 0.000202106)
(8.06733e-05 0.0021884 0.000125502)
(0.000726211 0.0366385 0.00089103)
(0.000293071 0.0229622 0.000414714)
(0.000128657 0.0136224 0.000195848)
(6.01196e-05 0.00708686 9.9035e-05)
(3.60149e-05 0.00218363 6.16544e-05)
(0.000827533 0.0368918 0.0019755)
(0.000365168 0.0232004 0.000884504)
(0.000169754 0.0137287 0.000417745)
(8.41196e-05 0.00713211 0.000210381)
(5.12595e-05 0.00219629 0.00012894)
(-0.0199693 0.451633 0.13266)
(-0.0256043 0.706147 0.230849)
(-0.0555063 0.470087 0.126435)
(-0.0735868 0.717422 0.224715)
(-0.0855394 0.500571 0.119748)
(-0.118958 0.735689 0.210167)
(-0.102466 0.536925 0.118363)
(-0.157342 0.775736 0.203087)
(-0.0968049 0.572144 0.126164)
(-0.149595 0.84734 0.226565)
(-0.0893637 0.502934 0.0760107)
(-0.126122 0.619046 0.103761)
(-0.0749541 0.526438 0.101877)
(-0.0947836 0.679475 0.154922)
(-0.112109 0.494839 0.0512435)
(-0.156779 0.603849 0.0626493)
(-0.121626 0.486908 0.0203139)
(-0.167698 0.598888 0.025011)
(-0.0255741 0.366759 0.391897)
(-0.00568469 0.0661452 0.0951744)
(-0.00125264 0.0146874 0.0220316)
(-0.00026908 0.00333295 0.00493104)
(-6.62852e-05 0.000592044 0.00125069)
(-0.00931265 0.437302 0.105178)
(-0.00367051 0.121662 0.0280911)
(-0.000364849 0.029878 0.00757102)
(-0.000112579 0.00683898 0.00171201)
(-4.86015e-05 0.00120409 0.000387239)
(-0.0826869 0.372072 0.386481)
(-0.0185045 0.0647889 0.0925961)
(-0.00410149 0.0141326 0.0212872)
(-0.000888029 0.00317977 0.00473193)
(-0.000220403 0.000561888 0.00119506)
(-0.0238023 0.442125 0.108864)
(-0.00507636 0.121369 0.0318184)
(-0.00103311 0.0294443 0.00788002)
(-0.000202243 0.00665683 0.00184338)
(-4.31467e-05 0.00116854 0.000467162)
(-0.14469 0.381546 0.368379)
(-0.0325693 0.0640376 0.086807)
(-0.00726411 0.0136364 0.0197561)
(-0.00158795 0.00303073 0.00436107)
(-0.000397842 0.000532334 0.001096)
(-0.0426217 0.452031 0.105707)
(-0.0103353 0.121562 0.0307094)
(-0.00232473 0.0289894 0.0075414)
(-0.000518108 0.00648281 0.00174565)
(-0.000127983 0.00113073 0.000438203)
(-0.204812 0.392118 0.339815)
(-0.0463801 0.062746 0.0785543)
(-0.0104536 0.0130389 0.0177299)
(-0.0023134 0.00287263 0.00390234)
(-0.000587364 0.000503452 0.000980838)
(-0.0603316 0.464618 0.101169)
(-0.0161564 0.121675 0.0286767)
(-0.00391254 0.0285955 0.00690103)
(-0.000919475 0.00635433 0.00157205)
(-0.000238885 0.00110588 0.000389281)
(-0.28088 0.397475 0.292019)
(-0.0654963 0.0611613 0.0665427)
(-0.0150949 0.012641 0.0150163)
(-0.0034056 0.00280217 0.0033205)
(-0.000880748 0.00049455 0.000840979)
(-0.0814037 0.473023 0.0928506)
(-0.0248888 0.121066 0.0251426)
(-0.00639838 0.028444 0.00591863)
(-0.00155062 0.00636057 0.00133224)
(-0.000413217 0.00111402 0.000327132)
(-0.366983 0.369645 0.159071)
(-0.0936523 0.0677951 0.0387812)
(-0.0228469 0.0155971 0.00908123)
(-0.00537975 0.0036836 0.00205876)
(-0.00143876 0.000674583 0.000531625)
(-0.0965867 0.414017 0.0476652)
(-0.0309407 0.120369 0.0121923)
(-0.00818305 0.0306703 0.00268869)
(-0.00201494 0.00727522 0.000563383)
(-0.000545692 0.00132554 0.000130773)
(-0.339219 0.383469 0.224718)
(-0.0838361 0.0654696 0.0532065)
(-0.0199341 0.0143319 0.0122251)
(-0.00459646 0.00327726 0.00273473)
(-0.00120849 0.000588556 0.000699758)
(-0.0921671 0.43885 0.0659093)
(-0.0301462 0.121366 0.0172673)
(-0.0079848 0.0296955 0.00398287)
(-0.00196374 0.00682332 0.000885448)
(-0.000527313 0.00121685 0.000216249)
(-0.379222 0.361533 0.0989821)
(-0.0980644 0.0692271 0.0247627)
(-0.0242356 0.0163973 0.00588778)
(-0.00577477 0.00395549 0.00134899)
(-0.00155948 0.000734504 0.000350623)
(-0.10022 0.403719 0.0306455)
(-0.0309351 0.119621 0.00804406)
(-0.00802923 0.0311562 0.00175656)
(-0.00195166 0.00754239 0.000353595)
(-0.000526611 0.0013954 7.89224e-05)
(-0.389088 0.356924 0.0363816)
(-0.100283 0.0677665 0.00922421)
(-0.0248952 0.0161225 0.00221391)
(-0.00596709 0.00392248 0.00051132)
(-0.00162052 0.000733475 0.000133726)
(-0.101263 0.398537 0.014577)
(-0.0312122 0.11785 0.00356187)
(-0.00807721 0.0309085 0.000747422)
(-0.00182362 0.00754359 0.000198773)
(-0.000520565 0.00140389 3.16617e-05)
(-0.0127347 1.51695 -0.0712862)
(-0.288399 2.14204 0.0151612)
(-0.282371 1.91033 0.17839)
(-0.157 1.42001 -0.159856)
(0.156646 0.78218 0.0408583)
(0.215428 0.82379 0.0436018)
(0.431776 1.24791 0.109781)
(0.569735 1.25789 0.134277)
(0.243005 0.849802 0.0914589)
(0.494983 0.913276 0.147761)
(0.0845155 1.3652 0.123721)
(0.290294 1.8345 0.186985)
(0.238067 2.02631 0.120203)
(0.401434 2.77005 0.156673)
(0.446077 1.02778 0.0572005)
(0.61877 1.13507 0.0831061)
(0.536395 0.824882 0.0613735)
(0.612864 0.808094 0.07152)
(0.306007 0.569495 0.0424922)