/*--------------------------------*- C++ -*----------------------------------*\
| =========                 |                                                 |
| \\      /  F ield         | OpenFOAM: The Open Source CFD Toolbox           |
|  \\    /   O peration     | Version:  2412                                  |
|   \\  /    A nd           | Website:  www.openfoam.com                      |
|    \\/     M anipulation  |                                                 |
\*---------------------------------------------------------------------------*/
FoamFile
{
    version     2.0;
    format      ascii;
    arch        "LSB;label=32;scalar=64";
    class       volScalarField;
    location    "1.2";
    object      gradTy;
}
// * * * * * * * * * * * * * * * * * * * * * * * * * * * * * * * * * * * * * //

dimensions      [0 -1 0 1 0 0 0];

internalField   nonuniform List<scalar> 
5712
(
13949.9
7668.23
24184.5
15897.1
23332
19924.6
34086.7
42547.5
52025.3
66281.7
27694.8
24433.5
17028.7
11784.7
11291.3
6434.63
22819.1
20044.4
20779.2
20254.6
26124.1
24641.2
30469.7
25818.5
8115.46
5561.06
4247.84
2934.25
11719.4
7436.03
6528.07
4239.14
23818.3
24933.5
21006.4
16544.4
16739.5
13343.2
14360.9
13773.2
19009.7
18803.7
39356.8
43491.7
27771.1
29546.5
20738.3
16346.3
20819.4
14552.5
8860.34
7711.18
6816.92
10789.6
3409.29
4823.33
9009.57
14277.7
5718.82
8071.08
9085.09
16989.1
6998.66
11895.8
2142.22
7920.47
342.173
5641.26
18942.7
22906.9
20272.7
22902.4
23742.9
23964
24611.3
23673.7
18432.5
22356.8
18135.4
21915.3
20491.2
22870.9
20196.9
22807.9
25032
23517.9
25180.6
23436.1
17411.5
22461.7
15913.6
22409.4
19786.5
21765.8
24901.7
35910.9
20796.5
25503.6
24847.2
39810.4
18684
19116.6
24706.9
33815
17954.2
17490.1
24655.6
32815.1
5543.08
7179.95
15238.3
25586.4
6549.15
7485.1
18610.8
28310.6
7642.96
8011.6
22477.1
31270.8
26271.9
28048.8
23026.8
21763.4
31229.9
28447.2
25287.6
22883.1
19884.8
35965.5
26038
24599.4
21296
23020.6
45825.1
1896.97
2510.87
5360.41
11501.9
2657.65
3769.56
6931.57
13069.8
3918.95
3780.6
9100.07
15096
27313.5
26468.2
23164.1
21496.8
20296.3
17407.9
15141.9
13038.5
12497.8
19070.1
24220.4
21289.1
22853.9
20869.9
19831.8
17816.4
17768.9
15291.7
14678.4
20426.7
23821.3
25166.2
24804.1
27068
23506.8
21503.9
24028.6
22859.5
22163.9
22261.7
21788
21453.8
25288.4
27760.8
25168.7
27562.7
24447.5
23891.9
24248.1
23786.2
21946
22074.5
22264
22275.7
19524.3
19161.2
13635.3
16343.5
19738.6
18880.7
14162.9
17157.4
18929.1
18836.3
13412.8
16244
19083.8
18613.2
13254.1
15808.8
2053.01
1588.47
1122.51
1077.86
875.048
858.409
3134.39
2053.08
1518.94
2548.68
2183.53
1799.37
3178.54
2828.38
2872.66
4609.23
3794.09
3323.7
24102.9
20191.5
17704.7
20511.7
18207.4
16554.6
14262.5
12961.9
12223.9
10561.2
9464.82
8871.36
7537.74
5163.68
3967.35
19081.1
16559.9
14917.3
19476.5
17085.8
15711.3
14798.8
12346.8
11066.3
10997.8
9104.8
8208.84
7722.07
5278.82
4069.42
29697.7
30422.5
31870.7
28949.7
29357.9
28949.8
35359.8
30029.6
18683
20194.6
18711.7
18192.6
24850.7
21490.3
24476.6
19069.1
26966.8
27885.4
22946.5
25482.7
29595.5
26308.9
30314.5
31630.1
32448.8
34981
25937.9
26719
22460.7
22214.9
25507.7
24712.3
16734
9590.64
15773.4
10600.1
16278.8
9402.31
15235.3
10277.2
14890.7
8689.08
14187.1
9760.82
13978.7
10130.1
13446.1
10105.2
22988.9
17715.3
22775.1
18038.3
25915.1
22808.9
26304
22681.1
20860.4
14005.5
21442.4
13393.8
23387.6
18229.4
24120.5
18261.6
27148.9
22702.5
27747.8
22696.5
20430.5
14271.7
20349
14315.1
12277.9
8480.85
10569.4
6939.83
11226.9
7583.4
9798.58
6359.51
12620.1
8983.8
10923.4
7269.12
12724.6
9297.18
11023.4
7453.5
2711.58
1462.79
5148.73
3067.21
2789.7
1662.62
5214.33
3342.27
3002.98
2176.38
5153.85
3775.64
13052.4
22282.9
8483.23
7718.29
5730.29
22700.1
14278.1
7915.36
7054.14
4519.15
21962.5
15600.6
11307.5
8277.13
5451.8
993.507
883.492
2178.4
1934.64
1220.23
917.149
2564.51
2244.53
1697.42
1381.35
3040.11
2660.94
22756.9
20944.6
14107.1
12284.2
8672.93
7829.12
6622.61
5905.85
4149.57
3655.65
19845.6
16436.4
14122.6
11575.1
10362.3
8862.99
7330.72
6517.52
4991.59
5092.93
13473.1
10095.8
13728.2
9587.35
17652.5
12631.6
18116.4
12583.4
10933.8
8229.86
10761
8721.02
14301.8
9205.57
14489.1
9364.73
19158.8
13037.7
19194.9
13204.7
11060.4
7783.1
11282.8
8139.92
7797.53
6583.67
5464.38
6518.88
7864.49
6849.5
5543.16
6384.48
7784.54
6427.56
5344.21
6792.39
8194.27
6524.29
5549.89
6731.28
1620.03
1234.37
934.268
5781.87
2791.08
2085.72
1518.33
1341.23
1098.66
6155.07
3286.49
2571.42
1916.08
1909.63
1836.29
6623.79
4102.48
3468.28
17623.7
14888.8
13196.8
10664.7
9255.52
8452.21
7346.38
6491.08
6052.43
6098.41
5322.28
4948.26
7793.02
5417.62
4658.82
13097.5
10903.9
9577.4
9398.18
7885.27
7050.06
7830.58
6481.58
5662.27
7069.02
5820.78
5166.02
10166.2
6762.1
5891.63
5128.73
2870.21
1778.14
1234.64
5693.99
3070.97
1843.46
1273.21
4988.12
2833.41
1776.86
1247.59
5650.64
3079.37
1872.31
1298.41
4738.04
2784.46
1819.01
1261.04
5488.71
3106.17
1949.79
1322.6
5726.14
3213.2
1927.35
1338.51
5858.35
3323.89
1972.99
1360.21
5010.59
2937.04
1897.23
1295.34
4228.66
2655.85
1799.36
1200.04
4428.08
2698.81
1832.32
1220.69
3870.57
2496.57
1735.51
1150.43
5354.13
3108.54
1938.56
1330.61
4455.47
2780.21
1843.02
1225.74
5545.19
3230.4
1984.91
1351.91
4586.52
2873.03
1889.36
1245.29
3991.23
2536.28
1688.04
1170.95
2872.18
2155.77
1572.58
1073.63
3887.8
2506.06
1692.78
1173.48
2864.63
2154.96
1574.75
1078.06
3733.6
2463.32
1713.64
1177.45
2933.78
2187.41
1588.02
1091.67
3592.27
2400.53
1701.47
1172.6
2973.09
2204.91
1627.43
1103.18
3413.19
2339.11
1650.83
1102.8
1765.7
1813.02
1293.59
398.542
597.691
1636
1168.67
371.782
1896.59
1863.85
1318.44
418.673
778.955
1693.67
1188.4
378.821
2112.39
1943.01
1339.46
416.593
1068.02
1789.59
1211.12
381.793
2436.51
2047.34
1383.22
445.065
1437.26
1914.93
1253.03
397.51
2920.07
2193.22
1456.57
498.224
1885.23
2044.91
1294.76
410.495
3292.4
2375.97
1502.06
476.502
1976.26
2214.02
1382.45
429.204
3216.7
2294.98
1468.74
476.758
1984.55
2147.63
1336.07
418.05
3305.99
2433.54
1518.81
451.679
1933.19
2269.67
1410.66
428.561
3295.93
2497.81
1564.08
460.66
2051.07
2335.56
1449.65
437.528
884.521
564.291
336.523
175.546
54.1662
893.803
566.502
337.259
175.829
54.2423
900.172
569.135
338.56
176.392
54.3958
908.541
572.306
339.887
176.952
54.5521
907.643
573.995
340.795
177.333
54.6522
912.301
580.447
343.909
178.712
55.0445
945.097
592.68
349.821
181.355
55.7947
960.552
603.54
355.561
183.993
56.5502
934.754
586.056
346.28
179.711
55.3192
942.762
587.382
346.553
179.774
55.3295
911.011
579.391
343.217
178.355
54.9318
932.444
583.401
344.706
178.952
55.0935
949.528
593.293
349.884
181.345
55.7871
954.284
594.186
350.017
181.355
55.7839
961.184
604.606
356.08
184.218
56.6139
967.236
605.032
356.017
184.157
56.594
871.021
561.525
335.676
175.234
54.0832
868.067
560.002
335.144
175.035
54.0304
880.301
565.307
337.213
175.85
54.2465
877.179
563.531
336.52
175.574
54.1724
893.116
570.267
339.213
176.652
54.4593
895.469
568.629
338.42
176.315
54.3667
911.966
576.016
341.516
177.588
54.7099
915.963
574.055
340.56
177.171
54.5909
922.296
580.01
343.217
178.303
54.9072
11290.8
17653.7
11752.2
17935.5
12514.3
18392.2
13423.1
19393.4
14303.6
21183.5
12573.4
15476.2
13160.9
16986.9
12371
15096.2
12172.7
14972.2
9168.98
1653.63
367.186
83.3238
14.8011
10932.5
3041.54
746.951
170.975
30.1023
9301.79
1619.72
353.315
79.4943
14.0472
11053.1
3034.22
736.107
166.421
29.2136
9538.64
1600.94
340.911
75.7683
13.3084
11300.8
3039.05
724.736
162.07
28.2683
9802.96
1568.65
325.973
71.8158
12.5863
11615.5
3041.88
714.887
158.858
27.6471
9936.88
1529.03
316.026
70.0541
12.3637
11825.6
3026.65
711.101
159.014
27.8506
9241.13
1694.88
389.928
92.09
16.8646
10350.4
3009.23
766.757
181.881
33.1384
9586.74
1636.74
358.297
81.9316
14.7139
10971.3
3034.15
742.386
170.583
30.4211
9038.33
1730.68
409.932
98.8872
18.3626
10093
2990.53
778.905
188.56
34.885
8923.1
1694.16
403.063
98.0619
18.3369
9963.43
2946.25
772.712
188.59
35.0972
37923.7
53551
47758.2
35500.4
19554.5
20594.7
31197.7
31447.2
21245
22831.9
34130
45862.4
50657.8
69251.3
25694.5
28376.7
20622
20202.3
14237.4
14683.1
3942.61
2652.31
476.381
340.339
419.682
345.79
453.746
3740.31
3607.86
2215.91
2879.69
2470.5
1068.55
1608.05
1311.07
833.648
964.475
768.441
3291.56
1722.1
948.844
866.08
1140.74
961.127
705.283
689.891
601.348
530.478
737.359
690.339
3460.05
2061.56
2207.19
1423.29
1129.76
1705.55
724.307
524.978
821.687
8100.1
8011.74
7754.7
8996.64
14765.4
5794.77
6282.46
6471.87
7252.97
8258.64
1238.38
1734.42
2088.83
2319.12
2434.43
892.946
1268.4
1545.57
1727.28
1817.58
1098.01
1552.32
1882.04
2094.39
2198.59
907.779
1290.4
1572.63
1756.68
1847.56
1182.97
1663.94
2009.74
2232.76
2343.01
8089.46
8339.69
7821.56
8385.08
13069.8
7539.06
7514.15
7086.43
7323.27
8538.39
4999.15
5602.82
5711.65
6025.5
6469.92
6097.64
6258.74
5966.86
5980.09
6437.72
5299.65
5564.65
5329.26
5300.25
5550.07
2616.84
3349.32
3751.03
4003.01
4152.56
3743.23
4429.25
4681.92
4891.38
5092.06
3117.61
3807.14
4102.01
4281.73
4405.26
2094.9
2786.21
3209.89
3465.15
3595.55
2382.78
3088.14
3484.63
3718.75
3843.63
1945.61
2616.23
3037.93
3289.39
3412.94
7262.49
7724.54
7448.01
8203.76
12911.2
4049.09
4838.62
5177.01
5564
5940.18
2364.58
3105.71
3550.57
3835.65
3996.27
2178.4
2901.64
3356.25
3651.05
3813.16
2798.44
3586.04
4034.81
4361.3
4578.12
2406.37
3178.49
3656.6
3982.51
4168.37
1801.49
2455.57
2895.36
3184.75
3336.17
1765.32
2413.25
2848.27
3126.81
3269.44
1551.06
2145.27
2550.85
2802.2
2924.39
1376.08
1920.22
2301.8
2542.97
2661.06
1875.64
2540.97
2972.53
3238.98
3373.25
1765.64
2411.99
2842.78
3113.86
3250.94
7370.41
7589.46
7381.54
8422.12
13505.3
4689.92
5391.05
5727.19
6329.89
7002.93
5410.58
6343.29
6439.09
7144.39
8028.42
3454.13
4322.53
4795.33
5241.19
5553.96
2801.02
3632.13
4123.53
4492.25
4713.67
4091.1
4937.71
5281.64
5738.03
6052.36
1847.82
2514.23
2958.51
3247.38
3398.02
1360.64
1896.69
2273.49
2514.42
2633.95
2077.69
2788.96
3246.16
3543.76
3703.85
20863
13676.8
22054.6
16769.2
26361.6
37963.7
28247.9
39710.2
22989.3
22262.5
20392.6
20930.4
23876
23474.7
29753.3
25144.5
16281.6
14611.7
7275.54
5865.08
18933.3
15359.6
10060.7
6819.22
24465.5
26864.4
22162.7
19571.9
23508.1
15643.5
14385.6
13845.4
19321.7
18910.5
39621.1
43669.4
27575.2
29535.6
21445.8
16542.2
21672.6
14743.5
9482.18
7839.43
15652.5
18926.1
6307.07
7701.61
16692.4
21094.4
8441.6
10761.5
14450.4
21357.3
8981.99
13978.2
2491.96
8672.15
370.308
5790.12
20085.9
21891.4
20405.2
22407.1
22708.5
22406.8
23945.9
22852.9
19339.1
22271.4
20786.3
21648.7
20526.8
22635.2
20198.2
22733.2
24725.5
23115.9
25101.3
23309.4
17749.2
22429.2
15984.4
22398.5
20571.9
22986
25176.3
36255.5
22069.7
27658.4
25300.5
40388.7
19066.6
19698.4
24848.2
34000
18059.7
17651.1
24698.6
32875.6
21029.9
23949.9
27958.1
39703.4
19977.4
21500.9
28805.8
39345.4
17301.8
17786.4
28959.4
37659.3
20274.7
21639.1
21344.4
22448.6
34042.2
21206.1
18969.3
22401.6
20666.9
39030.7
21352.9
20836.5
19890.6
23660.5
46717.3
14552.6
13734.6
12332.1
15712.2
14141.9
13516
12580
16249.1
12964.3
11658.2
12448.6
16339.5
20540
19593.2
18241.1
17152.9
20112.8
18176
16201.3
14224.4
13790.6
18569.3
20400.2
18743.7
19915.1
19102.3
18674.8
17142.8
18098.8
15417.5
14796.6
19063.2
22319.3
23847
23997
26255.3
21721.2
20232
23099.2
22146.2
21729.3
21743.4
21006
20649.8
24925.1
27411.5
25064.1
27462.2
24027.3
23592.6
24127
23699.6
21743.7
21824.7
22206
22206.6
19388.6
18888.6
13630
16171.6
19588.5
18504.6
14210.6
16793.3
18854.7
18691
13398.2
16156.4
19058.6
18567.6
13246.5
15779.5
13113
14176.8
5092.24
5212.35
12765.7
12795.5
5868.57
6091.67
10232.7
9853.79
6444.66
6224.83
18681.3
17418.5
17291.9
16809.5
15848.3
15106.5
11984.8
10839.7
8189.4
6241.4
18152.4
17073.9
19394.8
18141.5
15155.5
13582.9
11674.9
10253.4
7315.88
5523.63
24713.7
24397.1
29662
26186.5
26659
25450
35470
28678
19986.6
15445
21666.1
16713.4
20836.6
15480.6
22542.3
16684.4
23370.4
21303
20306.4
19424.2
21230.4
22822
28973.9
31232.5
31785.7
34790.8
24257.9
26211
21235.9
21867
23691.9
24170.6
12755.7
10099
13870.6
10514.7
12405.9
9841.37
13539.9
10220.1
11745.9
9074.44
12798.5
9660.26
13175.5
9990.2
13197.2
10047.3
18936.5
16591.5
20893.7
17252.5
22858.9
20893.9
24878.4
21617.3
18882.8
13642.5
17367.8
13156
22470
17786.3
23848.7
18114.8
26467.7
22160.8
27551.4
22524.1
19469.5
14018.4
20066.6
14223.6
11767.8
8686.69
10649.2
7304.2
10922.2
8339.88
10304.4
7172
12268.6
9014.89
10897.6
7428.98
12603.9
9290.49
11008.5
7507.69
10967.4
11151.9
9308.49
8917.56
10447.6
10783.2
8982.27
8604.74
9733.89
9965.77
8169.75
7754.59
16442.4
20919.7
14327.6
9998.17
7871.9
20323.3
17483.4
15643.1
10038.6
7424.02
20248.7
16254
12910.1
10237
7135.92
12295.5
14007.5
9284.4
10148.8
11607.7
12736.5
8759.5
9425.14
10350.1
10821.7
7547.01
7615.29
19431.4
17631.5
15460.3
13978.8
13946.2
13815.6
10085.2
10266.2
7249.44
7137.29
17989.6
15046.7
14389.7
11957.5
11949.9
10651.8
9531.44
8975.92
6742.43
7110.93
13281.9
10305.5
13570.3
9734.83
16585.6
12129.3
17515.8
12353.2
11136
8636.24
11257.4
9516.24
14173.6
9253.6
14440.6
9372.49
18850.2
12927.4
19100.2
13171.6
11092.5
7924.65
11267.6
8166.63
8183.88
7116.11
5913.82
7211.01
8756.32
7952.38
6489.12
7720.5
7918.49
6636.3
5544.24
7130.49
8236.54
6587.77
5625.81
6835.95
17307.3
17943.2
19801.2
16775.6
15126.6
15649.6
18542
15791.5
12346.6
12664.8
15972.1
13805.3
15907.8
14742.3
13247.1
12684.3
13809.2
13640.8
11176.3
10613.8
15098.5
13211.7
12403.5
11666.8
10335.4
10032.2
10167.9
9820.37
10312.3
9722.95
15766.1
13139.8
6292.8
3624.79
2197.34
1493.03
6467.79
3690.88
2219.21
1515.02
6051.65
3537.83
2161.49
1487.01
6310.36
3620.35
2199.73
1512.66
5650.89
3412.33
2159.22
1469.48
5979.88
3538.63
2224.43
1500.37
5998.91
3481.56
2113.07
1460.48
5945.31
3415.78
2035.18
1402.75
5474.72
3292.94
2119.32
1442.38
4663.68
2974.29
1989.87
1321.91
5240.85
3229.58
2131.37
1403.2
4600.49
2981.13
1999.51
1303.8
5590.94
3312.42
2072.42
1422.98
4686.01
2959.69
1961.22
1307.46
5614.81
3298.16
2031.64
1384.36
4660.76
2931.54
1930.17
1273.29
5934.4
3496.67
2175.05
1450.24
5409.67
3306.98
2130.39
1363.36
5657.29
3415.91
2153.26
1437.92
5145.16
3240.41
2106.67
1357.18
5256.6
3293.77
2138.91
1419.95
4777.51
3139.15
2066.05
1346.38
4863.23
3117.5
2066.17
1375.62
4522.97
3044.42
2045.48
1321.03
4509.82
2978.01
1982.36
1270.84
4539.78
3062.92
1828.2
528.597
3024.97
2906.31
1714.12
511.099
4357.77
3029.07
1827.84
547.506
2955.39
2876.2
1707.12
513.085
4092.14
2960.45
1791.57
530.428
2830.94
2822.05
1675.11
502.828
4056.23
2908.72
1788.44
553.556
2920.46
2781.36
1656.08
505.541
4100.91
2859.46
1796.11
598.072
3067.57
2729.86
1626.6
502.768
3697.15
2691.83
1716.65
548.895
2265.17
2522.54
1566.36
484.969
3945.82
2779.52
1753.22
564.674
2583.37
2628.25
1592.94
492.152
3501.18
2608.41
1650.72
497.549
2044.1
2437.57
1519.52
462.387
3346.4
2552.79
1607.87
476.098
2075.74
2387.5
1485.01
448.669
1049.07
650.982
379.386
194.814
59.6324
1048.11
649.892
378.874
194.595
59.5712
1056.53
649.581
378.098
194.138
59.4287
1047.71
646.859
376.956
193.653
59.2941
1051.32
647.049
376.53
193.357
59.1961
1024.74
640.381
373.695
192.141
58.8592
1017.4
629.98
368.498
189.817
58.2033
987.721
618.098
362.911
187.336
57.5037
1032.88
637.972
372.083
191.352
58.6272
1039.79
639.039
372.192
191.338
58.6157
1037.55
643.912
374.784
192.521
58.9507
1053.94
643.026
373.85
192.043
58.8092
1016.05
630.542
368.687
189.872
58.2146
1017.76
631.218
368.848
189.908
58.2197
983.494
617.197
362.512
187.152
57.4515
988.738
618.036
362.74
187.231
57.4729
1049.66
652.353
379.989
195.067
59.7025
1062.84
653.811
380.364
195.209
59.7411
1053.37
651.778
379.139
194.582
59.5518
1066.91
653.535
379.674
194.797
59.6121
1057.91
650.557
377.888
193.91
59.3462
1076.4
652.801
378.557
194.176
59.4205
1065.49
648.322
376.281
193.116
59.1091
1084.17
650.335
376.987
193.409
59.1884
1061.92
645.639
374.985
192.529
58.9413
13210.6
17795
13159.2
17742.9
13182.9
17703
13578.4
18348.2
14057.8
19766.7
12493.5
15287.7
13018.9
16519.5
12328.8
15012.2
12161.2
14950.1
9676.23
1696.53
371.311
83.6823
14.8166
11181.8
3089.79
753.687
171.668
30.1372
9659.98
1646.31
355.268
79.5435
14.0246
11148.7
3054.88
738.385
166.436
29.1634
9663.68
1602.73
339.595
75.3486
13.2273
11162.7
3017.86
720.297
161.069
28.0894
9725.78
1548.84
321.817
70.9863
12.4534
11282.1
2984.12
704.451
156.924
27.3477
9738.08
1498.3
310.47
69.0075
12.201
11389.1
2952.57
697.782
156.578
27.4804
9137.98
1673.87
385.231
91.079
16.696
10216.2
2969.44
757.202
179.825
32.7979
9422.5
1607.15
352.375
80.7513
14.5254
10711.3
2972.32
729.462
168.04
30.0222
8984.02
1718.73
407.038
98.2246
18.2481
10028.9
2969.4
773.343
187.282
34.6643
8906.76
1690.45
402.128
97.8398
18.2977
9945.11
2939.93
770.963
188.17
35.0238
37529.9
53578.4
47859.2
34303.3
25363.7
30609.5
25064.2
30558.2
28696.5
45562.6
31116
49743.6
52.4298
61.8881
82.9519
118.114
170.253
243.141
60.0658
69.8972
91.557
127.065
179.247
252.108
46.412
43.4595
55.64
52.4649
76.5966
73.1384
112.942
110.21
167.599
168.261
245.439
253.351
341.029
480.843
696.172
1049.47
1414.76
1714.95
351.507
486.825
668.667
895.06
1112.74
1260.53
140.082
204.629
255.836
291.19
309.228
165.156
240.838
300.617
341.72
362.625
220.994
321.4
400.122
453.899
481.134
313.941
454.924
564.383
638.547
675.913
451.12
650.576
803.505
906.127
957.551
641.5
919.103
1128.53
1267.57
1336.94
160.331
233.906
292.109
332.182
352.579
186.343
271.342
338.254
384.12
407.392
243.629
353.706
439.657
498.174
527.74
337.258
487.705
603.958
682.461
721.938
474.18
682.203
840.878
947.06
1000.23
663.952
948.762
1162.5
1304.2
1375
124.043
181.335
226.915
258.454
274.563
116.159
169.863
212.657
242.303
257.45
148.556
216.833
270.929
308.215
327.204
140.099
204.574
255.749
291.068
309.061
204.185
297.276
370.509
420.664
446.095
195.011
284.072
354.273
402.422
426.846
300.389
435.773
541.221
612.819
648.92
293.199
425.574
528.864
599.08
634.49
444.351
641.447
792.941
894.704
945.681
446.173
644.254
796.608
898.944
950.172
647.863
928.906
1141.2
1282.04
1352.15
668.74
958.776
1177.63
1322.49
1394.41
894.198
1269.22
1546.07
1728.03
1818.81
1248.74
1747.22
2104.09
2337.65
2455.79
1779.15
2430.76
2876.09
3173.38
3331.87
2611.15
3427.42
3946.66
4331.68
4569.05
3409.47
4286.18
4816.91
5293.32
5660.06
4035.01
4907.33
5417.94
5977.43
6470.44
920.008
1302.52
1583.68
1768.64
1861.33
1263.25
1765.87
2125.71
2361.95
2482.12
1714.83
2356.36
2800.97
3096.47
3252.59
2261.51
3041.66
3563.22
3923.82
4128.53
2769.36
3648.18
4220.21
4641.21
4903.51
3105.25
4034.52
4631.34
5095.73
5404.24
53.4339
65.0225
88.8027
127.614
184.581
263.506
61.1499
73.2603
97.6661
136.594
192.928
270.457
47.3303
44.3322
58.5808
55.2861
82.2432
78.6283
122.544
119.792
182.862
184.005
269.019
280.192
367.668
512.588
729.394
1075.59
1429.9
1719.44
374.285
512.608
694.452
916.442
1126.48
1265.21
142.76
208.565
260.816
296.914
315.333
173.601
253.338
316.457
359.949
382.104
236.763
344.769
429.78
488.073
517.676
339.579
493.006
612.833
694.491
735.804
489.873
708.34
877.262
991.548
1049.16
696.758
1001.88
1234.76
1391.11
1469.74
163.235
238.19
297.539
338.43
359.249
195.411
284.783
355.309
403.768
428.398
260.106
378.156
470.729
534.018
566.09
362.989
525.971
652.709
738.817
782.306
511.199
737.446
911.514
1028.96
1088.11
713.75
1023.44
1258.49
1415.98
1495.23
126.502
184.956
231.493
263.712
280.171
118.498
173.306
217.006
247.294
262.77
156.469
228.531
285.736
325.239
345.384
147.685
215.78
269.923
307.356
326.45
219.391
319.786
399.048
453.521
481.213
209.787
305.929
381.969
434.295
460.902
326.288
474.215
590.098
669.226
709.288
319.037
463.912
577.599
655.314
694.666
485.63
702.966
871.48
985.655
1043.21
488.771
707.801
877.825
993.083
1051.17
711.835
1024.7
1264.09
1424.94
1505.77
741.582
1067.93
1317.79
1485.63
1569.9
966.852
1378.93
1687.96
1894.12
1998.02
1336.18
1881.19
2279.76
2545.59
2681.6
1872.53
2577.81
3073.7
3412.01
3594
2688.51
3556.62
4128.34
4559.66
4825.2
3458.08
4373.16
4944.44
5459.86
5853.35
4050.77
4937.39
5463.62
6039.42
6544.43
982.129
1396.4
1705.27
1911.12
2015.15
1334.13
1874.28
2267.74
2529.98
2664.5
1786.67
2468.32
2950.2
3275.53
3448.56
2322.4
3139.25
3696.44
4086.9
4309.18
2809.52
3714.43
4312.69
4756.72
5033.29
3119.14
4057.87
4664.43
5137.68
5451.84
3933.15
2653.83
518.136
372.87
477.601
388.88
505.969
3608.84
3415.82
2252.81
2729.05
1170.54
1676.27
945.88
1102.81
878.314
3245.32
1777.84
1040.19
945.992
1215.81
1024.03
753.03
756.621
704.206
614.503
832.719
771.645
3436.6
2074.09
2214.78
1455.81
1178.07
1747.8
782.661
589.737
892.484
8101.4
8045.8
7820.89
9122.31
15012.9
5809.38
6320.31
6535.28
7349.41
8383.88
1353.22
1910.18
2319.27
2591.9
2730.64
981.451
1401.75
1717.88
1928.85
2034.97
1255.76
1790.32
2190.13
2455.77
2589.21
1024.71
1465.81
1798.4
2020.17
2131.48
1325.99
1881.42
2293.2
2566.82
2704.95
8098.43
8861.95
8865.04
10062.7
15971.9
7707.26
8520.1
8764.78
9853.71
12190.9
5269.9
6266.46
6779.63
7519.79
8310.92
6557.21
7686.24
8010.01
8811.24
10140.5
2946.78
3936.63
4594.22
5072.31
5369.06
4077.89
5154.47
5790.52
6368.06
6843.86
2424.04
3327.12
3955.88
4384.21
4620.12
2796.86
3778.69
4442.58
4908.48
5181.64
2263.88
3133.97
3748.5
4160.93
4380.88
7300.73
8046.52
8079.6
9214.09
14693.8
4266
5278.64
5858.56
6485.29
7035.22
2639.71
3570.87
4204.96
4653.2
4914.83
2411.9
3285.9
3889.24
4310.22
4548.48
3031.9
3993.91
4622.84
5111.48
5432.69
2592
3487.56
4089.67
4522.78
4773.63
1936.45
2669.67
3184.87
3536.02
3722.97
1953.4
2710.52
3248.82
3611.31
3802.32
1833.95
2577.87
3118.47
3476.94
3660.51
1605.59
2267.96
2754.24
3076.73
3240.45
2148.43
2978.83
3568.09
3964.33
4174.97
1995.26
2775.57
3332.95
3706.9
3903.52
7391.55
7721.32
7616.84
8813.65
14260.5
4746.32
5511.42
5916.5
6595.4
7329.6
5512.36
6614.14
6886.91
7801.71
8855.31
3560.38
4515.58
5081.08
5615.8
5983.8
2948.13
3884.24
4483.81
4949.51
5230.08
4256.25
5267.67
5788.25
6424.7
6856.91
2013.19
2777.41
3315.15
3680.75
3875.85
1538.85
2169.55
2631.47
2938.79
3095.46
2281.93
3120.74
3702.6
4104.83
4327.05
5794.74
5469.57
4963.44
4279.62
3230.39
1290.04
20725.6
22016.7
23223.4
24017
22191
22202.6
22205.3
22528.2
18443.3
22081.4
20816.1
21935.5
27808.4
19003.6
30904.2
19321.5
20676.5
21625.9
21966.6
21128.7
22233.3
21061.1
22078
19041.7
29274.7
21415.5
28342.6
28865
23333.3
35781.5
17776.3
18937.4
19382.2
19308.2
19740.8
21458.7
19371.5
21100.3
21420.1
27950.8
24010
27476.6
29939.1
26206.3
34036.5
16283.7
17334.4
17198.2
16903.9
18462
20774.2
17581.6
19895.4
19287.6
25420.6
21442.7
24080.9
26023.9
22838.4
30171
14849.3
15904.7
15498.6
15152.3
17295.1
19955.9
15902.2
18076.9
16895.4
20342.3
19029.9
18897
22300.1
18826.2
23707.9
13547.4
14559.7
14184.5
13837.7
15622.4
17645.2
14575.9
16355.4
14337.7
16044
16316.7
15387.6
19204.4
15400.4
20129
22857
22863.1
24085.2
25299
23287.8
23768.5
22910.7
23535.9
19298.2
12200.6
20390.4
12013.8
20411.4
16680.5
17247.4
21591.6
21922.5
22146.2
22798.1
22379.7
22967.3
21462.1
22277.5
16835.1
11963.4
17561.2
11674.1
17321.2
15450
15692.3
18556.7
18923.2
19436.2
19578.5
19540.6
20043
19307.4
20504.8
15107.5
12224.1
15925.9
11678.6
16331.8
13644.1
15804.3
15542.7
16044.6
16832.2
16676.5
16828.4
17317.6
17241.7
18506.2
12751.8
12423.7
13588.2
11729.2
14071.3
11844.2
15755
13513.2
14119.7
14926.5
14692.6
14994.5
15946.2
15354.6
16457.9
11402.4
12985
12546.8
12929.6
13597.8
12524.6
16933.4
11861.4
12540
13520.8
13257.3
13860.1
15248.1
13955.5
15276.7
10849.5
13674
12345.2
14243.9
13858.9
12923.3
18300.1
13646.2
7357.57
24165.8
15850.5
23327.7
19908.5
34081.2
42536
52021.2
66264.6
27702.5
24423.3
17036.2
11762.1
10913.6
6080.04
22813.7
20041.4
20773.1
20252
26120.3
24638.8
30464.8
25816.2
7927.72
5464.16
4114.97
2874.77
11709.4
7428.33
6528.2
4243.88
23812.5
24926.5
21003.3
16541.9
16735.4
13344.1
14359.1
13772.6
19008.3
18803
39354.8
43490.7
27769.7
29545.5
20737.8
16346.5
20818.9
14552.3
8860.29
7711.2
6699.48
10586.4
3334.17
4697.93
9014.44
14290.3
5729.57
8086.04
9088.03
16995.3
7002.9
11901.3
2142.82
7922.48
342.169
5641.93
18941.2
22906.2
20271.6
22901.9
23741.5
23963.2
24610.1
23673
18432.3
22356.7
18134.4
21915
20490.5
22870.5
20196.3
22807.6
25031.1
23517.3
25179.8
23435.6
17411.3
22461.7
15913.4
22409.4
19787.1
21768.1
24902.3
35912.2
20797.2
25506.6
24847.9
39812.1
18684.5
19118.1
24707.4
33816
17954.6
17491.1
24656.1
32816
5477.1
7131.04
15034.3
25408.2
6560.06
7497.1
18628.5
28333.9
7647.45
8016.16
22485
31277.9
26270.6
28047.9
23025
21764
31233.5
28446.2
25286.3
22880.9
19885.4
35969
26037.1
24598.5
21295.5
23021.7
45827.3
1870.02
2477.64
5299.03
11413.4
2668.87
3775.84
6945.97
13083.4
3922.92
3783.48
9106.28
15101.4
27312.7
26467.5
23163.1
21496.1
20295.1
17407
15143
13039.4
12500.9
19072.8
24219.8
21288.6
22853.3
20869.5
19831.5
17816.3
17769.7
15292.4
14679.8
20427.9
23820.8
25166
24803.8
27067.8
23506.3
21503.6
24028.2
22859.3
22163.8
22261.7
21787.9
21453.8
25288.1
27760.6
25168.5
27562.5
24447.2
23891.7
24247.8
23786
21946
22074.4
22263.9
22275.7
19524.6
19161.4
13635.7
16343.8
19739.1
18881.1
14163.6
17157.9
18929.3
18836.4
13413.1
16244.2
19084
18613.3
13254.3
15809
2011.99
1557.73
1103.18
1063.41
864.276
851.22
3137.12
2055.01
1521.24
2553.99
2187.68
1803.05
3179.92
2829.37
2873.51
4611.27
3795.53
3325.08
24102.4
20191.1
17704.5
20511.2
18207.1
16554.5
14262
12961.7
12223.8
10561.7
9465.04
8871.61
7538.8
5164.34
3967.92
19080.7
16559.6
14917.2
19476.3
17085.6
15711.2
14798.8
12346.8
11066.3
10998.2
9105.01
8209.02
7722.53
5279.1
4069.66
29702.4
30424.8
31874.9
28951.5
29355.7
28949
35356.6
30028.6
18531.3
20156.4
18520.5
18144.6
24873.6
21483.8
24504.6
19062.3
26972.8
27892
22949.1
25485.5
29595.3
26308.8
30315.1
31630
32448
34980.2
25939.9
26719.6
22461.6
22215.1
25508.5
24712.9
16715.3
9570.07
15750.7
10582.9
16275.6
9402.92
15232.4
10276.9
14889.6
8688.97
14186.3
9760.59
13978.9
10130
13446.4
10105.4
22989.8
17715.3
22775.7
18038.2
25914.6
22808.5
26303.4
22680.7
20861
14005.7
21443
13393.9
23387.7
18229.3
24120.4
18261.4
27148.3
22702.1
27747.2
22696.1
20430.9
14271.8
20349.2
14315.1
12278.3
8480.86
10569.5
6939.88
11227.3
7583.44
9798.76
6359.57
12620.4
8983.86
10923.5
7269.17
12724.8
9297.34
11023.5
7453.58
2699.16
1449.87
5133.9
3050.26
2792.2
1665.05
5215.53
3343.76
3003.84
2177.16
5154.17
3776.14
13052.3
22282.3
8483.39
7718.66
5730.48
22699.5
14277.9
7915.21
7054.31
4519.45
21962
15600.4
11307.6
8277.31
5451.89
977.987
867.607
2157.12
1920.99
1221.53
917.691
2565.78
2245.06
1698.01
1381.71
3040.61
2661.14
22756.3
20944.1
14106.7
12283.7
8672.49
7828.47
6622.57
5905.63
4149.82
3655.75
19845.1
16436
14122.4
11574.8
10362.2
8862.79
7330.81
6517.5
4991.69
5092.93
13472.9
10095.7
13728.1
9587.25
17652.2
12631.3
18116.1
12583.3
10933.8
8229.81
10761
8720.94
14301.7
9205.48
14488.9
9364.62
19158.5
13037.5
19194.6
13204.6
11060.4
7783.05
11282.8
8139.86
7797.57
6583.66
5464.4
6518.87
7864.55
6849.49
5543.21
6384.51
7784.56
6427.54
5344.22
6792.38
8194.27
6524.26
5549.91
6731.28
1596.89
1215.73
919.93
5745.74
2766.25
2064.43
1517.71
1341.06
1099.01
6159.39
3289.99
2574.36
1916.37
1909.84
1836.44
6625.27
4103.78
3469.49
17623.1
14888.3
13196.5
10664.1
9254.99
8451.77
7345.61
6490.42
6051.91
6098.11
5321.94
4947.96
7793.73
5418.31
4659.51
13097.2
10903.6
9577.18
9397.89
7885.02
7049.83
7830.36
6481.37
5662.08
7068.96
5820.69
5165.95
10166.5
6762.46
5892.06
5127.71
2871.11
1778.08
1234.04
5691.97
3071.18
1843.18
1272.12
4986.58
2833.03
1776.74
1247.46
5649.51
3079.24
1872.29
1298.35
4737.38
2784.24
1818.92
1260.96
5488.17
3106.02
1949.73
1322.54
5725.88
3213.09
1927.31
1338.48
5858.29
3323.85
1972.97
1360.19
5010.38
2936.95
1897.18
1295.3
4228.6
2655.8
1799.33
1200.02
4427.82
2698.7
1832.26
1220.65
3870.5
2496.52
1735.47
1150.4
5354.02
3108.48
1938.53
1330.58
4455.44
2780.19
1843
1225.72
5545.18
3230.38
1984.9
1351.9
4586.53
2873.03
1889.36
1245.28
3989.91
2537.1
1688.23
1170.66
2867.84
2155.19
1572.58
1073.39
3886.37
2505.7
1692.63
1173.33
2863.76
2154.82
1574.58
1077.96
3733.03
2463.12
1713.54
1177.38
2933.55
2187.36
1587.96
1091.63
3592.09
2400.46
1701.42
1172.57
2973.03
2204.89
1627.4
1103.16
3413.14
2339.07
1650.8
1102.78
1760.69
1812.45
1293.94
398.784
592.948
1634.61
1168.33
371.662
1897.27
1864.29
1318.52
418.757
780.196
1694.17
1188.62
378.901
2112.67
1943.17
1339.5
416.627
1068.6
1789.84
1211.23
381.832
2436.65
2047.4
1383.23
445.075
1437.56
1915.04
1253.07
397.525
2920.12
2193.22
1456.57
498.224
1885.37
2044.94
1294.77
410.499
3292.38
2375.95
1502.04
476.495
1976.27
2214.01
1382.44
429.2
3216.7
2294.96
1468.72
476.752
1984.59
2147.63
1336.06
418.048
3305.98
2433.53
1518.8
451.675
1933.19
2269.66
1410.66
428.558
3295.94
2497.81
1564.08
460.659
2051.07
2335.56
1449.65
437.528
883.903
564.034
336.419
175.505
54.1549
892.854
566.181
337.124
175.772
54.2266
900.105
569.113
338.555
176.393
54.3967
908.512
572.288
339.884
176.954
54.5538
907.608
573.988
340.799
177.339
54.6546
912.276
580.437
343.909
178.715
55.0464
945.078
592.673
349.821
181.357
55.796
960.54
603.536
355.561
183.995
56.5512
934.731
586.048
346.28
179.714
55.3206
942.74
587.374
346.553
179.776
55.3306
910.982
579.383
343.219
178.359
54.9335
932.418
583.392
344.706
178.954
55.0948
949.511
593.286
349.884
181.347
55.7882
954.268
594.18
350.017
181.357
55.7848
961.174
604.602
356.08
184.22
56.6148
967.227
605.028
356.017
184.159
56.5948
870.577
561.307
335.59
175.201
54.0743
867.644
559.8
335.063
175.006
54.0233
880.236
565.284
337.208
175.851
54.2479
877.128
563.501
336.507
175.572
54.1733
893.077
570.256
339.214
176.656
54.4615
895.43
568.613
338.417
176.317
54.3686
911.933
576.006
341.516
177.592
54.7116
915.927
574.044
340.56
177.174
54.5926
922.267
580.001
343.217
178.306
54.9086
11254.3
17612.2
11753.5
17939.3
12515.5
18394.1
13423.9
19394.4
14304.1
21184.2
12573.6
15476.5
13161.3
16987.3
12371.2
15096.5
12172.9
14972.4
9158.62
1646.15
365.317
82.8979
14.7264
10919.1
3036.6
745.672
170.671
30.049
9299.03
1617.01
352.398
79.2475
13.9995
11050.8
3031.28
734.939
166.08
29.1446
9537.22
1599.98
340.527
75.6511
13.284
11299.9
3037.64
724.092
161.864
28.2243
9802.39
1568.3
325.811
71.7603
12.574