/*--------------------------------*- C++ -*----------------------------------*\
| =========                 |                                                 |
| \\      /  F ield         | OpenFOAM: The Open Source CFD Toolbox           |
|  \\    /   O peration     | Version:  2412                                  |
|   \\  /    A nd           | Website:  www.openfoam.com                      |
|    \\/     M anipulation  |                                                 |
\*---------------------------------------------------------------------------*/
FoamFile
{
    version     2.0;
    format      ascii;
    arch        "LSB;label=32;scalar=64";
    class       volScalarField;
    location    "1.2";
    object      gradTz;
}
// * * * * * * * * * * * * * * * * * * * * * * * * * * * * * * * * * * * * * //

dimensions      [0 -1 0 1 0 0 0];

internalField   nonuniform List<scalar> 
5712
(
8148.49
24692.3
6204.69
26944.9
3382.1
28404.7
5700.55
44619.9
9282.68
55937.5
9565.01
39919.7
10244.7
35584.8
10119.7
30666.7
4722.3
2668.53
14314.6
6917.43
4391.88
2058.34
15284.1
6202.66
6293.98
4746.44
18535.3
13806.8
4220.25
3417.74
18630
14366.8
9539.71
3507.54
7400.61
2789.29
3434.79
9001.54
44005
13378.3
13302.2
6009.74
52967.3
16486.2
12221.5
5564.98
29471.3
9788.42
15070.9
6793.26
24277.4
7684.12
6462.31
3480.01
10390.5
4272.65
5913.42
3641.79
10873.9
4188.17
7747.7
4897.53
6933.36
2991.28
11867.4
4347.06
4633.09
1733.64
14919.6
11538
8840
8110.05
15845.2
13998.1
8486.69
9091.42
8487.14
7545.32
11602.2
10192.9
6409.54
5613.93
3566.21
3091.55
6146.3
6153.82
3339.93
3359.37
6313.31
5125.56
3554.62
2568.68
7456.55
4239.7
7698.84
8296.99
10334.5
7820.65
11332.3
14476.2
5261.73
2298.43
4820.54
4885.75
2880.62
1032.61
2141.33
1850.06
7912.5
15533.7
5615.39
17471.4
8571.58
15621.1
6663.76
18459
10979.9
15261.5
9097.49
18537
11127.3
12316.4
9459.06
9676.46
11269.6
8139.98
9803.32
14009.1
16718.6
24095.3
11120.9
9777.86
9848.74
12448.5
19129.5
19391.4
18859.4
22636.6
23002.8
18777.1
18845.7
22564.5
22645.2
17060.7
17763.1
21411.1
21792.6
10221.2
10916.5
10852.9
11580.9
13391.1
13770.5
16024.4
15940.9
20546.8
21076.1
9244.88
10345.8
10999.9
12280.6
12751.1
14395.3
15061
17114.4
20003.2
22372.4
10884.5
7460.03
8725.44
8579.87
11712.4
12909.2
9467.1
12135.7
8315.23
8237.18
10692.6
7745.03
3811.91
6134.27
1455.92
2216.51
5813.71
8891.87
2147.35
3229.15
3390.73
5580.88
1211.38
1992.23
8129.25
6867.57
8472.98
5410.06
11563.9
8366.97
13357.7
9125.95
3925.26
4343.47
4827.87
2822.98
2843.36
3012.07
3151.97
2374.9
16581.1
11026.4
3669.22
17950.7
11418.6
3970.87
16222.7
10743.8
3725.61
17786.3
11347.7
3885.79
15325.1
10014
3378.64
17289.7
11101.5
3840.65
8086.63
4820.71
1364.08
10215.4
7019.16
2304.95
12176.5
8550.36
2902.39
13770.7
9100.99
3022.75
16545
10604.8
3753.87
8655.04
4926.57
1674.15
9382.93
6215.23
2223.33
10957.2
7342.79
2582.02
13071.4
8494.07
2955.42
15754.1
9413.31
3310.03
-543.699
964.96
347.682
2616.82
1926.66
1907.83
4931.72
4275.48
605.098
931.321
640.532
976.054
322.963
890.38
598.46
1307.97
1715.83
1076.54
3691.25
2664.79
1638.24
2613.85
2893.22
503.729
6260.91
1752.75
-4690.7
-1155.8
375.713
298.396
-393.24
-364.96
9871.45
4013.11
2591.53
1428.93
9703.33
4036.49
2802.59
1666.18
9286.79
4328.23
3630.15
2354.52
2728.65
1603.11
1249.52
1089
13402.7
11646.4
5753.7
7376.79
15766
14684.5
7600.12
9092.97
4939.95
5982.18
10857.1
8826.08
3529.08
4703.7
1844.55
2571.26
4964.18
5812.32
2679.37
3155.7
2643.55
3845.43
1291.21
2202.81
4182.76
2696.17
4710.21
2828.49
7415.97
3955.52
6408.07
3741.1
2330.7
1765.59
3192.83
1886.06
1123.6
1004.67
1923.17
1108.38
11257.9
6884.19
5082.99
4882.97
11155.1
6903.18
4977.11
4767.46
11266.3
6718.37
4998.57
4422.56
13472.8
13693.9
11971.2
8736.56
4504.3
8291.02
9398.45
9361.95
8263.06
5132.21
11875.4
10057
7872.43
5949.72
3427.95
5309.52
4797.7
4986.86
5538.74
5380.89
4764.1
4904.19
5474.99
5303.95
4721.04
4712.78
5322.56
9299.45
8838.55
8076.35
6879.36
5599.05
5441.16
4946.59
4907.6
4140.41
5099.39
6938.69
7861.96
5459.29
6136.84
4463.96
4988.98
3937.13
4531.63
3089.31
4710.19
4910.41
3954.14
3356.94
1973.37
7852.82
5942.45
6301.16
4099.44
2331.59
1418.24
3474.13
3104.81
4142.49
1902.57
1790.87
989.338
5682.05
3329.16
2188.42
1508.73
3146.23
1367.64
1492.39
736.16
1688.06
1957.65
1845.48
3034.71
2600.17
3051.74
2188.78
3900.73
2091.35
1430.32
1356.71
2200.14
830.885
281.378
131.787
445.314
3660.41
1694.72
491.953
3719.09
1015.05
273.245
3687.32
1832.26
576.275
3746.97
1067.29
302.152
3572.12
1816.61
489.863
3644.51
1029.61
247.972
6111.5
3473.92
973.005
4668.38
2621.7
765.451
4081.28
2160.51
645.041
3571.03
1777.32
453.262
3544.55
955.871
190.461
6643.27
3606.1
1166.07
5274.47
2923.1
977.181
4327.69
2330.75
773.714
3709.14
1642.14
477.283
3794.95
1024.71
335.192
1429.98
512.438
250.067
56.2817
578.035
216.165
111.803
33.3748
1459.54
539.341
288.519
86.9984
678.777
276.481
172.839
76.4645
1642.42
630.416
365.692
132.447
1108.05
510.386
254.459
105.798
751.733
415.684
144.595
36.1283
729.64
442.28
202.792
93.348
1303.19
564.664
274.426
53.1288
1216.59
513.545
299.907
26.6268
1682.35
660.851
392.72
115.712
1477.02
573.563
368.712
25.1556
939.837
458.306
206.885
40.9628
909.132
425.011
242.504
52.0235
646.634
364.667
192.13
94.7036
593.457
325.376
195.878
95.2982
1801.46
628.691
323.397
40.0441
1818.63
610.017
380.06
-18.9638
1782.43
631.627
344.913
52.9075
1742.7
586.867
376.935
-16.8225
1774.86
640.338
393.17
79.84
1559.05
528.083
369.288
3.67297
1630.75
603.372
412.28
135.485
1710.27
587.524
461.305
22.4292
1244.4
461.482
321.55
66.3607
1446.73
443.16
291.974
-30.3399
555.65
156.59
90.998
0.711716
1435.65
448.025
294.505
-23.3428
570.091
164.551
97.5382
6.6524
1360.89
433.97
297.397
-9.80732
556.586
165.65
104.345
14.5121
1153.59
369.784
280.957
7.01192
494.536
146.241
109.332
24.3817
1011.59
339.898
260.805
30.1837
452.514
145.685
114.448
36.0881
755.506
302.365
177.515
27.6376
399.778
181.167
97.2631
43.2532
823.941
290.912
207.372
28.28
409.359
155.933
105.323
42.0738
642.005
300.581
163.327
40.7775
379.369
197.329
97.1026
50.3449
469.089
265.844
152.94
77.3985
327.39
196.996
108.151
67.8097
15.3981
5.27491
2.22979
1.07168
0.648307
7.1132
2.56705
1.11764
0.548426
0.338107
22.3026
9.06566
4.13974
2.04545
1.24415
17.5048
8.06913
3.80457
1.89446
1.15402
40.4232
18.8818
9.01786
4.54482
2.79059
67.3381
32.9685
16.0282
8.10422
4.96767
66.0802
33.8617
16.8293
8.6105
5.32164
66.1637
34.1156
17.027
8.74253
5.42705
48.5716
24.1625
11.9239
6.08948
3.73734
37.3404
18.9039
9.39817
4.8294
2.97496
51.6127
24.6524
11.9315
6.0671
3.73185
36.9831
17.176
8.29605
4.228
2.59149
51.2009
27.4088
13.8316
7.13248
4.41589
46.738
24.9962
12.6244
6.51826
4.03565
59.1622
31.1024
15.5995
8.02434
4.97994
56.3184
29.8817
15.0351
7.74056
4.7958
13.2234
4.56117
1.90315
0.909309
0.549489
4.84168
1.80218
0.765892
0.373306
0.231397
17.0088
6.58293
2.94704
1.45234
0.890822
5.42285
2.22873
1.00182
0.498059
0.312404
20.2225
9.14765
4.32076
2.18409
1.36007
10.2982
4.63218
2.13263
1.04991
0.651495
44.1335
20.7821
9.92882
5.05264
3.13754
22.2757
10.3678
4.89619
2.47588
1.54136
49.3876
22.1126
10.4436
5.25953
3.2235
3316.49
5771.21
3160.86
5617.87
2993.71
5254.17
2959.07
5077.18
3154.11
5664.13
1900.27
2594.02
2546.93
3873.06
1281.09
1566.23
507.848
625.275
9797.43
2379.36
550.79
123.276
31.2673
2629.46
702.278
189.276
42.8002
9.68098
9662.03
2314.9
532.18
118.298
29.8765
2721.61
795.459
197.001
46.0846
11.6791
9209.47
2170.18
493.902
109.027
27.4001
2642.67
767.735
188.535
43.6413
10.9551
8495.38
1963.86
443.248
97.5585
24.5209
2529.22
716.918
172.526
39.3014
9.73203
7300.49
1663.57
375.408
83.0126
21.0245
2321.26
628.566
147.966
33.306
8.17831
3976.79
969.529
227.031
51.4691
13.2906
1191.63
304.808
67.2172
14.0846
3.26933
5617.94
1330.16
305.628
68.3683
17.4939
1647.73
431.682
99.5718
22.1362
5.40623
2474.55
619.067
147.195
33.7247
8.76557
766.139
201.101
43.9141
8.83988
1.97306
909.541
230.605
55.3477
12.783
3.34314
364.426
89.0466
18.6855
4.96932
0.791543
-1782.15
379.029
4459.74
-3996.39
1021.46
1090.04
2744.53
3356.92
2286.47
3694.02
3093.03
4674.62
3005.08
3916.82
1430.01
2077.65
1534.34
1788
1062.3
1100.91
2859.02
2144.34
-31.6573
-527.124
-582.539
-800.529
-283.258
12854.5
4047.4
4689.12
3835.97
657.217
361.095
3540.1
-497.968
-24.046
-381.988
-93.5185
6295.2
3451.27
1877.41
1049.02
3384.84
1768.27
435.671
681.668
-644.186
-560.217
1091.77
984.589
9475.32
4503.38
4715.5
2679.64
3356.73
3532.6
385.407
-533.969
667.147
1929.12
1622.86
1348.01
1171.36
819.367
1671.64
1309.07
1021.14
722.467
275.518
-32.6696
-29.6989
-21.6289
-11.73
-3.50045
-467.897
-388.191
-288.914
-177.639
-59.8768
-518.365
-430.952
-320.826
-197.017
-66.3802
-712.316
-592.47
-441.609
-271.617
-91.5882
-249.148
-203.807
-148.321
-88.9481
-29.5718
9210.73
7962.17
6363.61
5425.42
4523.86
3470.67
2654.41
2195.1
1676.82
701.271
3732.9
2865.07
2241.75
1631.72
691.447
2915.07
2183.77
1685.51
1176.5
427.89
524.736
365.828
307.516
218.049
97.539
356.103
327.512
270.13
182.575
64.9091
2888.86
2244.94
1671.91
1101.56
402.014
-262.87
-94.8751
-18.9132
6.63705
3.1556
-3.64342
17.1786
31.7421
31.7157
13.6498
-246.532
-132.096
-58.4546
-19.9302
-4.51077
-95.9945
-86.5834
-64.131
-36.7078
-11.2944
4195.75
3878.51
3167.73
2852.86
2566.04
2784.98
2125.94
1664.45
1183.43
439.302
1647.97
1365.05
1046.73
680.231
239.022
902.814
734.12
555.438
357.599
124.811
2802.39
2193.19
1619.79
1037.76
365.999
1550.22
1267.6
953.844
600.944
198.309
373.033
302.308
229.213
147.898
51.1046
599.294
495.469
374.726
237.025
80.936
-554.788
-444.12
-318.448
-189.712
-62.863
-492.18
-402.07
-292.567
-175.53
-58.3118
947.24
774.061
580.159
366.474
126.583
854.832
698.484
523.207
329.836
113.444
6127.28
4742.21
3946.52
3507.06
2639.55
3455.99
2659.38
2046.14
1440.44
569.094
3638.13
2933.83
2333.76
1790.26
714.22
2107.54
1688.61
1300.75
897.13
376.239
2837.76
2264.63
1686.92
1074.63
371.616
2896.79
2057.61
1584.5
1094.79
235.853
335.525
276.296
212.433
138.04
47.5654
-474.052
-391.774
-288.045
-174.117
-58.0838
586.65
484.968
372.265
240.35
81.5968
-33180.5
-51386.9
-25227.7
-43614
-26524.6
-60560
-34763.9
-73691.5
-18964.5
-12946.3
-20778.6
-11419
-17565.3
-11703.8
-20825.8
-10144.4
-27659.4
-19677.3
-37891
-27583.8
-21877.2
-16218.6
-32561.4
-24607.7
-16623.7
-17164.1
-11796.2
-11684.7
-14476.9
-15004.2
-48500.8
-14909.1
-15756.8
-7537.9
-56646.6
-18052.8
-14279.5
-6983.09
-34212.4
-11264.6
-17471.4
-8175.85
-28950.1
-8794.4
-13480.1
-5761.79
-18257.8
-6895.13
-11784.9
-5298.82
-16858.8
-6054
-12295.2
-6006.14
-10366
-4001.19
-14429.1
-5162.32
-5633.92
-2098.21
-12128.4
-9016.63
-9868.61
-7533.15
-10416
-9014.9
-8714.67
-7681.62
-9925.15
-7469.7
-11608.8
-9372.47
-7371.49
-5536.57
-4357.6
-3177.06
-6654.55
-5635.82
-3853.12
-3143.05
-7446.74
-5275.25
-4415.03
-2790.04
-8893.59
-4728.33
-7772.53
-8227.71
-11665
-8208.54
-11093.8
-14075.9
-6271.52
-2654.07
-4991.81
-4921.11
-3602.83
-1297.39
-2341.63
-1914.45
-11991.8
-15385.3
-6924.34
-17568.7
-11918.1
-15004.6
-7595.12
-18175.5
-13209.7
-14474.6
-9470.66
-17785.8
-7488.04
-4724.19
-9622.1
-11185.7
-11459.8
-6628.45
-9352.99
-14012
-16231
-23058.7
-6172.05
-7168.31
-8731.65
-11761.6
-18336
-16306.4
-13394
-20461.9
-16986.8
-15803.9
-13700.2
-20470.8
-17112.1
-14440.7
-12808.4
-19334.4
-16979
-9395.31
-8748.88
-9751.62
-8812.94
-11265.4
-10128.9
-13119.8
-11711.1
-18481.8
-17000.9
-7667.27
-8369.43
-8829.43
-8818.69
-10332.7
-10299.2
-12693.3
-12811.7
-18243.1
-18110.8
-9145.88
-6236.32
-7704.66
-7653.05
-9318.68
-11273.2
-7934.81
-10756.2
-7695.17
-7579.6
-9537.93
-6745.77
-3218.33
-5508.14
-1035.63
-1758.33
-4844.08
-7980.25
-1459.61
-2565.28
-3043.4
-5156.8
-970.231
-1682.76
-7742.11
-6395.67
-8173.74
-5049.04
-10753.9
-7499.2
-12735.7
-8293.07
-3706.46
-4060.44
-4647.61
-2618.59
-2680.43
-2798.66
-3020.45
-2222.39
-9757.1
-3762.24
-10587.5
-3687.17
-9981.44
-3757
-11095.6
-4090.98
-9613.68
-3552.47
-11940.2
-4711.07
-5049.84
-1281.31
-6189.63
-2232.01
-7314.59
-2846.56
-8899.96
-3362.85
-11897.9
-4617.75
-5946.34
-1136.55
-5598.87
-1943.51
-6581.09
-2448.87
-8488.96
-3152.26
-10904.1
-3623.21
-7121.31
-6852.04
-4914.24
-4608.39
-11424.1
-9094.46
-9015.51
-7105.05
-5807.71
-5121.91
-2272.82
-1790.73
-5476.69
-5076.5
-2027.12
-1852.98
-3075.74
-6202.77
-4260.51
-7448.69
-5011.68
-2523.05
-3807.58
-1222.68
-7684.48
-2911.08
3728.09
754.407
-620.823
-454.76
591.278
733.033
-2615.63
-1238.65
-1069.12
-377.079
-2663.52
-1397.9
-1230.67
-409.962
-2965.1
-1675.92
-1551.62
-380.842
-1482.82
-4.37891
-172.837
577.844
-5676.44
-5539.61
-4301.41
-4757.63
-8377.53
-8071.49
-6875.88
-6821.71
-2841.6
-3423.23
-4344.39
-4071.74
-3027.35
-3304.41
-1591.04
-1608.52
-4949.89
-4773.45
-2836.96
-2543.45
-1620.57
-2266.53
-594.84
-993.073
-1761.96
-909.436
-2513.62
-1256.4
-2719.84
-1671.82
-3000.06
-1804.29
-893.729
-326.972
-1646.19
-572.596
-34.9029
291.158
-623.147
91.9272
-2782.32
-2572.11
-2029.24
-2996.86
-2894.21
-2758.12
-2136.71
-3076.9
-3454.16
-2922.23
-2425.56
-3033.18
-2684.46
-3331.96
-3001.79
-2638.91
-1990.92
-5069.59
-3929.93
-3366.68
-3675.51
-3312.17
-5262.94
-3860.23
-3031.31
-2511.83
-1572.44
-3249.1
-3959.84
-5034.07
-8598.01
-3163.83
-3402.52
-4709.91
-7961.24
-3289.47
-3852.83
-4328.96
-7092.98
-8237.48
-7078.39
-6303.18
-5425.25
-4092.46
-4367.64
-3837.8
-4475.94
-3716.58
-6333.71
-5587.02
-6378.55
-3885.81
-4857.86
-2912.51
-3926.72
-2717.32
-3899.21
-2046.28
-4906.8
-2570.11
-2644.26
-1589.02
-685.5
-5256.3
-4527.61
-4493.94
-2760.86
-747.447
-267.622
-1579.49
-2001.55
-2812.49
-931.312
-727.718
-200.111
-4416.52
-2335.31
-1256.23
-732.245
-1882.32
-495.38
-401.315
6.47467
-438.238
-1125.02
-979.284
-2646.34
-1210.78
-2327.18
-1368.66
-3796.93
-1012.54
-731.927
-442.697
-1702.61
195.86
385.626
771.127
102.582
-3291.8
-1098.31
-6204.3
-822.746
-2895.33
-1236.11
-5838.34
-815.004
-2681.43
-829.093
-4761.68
-346.4
-3917.49
-924.283
-3170.21
-801.114
-3206.48
-980.205
-2678.81
-472.774
-4288.11
-310.082
-4603.68
-708.632
-3783.49
-629.749
-3419.42
-690.147
-3098.84
-327.107
-4344.22
-431.359
-550.726
-189.093
-115.829
17.455
-181.499
-59.649
-45.3836
-1.68378
-542.725
-171.307
-123.481
9.49101
-105.923
-14.6395
-44.969
-6.57634
-600.403
-168.951
-132.976
27.4389
32.9157
96.3269
113.729
145.444
396.19
263.494
273.885
223.1
606.762
389.351
296.462
182.322
-310.706
-30.9848
43.0784
157.542
-281.481
3.43855
-8.05519
168.087
-674.409
-175.505
-127.037
91.2291
-523.493
-94.3912
-122.879
162.192
33.6276
118.507
142.237
176.319
-18.3066
108.408
79.7594
157.773
335.764
248.442
193.948
143.84
272.469
216.057
143.931
127.718
-856.379
-288.981
-199.092
46.4951
-1120.18
-335.243
-317.626
107.676
-840.275
-271.874
-207.975
44.1681
-1091.63
-320.827
-313.817
105.494
-845.185
-253.802
-241.573
30.2081
-994.322
-284.262
-305.91
86.6842
-599.183
-138.08
-198.864
43.5002
-946.028
-241.573
-346.53
110.245
-437.186
-79.5568
-122.072
137.068
-1073.66
-255.685
-260.235
98.6659
-465.318
-93.427
-75.2033
21.3974
-964.372
-224.542
-247.144
95.4599
-430.894
-84.3024
-74.3551
19.1853
-792.602
-168.035
-232.002
82.2468
-362.735
-63.9487
-70.6427
17.1003
-630.379
-122.208
-209.201
65.1478
-309.969
-51.4854
-71.9493
12.5402
-430.636
-66.7706
-151.31
65.9649
-178.027
-15.5576
-52.5454
17.1554
-183.833
22.8498
10.8979
120.312
75.8579
87.5529
54.5955
68.5868
-362.478
-52.8529
-82.0998
86.4024
-33.8315
34.9261
-2.84541
38.7259
32.6857
114.299
81.4485
133.133
152.427
134.946
96.5204
86.7415
245.983
195.951
121.209
110.708
227.374
171.741
108.229
82.7293
8.30567
3.87445
1.82503
0.918597
0.568928
3.8323
1.84101
0.870159
0.433125
0.263226
15.9016
7.44305
3.56254
1.80966
1.12982
14.7115
6.89213
3.37159
1.73192
1.08617
35.9053
16.0992
7.69922
3.89609
2.42327
60.3015
29.1933
14.2801
7.30283
4.57059
64.8275
31.6209
15.4259
7.84871
4.88085
67.8798
33.4727
16.4969
8.43146
5.23832
49.11
22.4273
10.697
5.40432
3.38121
41.4689
17.7655
8.3292
4.17235
2.60167
47.1712
20.8506
9.91883
4.98908
3.10395
32.1126
14.1606
6.71527
3.36406
2.10321
57.7312
26.8756
12.8931
6.51063
4.04707
53.8235
24.5693
11.738
5.92201
3.68873
62.7086
30.8259
15.1559
7.73372
4.80187
60.5681
29.8571
14.6589
7.47258
4.64291
8.92812
3.33686
1.51202
0.754045
0.465336
4.34163
1.25725
0.535234
0.257469
0.152776
12.3166
5.15154
2.39184
1.1978
0.736426
5.3326
1.71675
0.750653
0.365547
0.216476
18.9485
7.47504
3.42775
1.69646
1.02996
9.25025
3.78923
1.81203
0.927856
0.566363
38.2424
16.0056
7.54904
3.75495
2.2979
17.9544
7.65595
3.66515
1.83555
1.11776
36.4074
17.0192
8.25484
4.17953
2.60568
-3425.88
-5243.14
-3288.43
-5146.92
-3066.86
-4819.97
-2940.11
-4627.88
-2959.19
-5029.72
-1742.78
-2387.99
-2371.96
-3529.19
-1134.48
-1422.86
-375.105
-510.308
-9967.27
-2400.92
-552.919
-123.338
-31.2144
-2642.12
-707.157
-190.167
-42.8677
-9.67065
-9765.26
-2325.33
-532.595
-118.111
-29.7853
-2741.82
-801.536
-197.813
-46.1316
-11.6653
-9197.36
-2162.62
-491.624
-108.456
-27.2503
-2654.33
-770.453
-188.679
-43.5766
-10.923
-8380.06
-1940.52
-438.622
-96.6521
-24.3202
-2509.81
-713.052
-171.573
-39.0697
-9.67418
-7142.16
-1634.56
-369.989
-82.0005
-20.8103
-2263.74
-618.476
-146.08
-32.9419
-8.10098
-3896.76
-952.037
-223.416
-50.756
-13.1356
-1129.75
-291.94
-64.7264
-13.6178
-3.1732
-5492.49
-1305.05
-300.75
-67.4445
-17.2987
-1580.94
-419.615
-97.3763
-21.7323
-5.3242
-2424.07
-607.297
-144.607
-33.1896
-8.64466
-713.402
-188.391
-41.1739
-8.28757
-1.852
-873.865
-221.881
-53.3234
-12.3463
-3.24058
-318.518
-76.9393
-15.8558
-4.36451
-0.653303
144.477
-2213.02
-6596.32
1251.18
-7526.35
-3328.64
-7387.49
-3439.01
-12687
-6922.93
-14802.3
-8061.25
-79.5238
-277.581
-429.172
-500.409
-434.829
-180.605
-128.804
-440.656
-673.612
-764.361
-635.189
-201.596
-60.0805
-55.8628
-194.143
-178.858
-248.204
-240.228
-164.721
-182.421
-87.3148
-136.081
-159.645
-145.3
498.592
1581.45
3105.46
2485.51
2239.27
1015.97
640.204
1859.39
3157.87
3540.24
3028.28
1336.36
-71.5569
-60.3161
-45.5657
-28.3217
-9.60323
-250.024
-211.03
-159.653
-99.3526
-33.71
-386.436
-326.027
-246.554
-153.389
-52.0393
-450.256
-379.56
-286.808
-178.323
-60.4778
-391.08
-329.491
-248.796
-154.58
-52.4001
-163.738
-139.024
-105.474
-65.5949
-22.2136
-115.787
-97.483
-73.5592
-45.6823
-15.483
-396.52
-334.283
-252.613
-157.071
-53.2708
-605.77
-510.327
-385.406
-239.545
-81.2303
-686.56
-577.625
-435.718
-270.605
-91.7305
-569.798
-478.703
-360.648
-223.805
-75.84
-181.879
-153.664
-116.225
-72.2404
-24.4857
-54.1087
-45.6638
-34.5389
-21.4879
-7.28895
-50.3464
-42.5239
-32.1916
-20.0416
-6.80116
-174.982
-147.818
-111.925
-69.6945
-23.6528
-161.259
-136.275
-103.223
-64.2943
-21.8235
-223.631
-188.846
-142.939
-88.981
-30.1925
-216.448
-182.772
-138.336
-86.1133
-29.2201
-148.501
-125.511
-95.0691
-59.2021
-20.0867
-164.234
-138.563
-104.782
-65.1775
-22.1049
-78.9266
-66.899
-50.7503
-31.5988
-10.71
-122.237
-102.85
-77.5486
-48.1186
-16.295
-143.768
-121.197
-91.3517
-56.5468
-19.0994
-130.317
-109.382
-82.205
-50.841
-17.1813
439.345
362.737
270.18
167.099
56.6592
1386.53
1140.08
848.295
525.684
178.62
2685.7
2185.93
1625.92
1016.51
348.383
2132.18
1749.8
1315.59
836.423
298.944
1930.44
1583.33
1189.02
751.831
259.698
902.661
754.178
571.1
359.082
121.999
565.215
467.383
348.256
215.219
72.9128
1635.49
1348.46
1004.05
621.425
210.906
2758.1
2262.12
1682.83
1045.12
356.213
3075.39
2517.09
1875.27
1170.67
402.172
2624.29
2145.1
1600.17
1001.94
344.214
1167.9
962.841
723.677
455.207
156.5
134.608
335.948
493.208
571.238
513.532
279.266
209.35
524.653
761.101
849.409
708.05
256.54
99.729
86.7463
234.736
211.661
287.492
273.605
195.32
207.882
121.299
131.733
260.705
177.919
-376.742
-1410.51
-2803.75
-2101.54
-1791.73
-531.423
-598.317
-1797.52
-3013.35
-3280.09
-2646.58
-875.525
121.497
102.816
77.9976
48.6457
16.5253
302.995
256.139
194.1
120.956
41.0738
444.571
375.575
284.428
177.159
60.1428
514.629
434.498
328.86
204.747
69.4927
462.696
390.689
295.707
184.095
62.4783
253.489
215.679
164.207
102.54
34.8318
188.845
159.688
121.051
75.4555
25.6251
472.778
399.259
302.262
188.223
63.8916
685.247
578.121
437.271
272.119
92.3403
763.919
643.714
486.364
302.46
102.604
636.158
535.48
404.228
251.253
85.2175
231.885
196.387
148.966
92.8379
31.5206
90.0494
76.2393
57.8624
36.0995
12.2648
78.336
66.33
50.3471
31.4129
10.6726
211.801
179.16
135.849
84.6918
28.7627
191.011
161.599
122.552
76.4112
25.952
259.284
219.222
166.148
103.541
35.155
246.745
208.591
158.069
98.4962
33.4411
176.288
149.208
113.194
70.5835
23.9674
187.378
158.323
119.914
74.6892
25.3501
109.887
93.4063
71.1125
44.4319
15.0951
118.714
100.286
75.9328
47.2768
16.04
235.738
199.828
151.681
94.5455
32.0866
160.353
135.425
102.477
63.7592
21.6257
-328.957
-268.804
-198.482
-122.16
-41.3593
-1232.02
-1009.02
-748.651
-463.478
-157.478
-2411.67
-1952.03
-1447.07
-904.508
-310.229
-1774.53
-1436.31
-1068.74
-677.611
-244.816
-1507.42
-1207.73
-888.382
-554.021
-189.966
-442.013
-342.136
-238.339
-137.82
-43.4842
-527.469
-435.559
-324.22
-200.288
-67.8465
-1580.16
-1302.25
-969.544
-600.232
-203.767
-2627.37
-2151.21
-1598.56
-992.621
-338.406
-2836.09
-2310.06
-1714.51
-1068.46
-367.184
-2269.78
-1835.09
-1356.41
-844.832
-289.727
-738.142
-585.024
-424.779
-261.359
-89.0147
-2185.94
-1555.97
366.489
803.451
866.915
1212.3
726.91
-10721.8
-2056.44
-3420.88
-1493.81
404.107
-3942.58
704.842
2021.54
609.743
-5325.88
-2359.28
-897.854
-519.803
-2996.16
-1027.75
-64.1996
-143.575
1376.31
1235.55
-620.636
-497.94
-8710.51
-3955.38
-3885.75
-2057.5
-2900.58
-2582.29
227.066
1210.65
-38.7986
-1227.73
-968.787
-781.883
-754.237
-648.433
-1097.75
-786.108
-588.799
-425.732
-167.324
337.887
291.262
222.824
138.73
46.9547
719.727
603.986
454.922
282.447
95.728
778.072
653.957
492.746
305.782
103.658
1086.63
912.161
686.797
426.113
144.419
654.559
552.166
417.134
259.2
87.976
-7441.21
-6661.02
-5531.11
-5146.46
-4937.51
-1438.69
-893.543
-817.592
-766.25
-324.752
-2555.9
-1862.71
-1473.63
-1150.3
-528.828
-1011.71
-681.127
-588.373
-479.194
-152.944
360.196
299.291
222.013
135.583
46.3672
-3211.3
-2505.09
-1880.74
-1251.91
-458.932
628.224
522.977
389.135
238.583
80.1264
1734.34
1397.87
1033.19
645.803
223.592
548.496
460.642
344.474
211.162
70.6164
-3317.97
-3130.55
-2609.71
-2567.82
-2649.73
-1746.74
-1203.96
-933.849
-709.766
-272.762
-726.381
-558.074
-414.214
-273.145
-96.9197
-413.183
-309.449
-225.662
-147.848
-52.5496
-2466.25
-1920.68
-1425.71
-927.209
-331.763
-859.217
-660.941
-475.839
-291.888
-89.7216
-31.5881
-6.79697
0.262083
-1.96069
-0.87182
-104.783
-68.0955
-43.2577
-26.1826
-8.32895
1220.95
1014.16
757.829
468.833
159.029
1106.58
927.697
697.03
431.569
146.209
-517.825
-406.856
-298.397
-188.676
-65.6437
-410.02
-316.73
-229.405
-144.266
-49.8591
-5419.36
-4131.15
-3474.33
-3240.52
-2628.87
-2942.09
-2204.81
-1685.4
-1207.9
-490.014
-2829.12
-2228.57
-1763.06
-1417.95
-571.352
-1525.4
-1175.84
-895.474
-636.877
-290.552
-2418.45
-1902.71
-1406.7
-897.013
-309.874
-2017.01
-1268.55
-961.74
-693.341
-80.5159
227.584
210.86
165.816
102.685
35.3397
1087.97
915.284
689.32
427.121
144.682
-2.44072
25.8878
28.4301
17.113
7.85309
-78.5239
-180.48
-244.327
-326.319
-476.37
-657.448
-23582.1
-19503.9
-18097.6
-21621.6
-16728.1
-12988.1
-15166.9
-11619
-21147
-16954.8
-17901.5
-15304.8
-15475.2
-11974.6
-14637.3
-19995.4
-17573.5
-15444.2
-17516.8
-14938.5
-11661.4
-13123.6
-9891.69
-19579.2
-16608
-17687.8
-15556.4
-15310.8
-12788.3
-14891.3
-15671.4
-14381.4
-12453.8
-13558.7
-12542.1
-10413.8
-11051.1
-9423.72
-16218
-14978.6
-15391.4
-14482.2
-14021.6
-12151.3
-13879.3
-10831.7
-10389.8
-8906.41
-9282.8
-9617.45
-9000.48
-8447.07
-8317.01
-11769.9
-13031.6
-11407.4
-12561.7
-10904.8
-9968.99
-11991.6
-6976.61
-6861.7
-5748.87
-5859.53
-6746.81
-6814.84
-5640.32
-5770.26
-8187.34
-10013
-8054.46
-9406.48
-7967.83
-7756.88
-9020.68
-2544.7
-2525.36
-2073
-2099.08
-2535.32
-2658.09
-2032.58
-2016.22
-3312.12
-4199.99
-3243.32
-3742.4
-3248.73
-3239.23
-3588.6
-8526.77
-8514.98
-12261.5
-13525.9
-8479.65
-7958.57
-11365.7
-9452.62
-7555.84
-4606.85
-7652.91
-4544.03
-7679.91
-7755.12
-4638.57
-8115.91
-7879.1
-11325.6
-12262
-7550.98
-6566.45
-10256.6
-8344.96
-5375.99
-1767.93
-5274.93
-1997.48
-4442.85
-4252.62
-2333.07
-6840.06
-6656.44
-9555.98
-10115.7
-6582.14
-5942.19
-8881.86
-7847.65
-2919.98
-1626.53
-2831.24
-2189.77
-2668.04
-2928.2
-2816.99
-5051.18
-5003.24
-7030.45
-7234.27
-5050.91
-4856.84
-6836.17
-6605.95
-2952.91
-1525.78
-3091.21
-2363.3
-3255.98
-3767.86
-3167.08
-3178.02
-3153.97
-4505.02
-4575.43
-3053.16
-2983.86
-4430.55
-4316.65
-1736.34
-1169.37
-1880.12
-1880.44
-2253.32
-2701.71
-2473.29
-1092.21
-1086.82
-1603.32
-1622.23
-1070.83
-1093.97
-1572.8
-1512.15
-388.906
-507.467
-523.631
-860.991
-791.942
-1000.27
-1045.16
8053.57
24188
6193.49
26958
3377.23
28409.9
5698.16
44618.5
9278.72
55932.8
9556.27
39916.5
10229.5
35579.8
9986.93
29958.6
4720.14
2668.12
14316
6917.76
4390.46
2057.9
15283.2
6202.32
6217.5
4688.55
18191.6
13552.5
4210.47
3413.57
18646.3
14386.4
9545.64
3505.76
7402.01
2789.1
3434.8
9010.1
44008.4
13378.7
13303.1
6009.67
52967
16485.7
12221.4
5564.68
29479.2
9789.92
15072.9
6793.7
24288.6
7686.03
6413.05
3437.44
10187.6
4182.57
5918.17
3642
10892.1
4192.45
7750.61
4898.08
6939.27
2993.14
11874.1
4349.27
4634.74
1734.25
14919.5
11538
8840.15
8110.14
15845.4
13998.2
8486.61
9091.43
8487.77
7545.54
11602.3
10193
6409.81
5614.02
3566.07
3091.48
6146.26
6153.83
3339.77
3359.32
6314.04
5125.77
3554.68
2568.67
7457.89
4240.27
7699.16
8297.14
10335.4
7820.93
11332.6
14476.2
5262.96
2298.93
4820.81
4885.91
2880.93
1032.76
2141.37
1850.1
7919.26
15573.7
5593.7
17509.8
8578.4
15611.1
6666.63
18448.9
10980.9
15257.8
9097.26
18533.4
11127.4
12316.7
9459.21
9677.52
11269.4
8140.05
9803.2
14008.6
16717.4
24093.5
11121.1
9777.91
9848.78
12448.6
19129.3
19429
18879.1
22682.3
22984.1
18769
18842.5
22556.4
22649.8
17057.4
17761.3
21408.5
21793.5
10221.2
10916.3
10852.6
11580.6
13390.3
13769.9
16022.5
15939.9
20545.6
21076.2
9244.82
10345.7
10999.7
12280.4
12750.7
14394.9
15060.5
17114.1
20003
22372.4
10884.4
7459.99
8725.42
8579.85
11712.4
12909.1
9467.09
12135.6
8315.24
8237.22
10692.4
7745.02
3811.94
6134.28
1455.91
2216.5
5813.72
8891.84
2147.36
3229.15
3390.78
5580.92
1211.38
1992.23
8129.32
6867.63
8473.04
5410.08
11563.8
8367.01
13357.8
9125.98
3925.33
4343.52
4827.92
2822.99
2843.38
3012.09
3151.99
2374.9
16581.9
11018.5
3673.38
17937.8
11404
3964.36
16218.7
10741.6
3724.23
17787.7
11347.5
3885.26
15323.8
10013.1
3378.23
17290.4
11101.5
3840.49
8086.49
4820.61
1364.04
10215.2
7018.97
2304.88
12176.1
8550.06
2902.28
13770.1
9100.62
3022.61
16545.3
10604.8
3753.79
8654.92
4926.48
1674.11
9382.74
6215.08
2223.27
10957
7342.61
2581.95
13071.2
8493.93
2955.35
15754.1
9413.21
3309.95
-545.652
964.306
342.875
2615.93
1925.21
1907.22
4928.83
4274.68
594.992
928.396
628.533
969.269
325.495
892.266
601.272
1309.67
1719.06
1078.17
3691.72
2665.06
1640.05
2617.18
2892.85
504.059
6260.54
1752.66
-4689.26
-1154.31
376.106
299.268
-390.883
-363.156
9857.52
4011.73
2587.28
1425.66
9701.5
4037.64
2802.1
1667.82
9285.85
4328.45
3630.84
2355.81
2729.94
1604.3
1251.01
1089.95
13403
11646.5
5753.58
7376.83
15766.4
14684.7
7599.94
9092.97
4940.08
5982.23
10856.9
8825.97
3529.1
4703.79
1844.87
2571.48
4964.06
5812.33
2679.41
3155.78
2643.9
3845.61
1291.77
2203.12
4182.95
2696.5
4710.25
2828.54
7415.52
3955.33
6407.82
3740.86
2331.23
1766.1
3193.04
1886.26
1124.3
1005.17
1923.51
1108.65
11257
6893.65
5088.42
4889.93
11152.7
6900.21
4975.54
4761.86
11264.4
6716.62
4997.31
4420.11
13473.2
13694.4
11970.8
8735.58
4503.62
8291.18
9398.5
9361.45
8261.86
5130.8
11875.6
10057.1
7872.23
5949.31
3427.53
5313.91
4795.21
4989.73
5533.25
5378.77
4762.56
4898.72
5472.73
5302.68
4720.33
4710.49
5321.53
9299.51
8838.5
8076.32
6879.27
5598.77
5440.94
4945.99
4907.19
4139.31
5098.82
6938.73
7861.91
5459.31
6136.78
4463.83
4988.86
3936.85
4531.42
3088.8
4709.87
4910.49
3954.15
3356.99
1973.39
7852.93
5942.45
6301.21
4099.45
2331.59
1418.24
3474.07
3104.77
4142.55
1902.61
1790.97
989.393
5682.08
3329.18
2188.47
1508.77
3146.3
1367.68
1492.52
736.224
1688.02
1957.62
1845.43
3034.66
2600.01
3051.64
2188.57
3900.59
2091.42
1430.34
1356.78
2200.16
831.021
281.446
131.922
445.385
3655.03
1691.01
491.859
3717.14
1016.13
273.335
3686.33
1833.53
576.838
3746.35
1068.4
302.689
3571.84
1816.98
490.063
3644.19
1029.82
248.115
6111.42
3473.86
972.984
4668.31
2621.68
765.441
4081.18
2160.53
645.057
3570.82
1777.36
453.273
3544.36
955.926
190.495
6643.2
3606.04
1166.05
5274.41
2923.05
977.162
4327.61
2330.71
773.699
3709.01
1642.08
477.252
3794.83
1024.71
335.206
1426.17
510.059
247.678
54.7676
573.342
213.75
109.967
32.3919
1460.17
539.575
288.699
87.09
679.422
276.712
173.025
76.5623
1642.54
630.459
365.743
132.479
1108.37
510.487
254.553
105.824
752.05
415.795
144.676
36.1567
730.008
442.436
202.873
93.3779
1303.33
564.718
274.466
53.1473
1216.63
513.575
299.932
26.649
1682.28
660.834
392.736
115.737
1476.92
573.536
368.717
25.1796
940.046
458.395
206.935
40.9852
909.253
425.078
242.545
52.0483
646.872
364.78
192.191
94.7317
593.62
325.467
195.931
95.3275
1803.6
628.995
322.551
39.0495
1822.63
611.186
380.177
-19.5015
1781.88
631.45
344.863
52.8994
1740.39
586.113
376.56
-16.79
1774.36
640.183
393.13
79.8751
1558
527.736
369.154
3.71304
1630.46
603.272
412.271
135.522
1709.68
587.327
461.248
22.4679
1244.22
461.426
321.55
66.3915
1452.59
445.224
293.115
-30.6278
559.196
157.779
91.5593
0.681354
1433.08
447.201
294.128
-23.2788
569.836
164.519
97.5717
6.6986
1359.76
433.616
297.292
-9.74623
556.234
165.558
104.34
14.556
1153.09
369.617
280.912
7.04097
494.322
146.175
109.32
24.4038
1011.36
339.823
260.79
30.2039
452.404
145.65
114.442
36.1018
755.503
302.375
177.529
27.6562
399.776
181.176
97.274
43.2669
823.853
290.887
207.37
28.2966
409.307
155.919
105.324
42.0859
642.069
300.625
163.356
40.8002
379.413
197.364
97.1254
50.3629
469.2
265.916
152.982
77.4257
327.471
197.053
108.184
67.8325
15.0292
5.08786
2.12765
1.01291
0.607425
6.87392
2.4417