/*--------------------------------*- C++ -*----------------------------------*\
| =========                 |                                                 |
| \\      /  F ield         | OpenFOAM: The Open Source CFD Toolbox           |
|  \\    /   O peration     | Version:  2412                                  |
|   \\  /    A nd           | Website:  www.openfoam.com                      |
|    \\/     M anipulation  |                                                 |
\*---------------------------------------------------------------------------*/
FoamFile
{
    version     2.0;
    format      ascii;
    arch        "LSB;label=32;scalar=64";
    class       volScalarField;
    location    "1.2";
    object      gradTx;
}
// * * * * * * * * * * * * * * * * * * * * * * * * * * * * * * * * * * * * * //

dimensions      [0 -1 0 1 0 0 0];

internalField   nonuniform List<scalar> 
5712
(
-8734.37
-10699.7
-19864.8
-31175.9
-30162.8
-58818.9
-20736.3
-62343.9
-21321
-49911.3
-26234.7
-43253.1
-20017.3
-26614
-10781.6
-10992.5
-14624.5
-16799.9
-19757
-18034.5
-13637.2
-20529.3
-20214.2
-20238.3
-5828.35
-4326.71
-7884.06
-5727.66
-13304.5
-8890.23
-24416.3
-17268.2
-20297.7
-20767.4
-20937.1
-21676.2
-5126.23
-4386.39
-46746.2
-57786.4
-25030.7
-33300.6
-59731.8
-73575.2
-27737.6
-34128.4
-35295.7
-46108.6
-28320.2
-39060.2
-16403.6
-20653.5
-3463.38
-1110.25
-4456.94
-1560.15
-7778.68
-3219.29
-13248.7
-4902.65
-8946.75
-2970.98
-8764.3
-2499.82
-17057.6
-5001.26
-22290.4
-7037.7
-28182.3
-16294.5
-23710.1
-16397.4
-28391.2
-18346.9
-22466.7
-18015.5
-18733
-13565.5
-20743.6
-13267.8
-22992.3
-16839
-23767.3
-17223.8
-21999.3
-18264.9
-22866.7
-18579.2
-19226.5
-14218.4
-20684.2
-14692.8
-20735.1
-8656.77
-12052.9
-13934.7
-22431.2
-10094.9
-12143.1
-14815.2
-20710.3
-8009.23
-12494.3
-13594.3
-21393.5
-8036.33
-13071.3
-13647.6
-3359.51
-3819.09
-1195.34
-2470.59
-9657.06
-11410.3
-4073.63
-7986.99
-15732.6
-18708.2
-7420.68
-13487.7
-18373.7
-9514.08
-19462.4
-24183
-12584.8
-6691.04
-10766.2
-13498.7
-24588.1
-16725.6
-11164.9
-14942.9
-16981
-16939.4
-21476.8
-3654.91
-3705.01
-2319.4
-2454.78
-10811.7
-10050.8
-7235.7
-7254.67
-16163.3
-14353
-10770.1
-10657.1
-9898.66
-10964.8
-15598.2
-16568.1
-18460.4
-17287.7
-22514.2
-20386.4
-16443.9
-16300.9
-13694.9
-14308.3
-17768
-15484.5
-17106.6
-13614.2
-15737.4
-11963.1
-18228.1
-14097
-14671.9
-7060.73
-11645.7
-10870
-16114.9
-18125.2
-16484.8
-20993.6
-9955.31
-9375.34
-13451.2
-5146.12
-11400.6
-17473.3
-11901.4
-18840.8
-16805.6
-25918.3
-17467.3
-26739.7
-9851.81
-15635.2
-10320.7
-17129.7
-12245.4
-8649
-16139.6
-6842.52
-13049.2
-3855.04
-15203.4
-2655.01
-12886.4
-12818.3
-16997.3
-8515.99
-11747.2
-14942.6
-15707.4
-10948.1
-3372.97
-3052.9
-2492.61
-2197.31
-2100.28
-1768.83
-8948.88
-7363.54
-6105.87
-6032.2
-4803.33
-3854.53
-11481.8
-9193.43
-8047.4
-8731.97
-6607.22
-5675.99
-9489.95
-7093.82
-6400.6
-15133.8
-10383.7
-7928.55
-14236.6
-9653.38
-6970.98
-16177.2
-11837.1
-9383.28
-13449.9
-8588.54
-5952.59
-17754.2
-13486.1
-11299
-13479.5
-9909.72
-7623.55
-12414
-8631.32
-6243.8
-11583.5
-8010.88
-5817.96
-13279.5
-7476.14
-4225.3
-12084.1
-19501.5
-10383.1
-14671.9
-10119.1
-20577
-8576.42
-16949.4
-135.967
-1696.29
283.916
-1028.77
-3573.6
-6700.66
-2306.6
-4170.6
-2012.61
-4034.67
-11346.1
-16689
-8764.34
-6763.05
-12353.7
-10831.6
-16909
-18146.4
508.592
5748.18
-8723.34
-6080.01
-6813.41
-3897.05
-1567.56
-997.976
-1313.43
-828.099
-3889.11
-1207.06
-2046.33
-341.762
-10017.2
-2872.94
-7730.44
-2395.9
-8765.86
-2629.91
-9872.69
-3185.16
-12933.1
-12475.2
-10017.7
-12266.9
-20041.6
-17763.6
-16325.1
-16769.2
-7190.71
-9077.82
-8412.73
-8440.2
-9350.04
-12110.6
-9802.13
-12179.1
-15558.2
-16346
-16112.2
-16422.2
-6335.13
-9142.97
-6100.15
-9211.77
-581.024
-1097.65
-6899.18
-3397.27
-592.29
-866.685
-6060.01
-2854.16
-574.576
-980.068
-7245.08
-3738.77
-847.237
-1074.35
-7280.07
-3930.29
196.428
350.025
-446.209
-257.505
894.713
1414.37
-675.799
-339.26
-986.704
59.7766
-2211.64
-1776.87
7298.05
3689.49
4300.54
2986.74
203.637
6990.8
10027.6
4654.26
4787.06
252.329
-9941.85
-7060.43
-5448.11
-5247.13
-2669.11
512.37
413.784
-119.508
-161.755
1454.06
1499.8
-304.037
-373.302
1301.74
1705.48
-1016.12
-1084.79
2754.09
1056.16
7487.29
4889.82
3926.66
2579.84
3669.53
2870.65
81.08
-410.644
-5363.3
-3798.72
142.973
1636.69
570.913
1590.31
-158.762
753.868
-299.105
-490.198
-4165.14
-4447.14
-9512.53
-5980.94
-8900.12
-8347.03
-13142.8
-10053
-6890.82
-4128.38
-2347.85
-2935.83
-11203.8
-4793.68
-12013.1
-4479.23
-15061
-9764.17
-16071.3
-9492.42
-8287.29
-3008.15
-8987.3
-2613.57
-4692.09
-3566.37
-2974.53
-5283.53
-2171.04
-2842.47
-1796.73
-4362.84
-5171.11
-3242.99
-3680.31
-6080.13
-6333.95
-2990.26
-4508.05
-5921.04
449.551
508.042
564.902
-103.316
98.7486
126.339
1574.65
1692.77
1742.77
-120.041
403.436
464.669
1932.42
2437.28
2620.39
-555.202
705.741
937.257
271.181
862.096
757.908
3262.92
3413.95
3091.91
2502.36
2798.48
2651.84
2752.52
3157.39
3154.03
-242.207
1014.25
926.943
-4434.32
-2287.89
-1359.17
494.105
1492.68
1827.45
873.395
1809.38
2043.66
574.737
1617.17
1822.19
-1169.27
649.522
758.69
-75.4124
-5.94718
13.2603
27.7086
59.9613
58.8767
70.479
56.5222
-196.608
-21.7515
40.6835
75.9606
135.473
133.731
147.688
122.428
-355.621
-72.7194
28.5656
119.596
-39.7914
87.9745
97.1119
121.781
-8.87418
56.8898
21.5853
29.4486
-149.909
-28.4283
9.77324
39.762
-836.922
-263.044
-149.354
31.5291
-1174.86
-379.621
-290.466
44.1626
-686.013
-203.469
-97.1133
104.857
-954.801
-305.704
-255.601
50.3663
-769.041
-249.729
-134.102
23.6748
-1292.76
-418.547
-309.594
62.2029
-804.026
-279.218
-122.952
49.2787
-1355.61
-441.31
-322.024
69.6086
-65.1906
-10.4041
-2.09939
21.185
-48.9184
-5.82077
-12.4833
23.7978
-172.376
-30.5985
-2.01884
59.8171
-80.6771
2.15416
-21.8685
66.1995
-566.291
-161.763
-82.9234
80.9281
-419.767
-104.26
-83.9992
107.165
-248.594
-45.969
-23.6418
123.387
-161.806
-17.9175
-46.4579
112.273
-796.385
-241.913
-211.235
108.824
28.1571
19.4627
7.2447
23.4613
97.1789
40.2815
19.1023
16.6539
22.3093
35.6922
4.0985
58.5532
241.513
104.205
44.3527
42.4908
-50.0854
21.7154
-8.09678
90.9224
342.101
151.242
65.6549
63.6133
-47.6517
31.2923
-10.6163
118.944
385.716
179.27
69.9123
71.0824
-196.157
-1.36473
-75.952
99.0817
252.39
158.793
38.3471
58.9784
-778.297
-124.492
-185.976
68.5238
-212.536
34.3996
-23.6742
28.7088
-477.553
-45.5077
-144.587
78.3047
-20.3108
98.0759
2.7837
42.9319
-1029.96
-220.854
-226.989
70.3518
-335.427
-25.7607
-45.4662
20.7944
-1199.74
-313.393
-265.494
63.9612
-436.194
-90.7805
-68.2855
13.1718
10.0725
4.57423
2.10563
1.01208
0.602919
15.5006
7.24924
3.3978
1.6602
0.996736
20.7506
9.70378
4.47089
2.15633
1.29872
40.508
19.8224
9.42996
4.66613
2.82744
30.9694
14.3946
6.64286
3.22818
1.95852
59.4805
28.5331
13.629
6.79941
4.14763
19.3
9.19275
4.44025
2.23718
1.37226
9.07746
4.65695
2.29186
1.16411
0.714225
28.0162
12.0966
5.60301
2.75433
1.66501
4.47906
1.536
0.624859
0.278999
0.158858
46.2205
20.7785
9.70806
4.80411
2.92312
11.1344
4.4293
1.97592
0.947853
0.560924
6.08033
2.06035
0.828832
0.37151
0.213789
4.40283
1.71123
0.750762
0.357863
0.213096
4.22078
1.56429
0.664693
0.307355
0.172469
1.4593
0.229512
0.0367748
-0.00222465
-0.0123967
7.82912
3.40314
1.50382
0.69822
0.407186
8.39474
3.39602
1.45502
0.666559
0.386483
18.5427
7.84807
3.44201
1.59683
0.936172
19.7675
7.74993
3.31011
1.51659
0.878969
24.0034
9.61766
4.16932
1.92035
1.12404
24.9474
9.70147
4.17519
1.92015
1.12651
34.93
14.9498
6.82729
3.32523
2.01683
18.1553
7.32679
3.21643
1.50299
0.900373
20.6883
9.12919
4.24386
2.10299
1.28149
-499.233
-640.107
-1387.66
-1839.67
-2138.48
-2973.96
-2561.66
-3933.54
-2420.12
-3739.86
-2234.09
-3153.04
-1873.85
-2369.59
-2802.73
-3919.47
-3040.65
-4192.44
-639.352
-142.117
-31.3159
-6.72699
-1.65713
-232.816
-91.7628
-9.12123
-2.81447
-1.21504
-2067.17
-462.611
-102.537
-22.2007
-5.51008
-595.059
-126.909
-25.8278
-5.05609
-1.07867
-3617.25
-814.232
-181.603
-39.6987
-9.94605
-1065.54
-258.382
-58.1182
-12.9527
-3.19958
-5120.31
-1159.5
-261.34
-57.8349
-14.6841
-1508.29
-403.91
-97.8134
-22.9869
-5.97214
-7022.01
-1637.41
-377.372
-85.1399
-22.0187
-2035.09
-622.221
-159.96
-38.7655
-10.3304
-9174.57
-2341.31
-571.173
-134.494
-35.969
-2414.67
-773.516
-204.576
-50.3734
-13.6423
-8480.47
-2095.9
-498.354
-114.911
-30.2124
-2304.18
-753.655
-199.62
-49.0936
-13.1828
-9480.55
-2451.61
-605.891
-144.369
-38.9869
-2505.49
-773.377
-200.731
-48.7916
-13.1653
-9727.19
-2507.08
-622.38
-149.177
-40.5129
-2531.57
-780.306
-201.93
-45.5905
-13.0141
-318.366
-7209.98
-7059.27
-3925
3916.14
5385.7
10794.4
14243.4
6075.12
12374.6
2112.89
7257.35
5951.67
10035.9
11151.9
15469.3
13409.9
15321.6
7650.18
8684.09
-19020.4
-13955.4
-3461.07
-2474.66
-1876.66
-2968.34
-2200.3
-12045.7
-11143.2
-9709.09
-9764.66
-7640.66
-5241.4
-7590.31
-4322.31
-3279.01
-3968.62
-2520.57
-20030.8
-9461.45
-2504.88
-4336.62
-6997.3
-4572.13
-5096.34
-3748.91
-1706.99
-2854.78
-2679.55
-3155.99
-18974.2
-11483.6
-11423
-7044.64
-7272.16
-7513.39
-3264.07
-4011.63
-4538.79
-12406.5
-11297
-9092.64
-8281.53
-6858.9
-9744.17
-7017.34
-5511.52
-4267.02
-1808.83
-3032.13
-2485.67
-1840.6
-1134.18
-383.311
-2196.03
-1823.52
-1360.76
-839.79
-283.885
-1654.34
-1363.1
-1009.24
-619.058
-208.642
-2637.98
-2192.96
-1636.36
-1008.8
-340.746
-1938.86
-1597.67
-1184.34
-727.866
-245.628
-7772.55
-6357.68
-4804.74
-4113.31
-4041.17
-5980.91
-4555.79
-3067.78
-2318.76
-1795.47
-6675.93
-4492.24
-3260.26
-2300.09
-957.953
-5246.08
-3799.86
-2527.88
-1841.1
-1188.15
-3854.05
-2617.28
-1678.05
-1272.36
-706.662
-4137.23
-3074.72
-2147
-1308.92
-455.386
-5426.92
-3740.71
-2595.25
-1650.05
-632.109
-3018.43
-1989.22
-1324.15
-811.986
-298.935
-2686.67
-2059.51
-1452.87
-876.7
-297.518
-3174.43
-2373.22
-1644.44
-982.852
-333.191
-2089.63
-1617.69
-1144.78
-687.959
-231.649
-13235.3
-10518.3
-8258.48
-7073.45
-5995.69
-7160.7
-5226.67
-3846.9
-2631.2
-1056.22
-2064.02
-1593.94
-1135.72
-693.088
-236.957
-3632.76
-2855.58
-2069.21
-1279.81
-439.913
-5696.6
-4378.99
-3184.32
-2025.06
-718.219
-3857.8
-3053.13
-2228.62
-1385.06
-473.7
-4378.84
-3520.13
-2584.03
-1596.27
-539.241
-3234.37
-2610.74
-1911.93
-1173.41
-397.142
-1459.79
-1165.16
-841.481
-509.42
-171.132
-2489.77
-2029.18
-1490.71
-911.482
-307.134
-2258.1
-1778.84
-1277.71
-775.999
-262.407
-2703.48
-2166.57
-1577.9
-965.955
-327.196
-12330.8
-10551.3
-8506.04
-7553.24
-6066.85
-8332.51
-6052.71
-4666.42
-3457.93
-1455.73
-8923.79
-6976.67
-5281.92
-3896.08
-1632.77
-5663.66
-4182.6
-3091.66
-2044.4
-645.945
-6039.86
-4683.95
-3429.52
-2169.15
-724.794
-6019.37
-4422.18
-3255.62
-2146.56
-660.722
-2781.34
-2218.29
-1617.15
-995.861
-338.055
-3499.1
-2854.21
-2102.44
-1290.35
-435.696
-3866.48
-3085.13
-2252.7
-1390.31
-472.771
-7065.78
-15602.5
-12306.9
-40505.6
-11483.2
-52364.1
-7785.64
-20667.8
-10007.6
-8497.06
-19914.1
-15549.4
-10031.8
-12021.2
-21562.1
-17757.3
-4470.38
-3065.4
-10375.4
-7347.03
-7782.31
-4077.76
-28506.3
-20252.4
-16937
-11666.9
-17751
-11572.5
2075.82
-1654.61
-48221.7
-58373.6
-24267.5
-33205.5
-60949
-74088.4
-26815.3
-33914.1
-36271.9
-46660.9
-27603.3
-39075.2
-17712.1
-21191.8
-2440.63
-470.169
-5363.72
-1734.5
-4609.82
-2208.09
-14973.3
-5371.55
-2297.26
-1125.9
-6474.65
-1808.32
-17132.9
-4958.87
-22512
-7087.8
-20308.4
-12637.5
-21078
-14598.1
-19362.5
-13916.6
-19455.6
-15924.6
-16915.9
-12186.2
-15513
-10599.8
-21950.4
-16021.9
-23518.2
-16995.8
-20760
-17339.8
-22528.8
-18318.5
-18580.8
-13580.1
-20547
-14512.4
-19738.1
-8393.2
-11046.9
-13476.9
-19288.3
-9233.11
-10124.4
-13910.4
-20448.3
-7934.32
-12033.2
-13378.1
-21371.5
-8029.56
-12940
-13587.7
-733.965
-570.104
120.775
-856.676
-2791.36
-3535.82
-2046.9
-5418.7
-4296.62
-5847.09
-4572.88
-9972.11
-18100.2
-16985
-14942.5
-17875.6
-11061.6
-11083.5
-8920.62
-8311.02
-17714.1
-15119
-13734.9
-13452.1
-13131.7
-12664.1
-19423
-843.598
-1067.66
-586.966
-845.685
-3564.75
-3192.97
-4113.68
-4044.45
-3605.68
-2031.59
-6818.27
-6431.76
-12022.3
-12734
-11405.2
-11349.4
-10974.7
-9144.02
-15096.9
-12922.9
-13922.1
-13084.2
-15774.1
-15810.2
-15185.3
-13157.9
-12800.7
-10170.4
-11828.5
-8955.09
-16324.9
-11865.5
-13671.1
-7633.96
-11201.2
-11031.2
-16528.1
-19159.4
-16455.7
-21345
-9359.05
-9409.39
-11980.6
-5464.64
-11185.3
-17466.9
-11823.5
-18820.9
-16765.6
-26161.6
-17424.6
-26752.5
-9579.92
-15566.7
-10233.2
-17100.5
-11774
-8701.72
-15945
-6980.72
-11855.7
-4289.52
-14751
-3331.01
-12681
-12776.2
-16902.5
-8537.81
-11680.7
-14920.9
-15679.8
-10940.9
-1275.66
-993.316
-767.579
-942.38
-2505.57
-1336.72
-3356.89
-3354.57
-847.832
-651.228
-5859.64
-5634.9
-13575.4
-11439.2
-11140.4
-8357.44
-7650.61
-5069.71
-10319.2
-7711.62
-11292.9
-7511.69
-19792
-16417.7
-10691.6
-8321.46
-8628.04
-6065.04
-7775.01
-5131.79
-9034.49
-4378.52
-5865.58
-11303
-5344.11
-11183.3
-7669.95
-12492.6
-9124.57
-14227
-1616.81
-1494.98
-1392.48
-1380.15
-4536.57
-4695.3
-4154.78
-4250.98
-1545.5
-1996.09
-9001.52
-9786.45
-5359.12
-6005.03
-10925.6
-10460.2
-15595.9
-17753.8
822.195
5719.14
-7750.86
-5840.76
-6360.43
-3829.53
-1294.29
-1205.83
-1392.94
-1170.92
-2896.17
-1814.14
-2195.73
-1237.48
-7916.5
-3645.83
-7437.99
-3331.11
-8514.12
-3137.99
-9790.87
-3383.89
-6768.48
-9757.02
-7720.58
-10770.3
-12004.6
-13569.2
-13453
-14721.1
-5856.43
-8322.19
-4993.69
-7388.01
-8338.67
-11444.1
-9501.56
-11988.7
-14297.5
-15448.2
-15739.2
-16167.3
-5745.35
-8793.74
-5919.78
-9110.5
-480.778
-1372.12
-6768.53
-3541.16
-600.601
-1424.15
-6085.73
-3103.68
-578.059
-1209.33
-7174.94
-3845.66
-853.851
-1169.94
-7247.23
-3981.41
-1173.79
-1310.39
-1204.81
-1323.14
-2852.97
-3119.22
-2023.65
-2252.62
-7066.57
-7512.08
-3735.97
-3984.57
-4119.04
-9758.84
-2570.21
-67.5522
-1005.26
-4089.09
-1020.44
-1849.77
1969.48
-551.473
-14395.1
-10134.6
-7387.27
-6775.9
-3305.9
-1553.03
-1635.58
-1518.76
-1758.82
-3647.31
-3812.15
-2621.39
-3133.86
-7838.45
-8550.92
-3956.28
-4777.28
-6119.8
-7381.29
-1983.25
-3995.74
-3183.16
-4386.55
-601.285
-1444.69
-1295.71
-2077.94
-11444
-8770.14
-6021.56
-4128.82
-4191.48
-2874.18
-3694.29
-2415.75
-1706
-2089.18
-7115.49
-7512.77
-10741.3
-7259.49
-11187.1
-10925.2
-13880.1
-11132.2
-8378.12
-5408.46
-5170.08
-5784.56
-11735.2
-5488.94
-12138.4
-4630.19
-15327.7
-10363.3
-16108.7
-9603.19
-8993.05
-3707.68
-9175.5
-2783.83
-6126.52
-4732.48
-4207.46
-6595.61
-4568.56
-5261.65
-3434.65
-6546.69
-5902.05
-3915.45
-4397.44
-6839.49
-6549.43
-3185.79
-4731.74
-6113.43
-1329.52
-1402.42
-1223.9
-1011.37
-4079.52
-4587.13
-1913.94
-1163.93
-8972.92
-7445.13
-2750.49
-362.444
-9130.61
-7760.7
-5778.96
-4750.04
-4682.25
-3745.29
-1655.13
-923.085
-1481.49
500.832
-8374.55
-6774.9
-4177.7
-2993.5
-2758.3
-1595.91
-1998.78
-844.939
-2772.37
273.189
-234.111
-88.3428
-27.8492
8.37807
-234.689
-101.637
-13.2403
13.1161
-598.838
-230.661
-58.6961
35.2045
-532.05
-236.035
-55.5701
3.307
-887.671
-353.519
-119.653
49.5853
-835.461
-369.454
-186.904
-65.5786
-487.336
-228.338
-145.117
-52.9206
-353.066
-154.042
-64.0667
1.47213
-1107.19
-426.012
-264.062
-43.7172
-1260.23
-419.585
-332.972
38.3045
-1102.1
-422.121
-248.119
-10.0222
-1069.41
-357.979
-309.724
43.0326
-975.864
-376.967
-207.712
-1.6587
-1359.78
-450.711
-345.536
45.6421
-892.526
-334.797
-156.039
34.8019
-1385.47
-456.297
-335.748
64.8354
-224.074
-77.7877
-32.808
11.1858
-224.328
-69.1
-45.0042
14.3222
-574.237
-204.341
-82.4846
33.809
-564.783
-180.097
-111.821
42.3857
-995.617
-360.397
-189.568
52.9937
-961.165
-323.323
-207.108
75.9923
-949.152
-368.857
-203.614
27.8328
-707.669
-250.398
-163.458
87.4524
-1072.5
-366.44
-312.861
79.9519
-168.907
-50.0465
-21.833
12.1178
-104.733
-34.4619
-9.7726
1.60664
-456.564
-138.665
-74.6593
27.5149
-281.677
-96.3016
-37.1312
0.353282
-616.015
-200.234
-117.628
44.3408
-368.542
-144.353
-57.6626
-0.224233
-693.126
-246.011
-152.091
55.0496
-435.619
-187.326
-83.4476
-6.17846
-809.28
-272.899
-225.616
25.5683
-578.428
-214.881
-126.115
-26.3064
-1410.46
-444.013
-360.762
-16.0127
-737.366
-237.584
-154.62
-39.2826
-1205.31
-381.784
-329.426
-11.2081
-756.876
-244.316
-156.254
-40.72
-1426.62
-436.311
-345.577
14.0276
-641.14
-199.761
-130.939
-21.7719
-1329.3
-387.113
-306.255
44.8797
-531.291
-148.402
-96.9852
-0.983618
-3.72165
-3.25493
-1.88809
-1.04435
-0.673789
-9.26111
-5.70171
-3.06689
-1.64832
-1.05439
-9.13351
-6.92113
-3.95141
-2.16917
-1.38396
-29.7789
-16.2522
-8.45303
-4.4668
-2.83187
-17.3561
-10.7738
-5.85319
-3.14983
-1.99045
-44.7972
-23.5751
-11.9828
-6.24757
-3.93215
-15.6946
-7.9331
-3.96251
-2.04642
-1.28279
-8.97409
-4.26593
-2.1155
-1.09318
-0.691159
-15.6723
-9.22243
-4.80454
-2.53498
-1.60814
-0.454708
-0.882317
-0.556919
-0.320729
-0.211828
-30.7055
-16.3476
-8.31408
-4.33597
-2.72831
-4.40907
-3.18347
-1.71848
-0.923462
-0.595264
-1.33736
-1.07008
-0.66201
-0.383158
-0.254096
-2.07681
-1.19874
-0.647441
-0.351117
-0.2265
-1.56978
-1.06592
-0.621589
-0.357926
-0.251731
0.73081
0.0112153
-0.0621828
-0.056819
-0.0530342
-1.57224
-2.22628
-1.40098
-0.801401
-0.524139
-1.42852
-2.09632
-1.32749
-0.761479
-0.498626
-4.54551
-5.33308
-3.25109
-1.83931
-1.19388
-3.94511
-5.10749
-3.12823
-1.77405
-1.15806
-5.85946
-6.92288
-4.10825
-2.30806
-1.49322
-8.4218
-7.32259
-4.17164
-2.31875
-1.49283
-20.8856
-11.6943
-6.01886
-3.17181
-1.99535
-9.57243
-6.01516
-3.20922
-1.74372
-1.10305
-14.7735
-7.1895
-3.56075
-1.83683
-1.15089
-184.065
-336.888
-635.629
-1088.17
-1267.69
-2049.27
-1864.38
-3104.94
-2057.34
-3302.84
-2340.39
-3266.79
-1909.34
-2526.21
-2867.03
-3966.19
-3059.59
-4204.52
-609.788
-138.075
-30.6614
-6.61432
-1.63473
-173.743
-83.5121
-7.73351
-2.60917
-1.18263
-1990.9
-451.766
-100.735
-21.885
-5.44626
-451.391
-104.534
-22.3989
-4.54339
-0.994332
-3498.7
-796.161
-178.515
-39.1516
-9.83467
-894.308
-230.948
-53.7791
-12.2752
-3.08222
-4965.84
-1134.09
-256.838
-57.0216
-14.5166
-1368.95
-380.111
-93.7638
-22.3017
-5.84408
-6849.09
-1605.78
-371.399
-84.0182
-21.7819
-1970.14
-606.632
-156.721
-38.1352
-10.1996
-9085.15
-2318.26
-565.94
-133.398
-35.7207
-2428.74
-772.946
-203.971
-50.189
-13.593
-8339.19
-2064.34
-491.797
-113.615
-29.9305
-2303.53
-747.193
-197.681
-48.6451
-13.0804
-9431.59
-2438.12
-602.653
-143.666
-38.8225
-2513.09
-773.847
-200.64
-48.7491
-13.1521
-9711.64
-2502.72
-621.304
-148.941
-40.4568
-2533.38
-780.494
-201.934
-45.5953
-13.0135
-128.657
-7018.35
-6413.34
-2939.48
-1522.17
-813.058
-3187.4
-2337.39
-5823.91
-6326.33
-3392.6
-3170.78
-215.529
-343.586
-606.176
-985.354
-1466.9
-2001.84
-153.366
-335.409
-707.04
-1252.54
-1939.44
-2710.92
-164.489
-71.1064
-302.448
-184.362
-585.179
-426.772
-985.297
-833.052
-1429.55
-1388.68
-1877.14
-1999.77
-2615.47
-3326.02
-4258.35
-6392.75
-7054.22
-8766.31
-3489.37
-4127.59
-4435.38
-4446.09
-3832.68
-3561.83
-194.324
-164.197
-124.362
-77.4616
-26.2961
-309.462
-261.172
-197.573
-122.948
-41.7161
-545.303
-459.55
-347.163
-215.814
-73.1878
-884.906
-744.33
-561.309
-348.507
-118.114
-1314.19
-1102.51
-829.503
-514.257
-174.17
-1786.8
-1493.12
-1119.86
-693.051
-234.566
-138.161
-116.656
-88.2909
-54.9594
-18.648
-301.847
-254.521
-192.379
-119.637
-40.5765
-635.544
-535.161
-403.984
-251.006
-85.0976
-1123.96
-944.629
-711.878
-441.816
-149.711
-1736.02
-1455.12
-1094.12
-678.14
-229.667
-2417.84
-2019.07
-1513.85
-936.962
-317.191
-148.413
-125.47
-95.0786
-59.249
-20.123
-64.1664
-54.2573
-41.1225
-25.6289
-8.70519
-272.607
-230.229
-174.283
-108.514
-36.8337
-166.222
-140.439
-106.354
-66.2379
-22.4867
-526.825
-444.345
-335.935
-208.953
-70.8859
-384.363
-324.347
-245.329
-152.646
-51.7914
-885.502
-745.405
-562.491
-349.388
-118.438
-748.886
-630.606
-475.986
-295.698
-100.241
-1281.47
-1075.67
-809.628
-502.005
-170.019
-1244.95
-1045.06
-786.505
-487.565
-165.099
-1675.47
-1399.81
-1049.49
-649.22
-219.664
-1784.9
-1490.88
-1117.06
-690.448
-233.486
-2320.82
-1927.89
-1439.95
-889.708
-301.043
-2922.23
-2404.74
-1786.82
-1103.81
-373.92
-3676.7
-2978.85
-2201.08
-1366.24
-465.125
-5362.24
-4239.2
-3126.96
-1978.32
-682.15
-5603.48
-4296.14
-3207
-2141.54
-795.067
-6679.35
-5015.91
-3798.29
-2655.1
-1023.46
-3096.31
-2572.74
-1922.56
-1188.66
-402.433
-3636.49
-3001.69
-2235.18
-1382.05
-468.492
-3866.85
-3163.11
-2347.39
-1455.23
-495.095
-3809
-3072.15
-2274.08
-1422.29
-488.267
-3180.67
-2512.18
-1863.81
-1195.5
-423.341
-2851.56
-2201.96
-1643.2
-1088.98
-398.076
-225.568
-375.863
-666.644
-1080.44
-1602.4
-2173.49
-165.714
-375.454
-781.763
-1368.19
-2094.75
-2890.05
-174.189
-77.8779
-334.607
-207.926
-649.199
-477.438
-1093.6
-930.819
-1595.69
-1588.01
-2094.34
-2383.44
-2819.84
-3559.49
-4513.04
-6590.94
-7182.31
-8812.71
-3663.45
-4262.34
-4507.54
-4449.31
-3804.35
-3546.37
-203.437
-171.963
-130.297
-81.185
-27.5649
-338.784
-286.173
-216.691
-134.95
-45.809
-600.267
-506.463
-383.077
-238.383
-80.8872
-971.452
-818.327
-618.064
-384.228
-130.312
-1437.79
-1208.45
-910.985
-565.663
-191.749
-1943.96
-1628.46
-1224.47
-759.328
-257.287
-149.382
-126.22
-95.5996
-59.546
-20.2122
-338.218
-285.532
-216.092
-134.523
-45.6521
-703.467
-593.148
-448.384
-278.912
-94.6185
-1229.25
-1034.7
-780.991
-485.333
-164.574
-1877.75
-1576.73
-1187.75
-737.255
-249.888
-2582.01
-2160.65
-1623.45
-1006.48
-341.037
-157.204
-132.957
-100.796
-62.8343
-21.3445
-70.3072
-59.485
-45.1132
-28.1312
-9.55833
-301.806
-255.111
-193.298
-120.445
-40.9022
-187.606
-158.651
-120.264
-74.9624
-25.4604
-584.996
-493.971
-373.905
-232.803
-79.0212
-430.387
-363.599
-275.352
-171.5
-58.2212
-984.052
-829.628
-627.057
-390.01
-132.308
-837.878
-706.697
-534.349
-332.433
-112.787
-1432.88
-1205.31
-909.222
-564.783
-191.479
-1426.56
-1200.52
-905.914
-562.83
-190.829
-1874
-1570.54
-1181.26
-732.6
-248.214
-2134.5
-1790.33
-1347.31
-835.734
-283.174
-2509.21
-2091.42
-1567.42
-971.059
-329.048
-3139.9
-2596.14
-1938.06
-1201.5
-407.767
-3919.11
-3196.54
-2376.96
-1482.2
-505.724
-5563.68
-4430.55
-3290.81
-2092.67
-722.976
-5743.75
-4434.91
-3332.09
-2235.61
-831.955
-6734.14
-5072.51
-3852.12
-2698.64
-1040.89
-3257.09
-2712.67
-2031.93
-1258.62
-426.545
-3762.99
-3113.8
-2324.49
-1440.13
-488.703
-3937.87
-3229.18
-2402.62
-1492.67
-508.422
-3818.77
-3086.98
-2291.16
-1436.67
-493.903
-3161.1
-2500.82
-1860.19
-1197.07
-424.959
-2840.39
-2194.84
-1640.2
-1089.17
-398.698
-18973
-14011
-3809.76
-2800.16
-2395.82
-3550.32
-2647.97
-12932.6
-13725
-11295.2
-12976.3
-6490.39
-10593.2
-4623.63
-4905.98
-3370.14
-20867.2
-10415.9
-3099.95
-4989.67
-7642.94
-4966.32
-5701.5
-4297.72
-2073.76
-3558.84
-3378.51
-3694.05
-18926.3
-11695.6
-11970.1
-7415.74
-7656.93
-7985.15
-3891.91
-4658.09
-4999.24
-12401.4
-11336.2
-9167.2
-8405.38
-6978.83
-9824.09
-7103.33
-5599.56
-4348.44
-1843.46
-3358.49
-2773.8
-2069.16
-1282.29
-434.72
-2495.01
-2082.09
-1561.57
-967.542
-327.772
-2131.14
-1775.43
-1329.8
-823.486
-279.056
-3171.2
-2652.72
-1992.37
-1234.81
-418.326
-2351.72
-1956.3
-1464.19
-906.758
-307.31
-9225.41
-8009.41
-6454.36
-5601.7
-5230.38
-9364.36
-8286.32
-6555.09
-5251.87
-3755.38
-8563.25
-6316.6
-4884.81
-3544.16
-1485.79
-9216.57
-7689.01
-5926.2
-4613.21
-2744.2
-5443.69
-4304.93
-3184.55
-2028.84
-724.205
-8452.87
-6384.61
-4764.27
-3187.82
-1250.91
-3966.19
-3196.8
-2364.53
-1479.76
-512.52
-4191.69
-3366.74
-2488.24
-1560.33
-542.295
-2912.52
-2362.62
-1749.19
-1089.66
-374.599
-14501.5
-11932.8
-9672.54
-8349.2
-6946.88
-8213.67
-6257.59
-4761.43
-3310.64
-1330.97
-2652.38
-2134.51
-1580.98
-993.287
-345.131
-4275.47
-3448.52
-2560.4
-1611.99
-559.324
-6369.61
-5026.79
-3745.54
-2423.59
-867.729
-4250.71
-3420.31
-2536.99
-1596.03
-549.743
-4953.85
-4034.94
-2998.61
-1868.83
-634.506
-3758.68
-3083.05
-2293.79
-1425.03
-485.559
-1817.31
-1492.83
-1109.94
-688.009
-234.289
-3144.6
-2603.27
-1943.17
-1203.45
-408.45
-2930.8
-2386.28
-1770.01
-1102.19
-377.963
-3221.63
-2636.38
-1959.98
-1219.14
-416.611
-12430.8
-10768.6
-8801.63
-7925.39
-6451.79
-8596.82
-6320.48
-4920.53
-3668.6
-1548.42
-9623.41
-7707.53
-5982.45
-4470.54
-1891.65
-6058
-4562.7
-3424.58
-2284.74
-724.916
-6442.42
-5070.27
-3765.11
-2406.71
-809.779
-6531.98
-4912.5
-3688.52
-2461.16
-769.732
-3376.96
-2750.69
-2044.92
-1276.74
-436.59
-4104.04
-3388.08
-2525.73
-1564.65
-531.044
-4317.68
-3501.1
-2597
-1622.26
-555.452
-377.687
-1053.43
-1647.93
-2228.13
-2828.54
-3387.62
-2606.6
-6676.21
-6177.89
-2578.08
-7612.36
-7043.11
-7988.27
-10790.8
-1484.37
-149.728
-2792.32
1552.79
-10899.9
-9339.42
2350.65
-1877.2
-5215.87
-4925.7
-1953.97
-5720.58
-3276.4
-6263.34
-6422.21
-640.075
1112.57
-1158.98
4046.96
-7478.85
-5023.75
4494.04
-1119.34
-3436.38
-3481.69
-1297.82
-3411.01
-381.857
-4493.1
-4399.49
-137.521
1300.52
233.034
4162.15
-4337.24
-319.478
5040.28
-708.914
-2349.22
-2687.71
-950.376
-1661.95
1126.92
-3629.66
-3969.93
93.2939
913.701
621.057
3396.98
-3103.49
1895.61
4720.21
-589.929
-2155.28
-2503.44
-844.45
-1481.99
812.723
-3796.53
-5174.69
174.915
653.383
715.835
2813.8
-2990.73
1792.44
3121.24
-560.255
-2101.2
-2406.01
-805.056
-1924.06
-104.363
-3686.49
-5089.88
215.939
1000.51
565.904
2825.84
-3667.84
614.065
2164.33
-1313.03
-3095.52
-4351.51
-1787.53
-6412.77
-11582
-7206.31
-12806.4
-1563.76
-1360.54
-5061.48
-4169.38
-2090.49
-9150.9
-4471.36
-1268.59
-2978.13
-3828.03
-1522.94
-5993.57
-9745.65
-6377.43
-9165
-1607.13
-1234.19
-4857.41
-3914.92
-1433.22
-8334.27
-4289.05
-1142.06
-2702.22
-3090.65
-1191.97
-5281.7
-8239.56
-5207.19
-7838.38
-1338.14
-1555.82
-4148.07
-4560.23
-1714.66
-7227.8
-4738.96
-1105.18
-2854.04
-2740.05
-1009.2
-5408.11
-7781.97
-4961.05
-7450.85
-1348.04
-1853.5
-4127.55
-5391.83
-2184.09
-7691.26
-5527.25
-1082.36
-2762.55
-2624.7
-944.367
-5175.54
-8157.75
-4870.77
-8081.73
-1418.08
-2305.05
-4305.66
-6640.88
-3127.78
-8858.88
-6922.16
-1075.31
-2714.28
-2552.4
-915.939
-5202.27
-8294.13
-4695.83
-7914.13
-1571.15
-2831.19
-4685.81
-7470.18
-4211.99
-9694.2
-7639.09
8009.84
9725.34
19862
31124
30167.1
58801.9
20739.8
62339.4
21325.6
49906.3
26249.8
43248.3
20053.6
26601.7
9291.46
9449
14627.1
16800.4
19752.2
18033
13640
20530.9
20214.3
20238.8
5371.77
4005.13
7229.82
5257
13311.6
8885.98
24378.1
17236.8
20282
20765.5
20930.8
21672.8
5121.9
4369.64
46747.4
57787.7
25030.6
33301
59732
73575.5
27738
34128.7
35296.8
46110.3
28319.1
39060.9
16406.7
20655.5
3246.84
1050.34
4112.59
1447.65
7761.38
3220.82
13221.3
4896.72
8937.75
2968.28
8752.02
2496.06
17057.8
5001.17
22291.9
7038.17
28181.4
16294.1
23709
16396.9
28391.7
18347.2
22466.8
18015.5
18731.2
13564.7
20741.8
13266.7
22991.9
16838.7
23767.2
17223.6
21999.4
18264.9
22866.8
18579.1
19225.9
14218
20684.2
14692.5
20731.8
8655.91
12051.9
13934.4
22426.8
10093.8
12141.5
14814.6
20709.7
8009.09
12493.8
13594.2
21393.7
8036.46
13071.1
13647.6
3149.32
3565.7
1128.93
2306.25
9624.53
11358
4072.52
7963.07
15718.3
18690.1
7416.43
13480.1
18372.7
9513.73
19460.5
24176.7
12583.5
6690.68
10765.5
13497.2
24580.8
16723.8
11164.9
14942.4
16979.5
16936.3
21475.6
3370.39
3417.87
2111.36
2271.7
10801.8
10022.4
7260.35
7259.83
16155.7
14344.1
10773.7
10659.2
9898.36
10964.5
15597.4
16567.5
18458.9
17286.6
22510.3
20383.2
16445.3
16302.7
13694.6
14308.1
17767.2
15484
17105.3
13613.5
15735.6
11962.3
18228.5
14097.8
14671.3
7060.5
11645.3
10869.8
16114.8
18125
16484.6
20993.4
9954.79
9375.15
13450.4
5145.83
11400.3
17473.1
11901.2
18840.6
16805.5
25918.1
17467.2
26739.5
9851.51
15635.1
10320.5
17129.6
12245
8648.92
16139.6
6842.63
13048.4
3854.85
15203.5
2655.22
12886.2
12818.2
16997.4
8516.07
11747.1
14942.6
15707.5
10948.2
3074.05
2779.62
2279.59
2039.23
1951.35
1648.15
8938.89
7354.3
6102.54
6036.8
4806.86
3859.99
11477.3
9190.41
8046.2
8733.43
6608.3
5677.75
9489.77
7093.73
6400.55
15133.4
10383.5
7928.44
14236
9653.06
6970.86
16175.4
11836
9382.88
13451
8589.17
5953.32
17754
13486
11299
13479.2
9909.56
7623.48
12413.7
8631.16
6243.74
11583.2
8010.67
5817.9
13279.9
7476.37
4225.54
12093.5
19505.2
10395.5
14675.2
10124.1
20579.9
8581.82
16951.6
158.052
1571.53
-230.799
947.641
3533.94
6685.29
2264.01
4159.55
2003.99
4027.01
11344.1
16686.3
8757.13
6756.25
12354.8
10832.1
16909.9
18147
-509.413
-5748.35
8722.87
6080.19
6812.83
3897.01
1426.63
924.799
1190.33
759.33
3894.5
1200.53
2049.1
339.354
10015.7
2870.02
7728.99
2393.88
8765.29
2629.31
9872.75
3185.02
12934.3
12475.7
10018.6
12267.3
20043.2
17764.3
16326
16769.6
7190.45
9077.84
8412.26
8440.15
9350.54
12110.9
9802.56
12179.3
15558.7
16346.2
16112.6
16422.4
6335.13
9143.07
6100.35
9211.98
580.067
1096.75
6898.98
3396.92
591.135
865.254
6059.71
2853.6
574.089
979.612
7245.03
3738.59
847.179
1074.17
7280.19
3930.25
-186.15
-324.999
419.189
242.829
-890.608
-1410.83
669.201
331.918
986.961
-59.0601
2208.28
1774.1
-7297.9
-3689.37
-4300.55
-2986.9
-205.025
-6990.74
-10027.4
-4654.15
-4786.68
-253.465
9942.04
7060.63
5448.04
5246.88
2668.26
-484.262
-385.494
99.2725
138.039
-1446.25
-1496.57
307.612
376.358
-1299.25
-1702.92
1016.77
1086.58
-2753.96
-1056.03
-7487
-4889.47
-3926.31
-2579.34
-3668.37
-2869.12
-81.1297
411.383
5363.41
3798.81
-142.727
-1636.41
-570.667
-1589.92
159.102
-753.31
298.997
490.562
4165.39
4447.29
9512.7
5981.03
8900.3
8347.08
13142.9
10053
6890.89
4128.45
2348
2936.02
11203.9
4793.76
12013.2
4479.34
15061.1
9764.18
16071.3
9492.44
8287.35
3008.21
8987.43
2613.67
4692.06
3566.39
2974.37
5283.5
2171.1
2842.66
1796.59
4362.96
5171.1
3243.01
3680.2
6080.09
6334.02
2990.32
4508.04
5921.06
-427.112
-475.76
-527.975
78.6942
-103.194
-126.328
-1564.63
-1685.3
-1737.72
128.968
-398.101
-461.37
-1928.37
-2434.05
-2618.14
558.137
-703.521
-935.731
-271.062
-861.971
-757.788
-3262.53
-3413.6
-3091.61
-2501.7
-2797.89
-2651.39
-2750.54
-3155.64
-3152.7
243.331
-1013.21
-926.124
4434.39
2287.99
1359.28
-493.812
-1492.38
-1827.18
-872.932
-1808.93
-2043.27
-574.036
-1616.47
-1821.57
1169.84
-648.975
-758.262
71.6835
6.14529
-11.6091
-25.2988
-55.9487
-54.7757
-65.2486
-52.1231
195.698
21.6156
-40.9695
-76.099
-134.241
-133.184
-147.421
-122.212