/*--------------------------------*- C++ -*----------------------------------*\
| =========                 |                                                 |
| \\      /  F ield         | OpenFOAM: The Open Source CFD Toolbox           |
|  \\    /   O peration     | Version:  2412                                  |
|   \\  /    A nd           | Website:  www.openfoam.com                      |
|    \\/     M anipulation  |                                                 |
\*---------------------------------------------------------------------------*/
FoamFile
{
    version     2.0;
    format      ascii;
    arch        "LSB;label=32;scalar=64";
    class       volScalarField;
    location    "1.2";
    object      T;
}
// * * * * * * * * * * * * * * * * * * * * * * * * * * * * * * * * * * * * * //

dimensions      [0 0 0 1 0 0 0];

internalField   nonuniform List<scalar> 
5712
(
536.944
555.165
522.96
544.746
504.431
529.461
476.132
503.141
480.061
507.302
506.348
533.313
518.5
543.207
529.961
551.369
494.508
476.46
513.489
485.938
466.911
447.736
484.541
455.711
545.184
552.149
559.629
563.139
534.377
543.508
551.454
556.931
533.203
518.872
505.183
496.917
533.755
545.803
535.24
541.311
494.8
502.531
509.975
516.176
464.359
470.933
547.487
552.974
515.536
525.894
558.751
565.061
556.947
566.193
565.871
570.196
549.025
563.176
560.342
568.153
538.244
558.028
548.97
563.654
556.448
566.296
560.915
567.919
460.871
444.758
469.515
448.907
426.298
412.179
434.911
416.755
498.451
478.381
490.587
473.936
475.321
451.628
478.581
452.976
440.844
419.718
444.091
421.175
504.123
481.284
507.277
482.676
526.128
556.123
508.519
543.905
518.85
551.344
503.251
539.491
531.028
558.458
511.585
546.397
533.569
559.42
512.927
547.868
550.895
537.894
562.314
552.676
541.95
528.905
558.491
547.682
529.059
515.569
551.849
539.686
443.224
403.862
479.296
508.567
542.302
402.339
440.648
473.719
500.967
531.435
401.66
437.655
468.294
495.958
530.698
512.23
488.379
516.707
493.876
506.6
482.896
514.707
491.516
497.433
474.69
511.127
487.966
394.572
379.931
432.035
416.419
462.384
443.417
485.948
464.744
507.854
484.839
393.421
377.529
427.816
411.701
456.712
438.637
482.08
461.558
506.108
482.641
427.875
415.846
427.925
416.38
393.228
371.967
392.769
369.785
458.686
449.401
457.926
447.184
428.023
416.167
428.926
417.261
393.268
369.225
394.509
370.938
458.863
449.485
459.871
450.64
487.316
478.27
512.423
504
485.513
474.655
510.373
499.109
487.563
478.482
513.164
505.429
488.113
479.2
513.389
505.223
460.598
437.286
424.421
463.918
439.631
426.557
456.106
432.464
419.612
461.466
436.354
422.891
447.353
423.276
410.16
457.499
431.06
417.015
360.926
346.547
339.05
395.172
375.425
364.729
419.964
396.959
384.135
438.079
413.719
400.508
452.862
425.003
410.081
357.502
342.687
334.596
391.906
373.45
363.502
415.773
393.955
382.068
433.894
408.598
394.893
447.522
419.45
404.653
402.371
388.401
406.389
392.764
432.905
415.705
442.003
422.318
373.182
352.552
374.42
354.442
374.154
353.107
375.895
355.523
373.885
370.782
373.27
366.891
352.119
356.073
395.486
398.227
426.9
430.837
375.254
377.318
375.634
377.082
358.184
359.402
330.889
311.868
336.162
314.816
332.424
311.622
337.561
314.927
333.509
311.175
339.797
315.459
342.538
317.278
344.222
318.632
366.26
354.176
373.529
359.136
393.257
379.388
401.874
384.74
352.453
339.196
345.316
334.777
377.521
362.027
379.767
363.476
406.924
387.896
409.702
389.376
355.946
341.797
357.731
343.162
334.815
312.983
323.757
308.191
328.756
309.487
320.301
305.912
338.162
315.284
325.942
309.695
339.961
316.804
327.23
310.611
314.112
304.248
305.843
299.789
315.303
305.843
305.638
299.983
316.825
309.205
305.322
300.795
345.912
369.19
329.492
318.637
304.695
367.122
342.456
323.822
312.678
301.272
367.384
344.314
327.527
315.517
303.223
296.974
290.694
293.995
288.211
299.163
292.685
294.856
289.177
302.97
296.604
296.331
290.832
359.942
346.803
335.61
324.7
318.935
311.226
308.107
301.471
298.224
292.989
359.704
346.158
337.798
326.953
322.013
313.538
310.598
303.314
300.567
295.272
340.919
327.642
342.199
327.392
361.423
344.446
362.747
342.89
326.236
315.162
324.981
314.821
343.283
327.264
344.603
328.621
364.358
341.729
365.881
343.238
327.181
315.504
328.25
316.557
313.055
304.876
302.819
296.029
312.67
304.154
302.146
295.773
313.335
305.598
303.187
296.155
314.644
306.254
303.714
297.099
283.501
279.526
277.949
278.925
276.273
275.37
285.726
281.36
279.51
279.824
277.006
275.956
289.369
284.483
282.459
281.25
278.091
276.929
332.219
321.724
316.565
314.176
306.563
303.035
302.453
296.374
293.771
293.401
288.036
285.743
282.673
279.304
277.921
330.726
319.645
314.136
315.1
306.35
302.004
303.71
296.716
293.38
293.994
288.694
286.472
283.656
280.243
278.536
296.686
287.576
282.407
278.978
297.888
288.021
282.618
279.03
296.565
287.576
282.458
279.045
298.032
288.141
282.76
279.139
296.308
287.545
282.543
279.155
298.204
288.306
282.94
279.275
299.064
288.761
283.085
279.317
299.86
289.23
283.241
279.365
297.345
288.075
282.854
279.328
295.642
287.501
282.488
279.325
295.814
287.431
282.555
279.267
294.627
287.046
282.275
279.294
298.454
288.6
283.04
279.357
296.454
287.906
282.653
279.372
299.274
289.04
283.227
279.438
297.093
288.264
282.837
279.476
294.691
286.876
282.103
278.935
292.408
286.083
281.707
278.908
294.554
286.854
282.12
278.984
292.432
286.111
281.723
278.952
294.331
286.812
282.144
279.069
292.664
286.228
281.788
279.03
293.991
286.737
282.135
279.174
292.802
286.312
281.855
279.14
293.605
286.638
282.057
279.257
290.405
285.436
281.231
278.993
289.302
285.128
281.014
278.995
290.714
285.555
281.298
279.037
289.652
285.259
281.08
279.036
291.231
285.761
281.404
279.109
290.251
285.49
281.185
279.105
291.883
286.016
281.569
279.219
291.029
285.79
281.341
279.2
292.745
286.353
281.767
279.331
291.834
286.109
281.497
279.294
293.945
286.975
282
279.476
292.962
286.736
281.784
279.477
293.406
286.662
281.886
279.409
292.5
286.439
281.646
279.389
294.397
287.278
282.097
279.533
293.378
287.032
281.897
279.554
294.888
287.596
282.25
279.627
293.869
287.344
282.048
279.654
276.526
275.13
274.269
273.784
273.567
276.537
275.133
274.271
273.784
273.567
276.55
275.14
274.274
273.786
273.568
276.566
275.147
274.277
273.787
273.569
276.575
275.152
274.279
273.788
273.57
276.609
275.168
274.287
273.792
273.572
276.673
275.2
274.303
273.8
273.577
276.732
275.23
274.318
273.808
273.582
276.637
275.18
274.293
273.795
273.574
276.643
275.182
274.293
273.795
273.574
276.603
275.164
274.285
273.791
273.572
276.622
275.172
274.288
273.793
273.573
276.676
275.2
274.302
273.8
273.577
276.679
275.2
274.302
273.8
273.577
276.738
275.233
274.319
273.809
273.582
276.739
275.233
274.319
273.809
273.582
276.513
275.125
274.267
273.783
273.566
276.506
275.123
274.266
273.782
273.566
276.532
275.133
274.271
273.784
273.567
276.523
275.13
274.269
273.784
273.567
276.556
275.143
274.275
273.786
273.569
276.548
275.139
274.273
273.785
273.568
276.585
275.155
274.28
273.789
273.57
276.574
275.15
274.278
273.788
273.569
276.605
275.164
274.285
273.791
273.571
527.379
521.262
526.848
520.748
525.831
519.817
524.702
518.551
524.142
517.69
526.916
523.507
525.526
521.082
527.721
524.564
528.294
525.133
563.298
570.844
572.508
572.889
572.972
555.226
568.658
572.008
572.782
572.946
563.51
570.927
572.531
572.895
572.973
555.3
568.734
572.032
572.789
572.948
563.637
571.002
572.553
572.901
572.975
555.305
568.805
572.059
572.796
572.95
563.84
571.091
572.576
572.906
572.976
555.297
568.86
572.077
572.8
572.951
564.071
571.147
572.586
572.907
572.976
555.372
568.877
572.074
572.798
572.95
563.014
570.7
572.453
572.872
572.966
555.363
568.538
571.937
572.756
572.937
563.399
570.894
572.515
572.889
572.971
555.282
568.69
572.006
572.778
572.944
562.773
570.576
572.411
572.859
572.962
555.445
568.462
571.897
572.742
572.932
562.98
570.614
572.415
572.859
572.961
555.664
568.495
571.895
572.739
572.931
409.583
450.476
447.479
407.427
388.336
390.258
395.866
399.188
409.366
412.827
437.224
444.914
441.988
449.363
418.3
421.085
408.593
411.193
399.594
401.696
347.017
329.396
288.676
284.558
287.077
284.754
288.056
344.402
336.682
320.645
324.8
318.424
301.946
310.473
305.193
297.395
299.706
295.99
339.99
314.798
300.177
298.583
304.32
301.011
294.921
294.514
292.163
290.264
295.477
294.458
341.208
320.835
326.668
310.897
304.903
315.562
295.398
290.069
297.684
332.169
318.991
308.028
296.871
282.336
320.113
310.685
301.265
291.27
279.506
287.008
284.722
281.805
278.456
274.848
283.367
281.709
279.562
277.073
274.38
285.608
283.574
280.952
277.927
274.668
283.544
281.858
279.673
277.14
274.403
286.468
284.28
281.476
278.251
274.778
330.257
316.445
305.239
294.336
281.434
323.033
310.542
300.267
290.34
279.198
312.89
304.54
296.081
287.405
278.005
313.952
303.702
294.993
286.613
277.855
309.246
300.127
292.321
284.828
277.105
298.206
293.561
288.158
282.308
276.149
304.845
298.439
291.557
284.393
276.883
300.604
295.184
289.183
282.878
276.337
294.477
290.693
286.118
281.064
275.723
296.33
292.075
287.066
281.621
275.91
293.3
289.769
285.452
280.655
275.584
327.55
314.922
304.393
293.83
281.134
308.77
301.789
294.254
286.258
277.562
296.856
292.609
287.539
281.957
276.032
295.552
291.615
286.847
281.546
275.894
300.327
295.354
289.569
283.249
276.485
297.647
293.311
288.111
282.341
276.164
292.452
289.163
285.085
280.477
275.531
292.1
288.873
284.86
280.329
275.48
290.059
287.21
283.623
279.557
275.216
288.407
285.871
282.647
278.965
275.018
292.896
289.481
285.273
280.564
275.556
292.042
288.816
284.806
280.288
275.465
328.18
315.787
305.408
294.802
281.476
313.619
305.734
297.446
288.552
278.456
318.625
308.725
299.543
289.88
278.523
305.916
299.823
292.948
285.437
277.225
300.949
295.935
290.053
283.565
276.576
309.593
302.436
294.78
286.591
277.566
292.862
289.492
285.32
280.616
275.578
288.231
285.724
282.541
278.904
274.998
294.808
291.04
286.441
281.302
275.81
494.297
539.916
485.624
528.829
459.974
507.127
467.902
519.376
475.572
463.576
506.797
480.184
449.554
436.315
478.748
450.676
513.545
529.644
549.108
555.657
506.972
523.207
541.865
549.943
525.803
500.262
499.511
484.505
517.996
539.52
532.952
540.799
492.165
501.849
507.699
515.566
461.972
470.249
545.211
552.517
513.125
525.303
557.054
564.794
544.205
561.905
561.437
568.713
536.882
559.281
555.883
566.706
528.525
555.007
544.527
562.206
554.806
565.709
560.583
567.789
456.562
444.689
466.699
448.612
424.272
414.275
433.223
417.535
495.298
477.604
485.411
472.79
473.895
451.426
478.183
452.911
439.905
420.024
443.818
421.267
502.584
480.862
506.849
482.543
523.412
555.176
507.799
543.688
514.099
549.716
502.062
539.197
529.742
557.995
511.21
546.277
533.218
559.289
512.81
547.83
530.724
515.576
555.734
545.324
523.195
508.714
552.846
541.596
514.409
500.851
547.755
535.83
445.603
414.443
475.346
502.454
540.293
414.458
443.297
468.763
493.61
529.428
410.774
440.366
467.281
494.198
530.469
492.313
473.968
509.793
492.974
488.584
470.117
509.533
491.936
484.302
466.465
508.665
490.465
406.36
394.45
434.864
421.966
458.804
443.485
480.885
464.115
507.499
488.817
402.782
388.601
431.914
419.241
457.713
444.084
482.394
466.47
507.313
487.658
430.651
420.259
429.613
418.912
398.565
378.888
395.789
373.819
459.556
451.04
459.156
450.112
428.88
417.423
429.184
417.629
394.692
371.072
394.929
371.477
459.344
450.325
460.019
450.889
487.849
479.372
512.92
504.862
486.212
476.847
511.19
500.969
487.882
479.04
513.43
505.836
488.218
479.377
513.466
505.337
460.189
452.935
477.758
470.643
456.046
448.063
476.102
467.427
452.148
443.649
473.323
462.242
382.354
375.57
409.941
401.529
430.927
421.327
449.613
439.437
469.355
455.791
372.805
367.069
407.129
399.584
430.521
421.066
449.113
437.106
463.733
450.029
390.967
382.934
400.483
390.246
419.104
407.359
436.604
418.473
371.358
352.769
376.232
356.45
369.642
352.879
375.151
356.816
372.52
366.642
372.712
365.369
352.674
357.027
394.264
397.868
424.961
430.241
374.663
377.161
375.368
377.003
358.794
359.635
338.958
320.473
341.071
321.264
339.768
319.654
341.679
320.549
340.13
318.335
342.969
319.896
344.288
319.946
344.795
319.536
369.674
360.694
374.606
362.416
394.116
384.133
401.56
386.901
355.043
343.182
351.186
342.062
377.922
363.621
379.874
363.981
406.607
388.879
409.596
389.68
357.132
343.829
358.074
343.815
338.63
316.945
327.875
311.824
336.17
315.778
327.326
311.548
340.04
317.491
328.137
311.737
340.516
317.505
327.952
311.282
335.346
332.343
318.502
315.623
335.862
332.898
317.498
314.668
335.527
332.722
315.98
313.344
363.521
385.905
346.032
332.841
313.822
386.66
364.044
345.392
331.224
312.178
381.781
359.291
341.056
326.854
311.066
328.993
324.03
311.324
303.964
329.747
325.089
310.755
303.785
329.574
324.776
309.842
303.343
379.415
369.207
358.366
350.398
341.732
336.229
327.916
322.439
309.524
303.662
374.024
361.152
353.437
343.22
336.493
328.429
322.712
315.435
308.922
303.625
349.522
336.429
346.879
332.215
369.221
353.053
366.972
347.72
330.895
319.611
333.304
322.858
345.512
329.476
345.269
329.269
366.31
343.917
366.454
343.875
329.467
317.581
328.949
317.176
317.188
308.589
306.284
298.907
319.95
310.76
307.755
300.657
315.466
307.424
305.045
297.605
315.35
306.831
304.265
297.522
318.989
316.871
290.766
288.903
321.337
318.711
291.261
289.259
319.976
316.187
291.596
289.154
359.458
353.721
342.945
338.587
329.868
326.098
315.92
311.89
291.77
288.78
348.342
343.937
332.987
329.157
319.545
316.207
306.347
303.91
290.366
287.995
302.169
290.638
284.136
279.927
302.578
290.775
284.226
279.929
301.706
290.463
284.092
279.939
302.162
290.594
284.208
279.952
300.909
290.151
284.039
279.985
301.525
290.307
284.138
279.944
301.174
290.069
283.862
279.735
300.601
289.698
283.522
279.522
300.097
289.727
283.851
279.904
298.127
289
283.395
279.891
299.729
289.673
283.862
280.012
298.216
289.121
283.466
279.992
300.107
289.627
283.682
279.75
297.918
288.818
283.226
279.751
299.83
289.392
283.448
279.57
297.579
288.571
283.033
279.607
301.345
290.352
283.987
279.959
300.127
289.949
283.703
280.008
300.887
290.193
283.934
279.972
299.758
289.833
283.649
280.017
300.148
289.926
283.847
280.006
299.188
289.634
283.576
280.039
299.073
289.509
283.671
280.043
298.616
289.411
283.497
280.075
298.15
289.164
283.444
280.054
298.736
289.57
283.258
280.209
297.768
289.372
283.072
280.279
298.542
289.502
283.256
280.216
297.6
289.305
283.063
280.278
298.182
289.364
283.222
280.212
297.303
289.176
283.023
280.268
297.864
289.197
283.217
280.224
297.056
289.016
282.995
280.26
297.502
288.981
283.19
280.224
296.729
288.815
282.936
280.237
296.408
288.487
282.876
280.059
295.387
288.256
282.652
280.067
297.013
288.762
283.061
280.165
296.097
288.56
282.817
280.173
295.823
288.191
282.638
279.905
294.758
287.941
282.427
279.921
295.348
287.898
282.432
279.753
294.307
287.641
282.224
279.776
276.986
275.359
274.382
273.841
273.603
276.98
275.356
274.381
273.84
273.602
276.976
275.351
274.378
273.839
273.601
276.962
275.345
274.375
273.837
273.6
276.961
275.342
274.373
273.836
273.6
276.927
275.327
274.366
273.833
273.597
276.872
275.3
274.352
273.826
273.593
276.81
275.27
274.338
273.818
273.588
276.913
275.318
274.361
273.83
273.596
276.917
275.319
274.361
273.83
273.596
276.944
275.333
274.368
273.834
273.598
276.937
275.327
274.365
273.832
273.597
276.875
275.301
274.352
273.826
273.593
276.877
275.301
274.353
273.826
273.593
276.805
275.268
274.336
273.818
273.588
276.809
275.269
274.337
273.818
273.588
276.993
275.362
274.383
273.842
273.603
276.999
275.364
274.384
273.842
273.603
276.987
275.357
274.38
273.84
273.602
276.996
275.359
274.381
273.841
273.602
276.978
275.349
274.376
273.838
273.6
276.989
275.353
274.378
273.839
273.601
276.965
275.34
274.371
273.835
273.599
276.974
275.344
274.373
273.836
273.599
276.95
275.333
274.368
273.833
273.598
524.986
520.166
525.166
520.325
525.261
520.42
525.097
520.019
525.115
519.609
527.434
524.147
526.339
522.272
527.997
524.878
528.377
525.224
563.057
570.821
572.506
572.889
572.972
554.956
568.621
572.004
572.781
572.946
563.362
570.917
572.53
572.895
572.973
555.187
568.722
572.032
572.789
572.948
563.629
571.01
572.555
572.901
572.975
555.427
568.83
572.064
572.797
572.95
563.955
571.115
572.581
572.907
572.976
555.626
568.92
572.088
572.802
572.951
564.248
571.179
572.592
572.908
572.976
555.795
568.953
572.088
572.8
572.95
563.137
570.727
572.459
572.873
572.966
555.594
568.593
571.949
572.759
572.937
563.571
570.928
572.521
572.89
572.971
555.637
568.764
572.02
572.781
572.944
562.843
570.593
572.415
572.86
572.962
555.569
568.494
571.905
572.744
572.932
563.002
570.62
572.416
572.859
572.961
555.702
568.505
571.898
572.74
572.931
408.886
449.613
444.651
404.855
396.139
403.33
394.01
402.787
425.01
443.393
429.148
446.579
274.906
275.24
275.982
277.208
278.994
281.427
275.177
275.521
276.277
277.504
279.275
281.686
274.691
274.585
275.019
274.906
275.761
275.64
277.035
276.942
278.914
278.941
281.519
281.79
284.567
288.802
294.779
303.428
311.028
316.642
284.857
288.972
294.169
300.168
305.499
308.928
274.723
274.46
274.109
273.692
273.235
275.024
274.714
274.301
273.812
273.276
275.692
275.278
274.728
274.077
273.366
276.794
276.207
275.43
274.514
273.514
278.398
277.555
276.446
275.145
273.728
280.576
279.381
277.818
275.995
274.016
274.967
274.666
274.265
273.789
273.268
275.276
274.927
274.462
273.912
273.31
275.957
275.501
274.896
274.182
273.401
277.059
276.429
275.596
274.617
273.549
278.648
277.763
276.601
275.241
273.76
280.803
279.568
277.957
276.08
274.045
274.528
274.295
273.984
273.615
273.209
274.432
274.214
273.923
273.576
273.196
274.824
274.545
274.174
273.733
273.249
274.722
274.459
274.108
273.692
273.235
275.493
275.11
274.601
273.999
273.339
275.384
275.019
274.532
273.956
273.325
276.639
276.077
275.332
274.453
273.493
276.556
276.008
275.28
274.421
273.483
278.327
277.497
276.403
275.118
273.719
278.352
277.518
276.419
275.128
273.722
280.66
279.453
277.873
276.029
274.027
280.903
279.657
278.027
276.124
274.059
283.373
281.713
279.565
277.075
274.381
287.119
284.815
281.877
278.503
274.864
292.343
289.094
285.05
280.465
275.53
299.755
295.07
289.472
283.23
276.477
306.077
300.093
293.218
285.642
277.338
310.64
303.68
295.918
287.426
277.986
283.627
281.922
279.719
277.17
274.414
287.268
284.939
281.97
278.562
274.885
291.829
288.69
284.76
280.287
275.47
297.036
292.936
287.911
282.247
276.139
301.605
296.635
290.66
283.974
276.736
304.516
298.982
292.412
285.088
277.125
274.943
275.358
276.203
277.569
279.543
282.218
275.217
275.648
276.509
277.867
279.802
282.401
274.725
274.617
275.129
275.011
275.974
275.847
277.399
277.305
279.499
279.546
282.435
282.835
285.624
290.112
296.254
304.789
311.993
316.992
285.764
290.031
295.283
301.164
306.193
309.177
274.756
274.488
274.131
273.706
273.24
275.131
274.805
274.371
273.856
273.291
275.892
275.449
274.858
274.159
273.394
277.122
276.486
275.643
274.648
273.56
278.897
277.982
276.772
275.35
273.798
281.296
279.996
278.29
276.292
274.117
275.003
274.697
274.289
273.804
273.273
275.392
275.025
274.537
273.959
273.326
276.167
275.68
275.033
274.268
273.431
277.389
276.71
275.811
274.752
273.595
279.126
278.172
276.914
275.437
273.827
281.455
280.125
278.384
276.349
274.136
274.559
274.322
274.004
273.627
273.213
274.462
274.239
273.942
273.588
273.2
274.924
274.631
274.239
273.773
273.263
274.818
274.541
274.171
273.731
273.248
275.686
275.275
274.727
274.077
273.366
275.571
275.178
274.654
274.032
273.351
276.97
276.359
275.547
274.588
273.54
276.886
276.288
275.494
274.556
273.528
278.859
277.951
276.75
275.336
273.793
278.902
277.988
276.779
275.354
273.799
281.493
280.165
278.419
276.373
274.145
281.854
280.47
278.65
276.516
274.193
284.337
282.54
280.201
277.476
274.518
288.318
285.847
282.674
279.008
275.037
293.701
290.272
285.968
281.05
275.732
301.024
296.185
290.354
283.8
276.675
306.988
300.904
293.869
286.071
277.489
310.974
303.98
296.162
287.589
278.044
284.454
282.63
280.264
277.514
274.531
288.237
285.772
282.614
278.969
275.024
292.852
289.576
285.447
280.725
275.621
297.957
293.739
288.539
282.649
276.278
302.25
297.201
291.107
284.263
276.837
304.749
299.187
292.575
285.194
277.162
347.61
329.905
290.394
285.843
289.377
286.439
290.171
352.263
349.21
328.726
339.687
308.22
318.705
302.959
306.868
301.289
344.811
319.941
305.056
302.561
308.721
304.247
297.081
297.503
296.41
293.646
299.917
298.115
343.124
322.297
330.025
313.047
307.6
319.386
298.059
292.741
301.091
332.799
319.586
308.553
297.274
282.501
320.617
311.15
301.656
291.544
279.607
288.581
286.075
282.85
279.118
275.074
284.538
282.712
280.333
277.559
274.546
287.705
285.371
282.334
278.801
274.967
285.078
283.17
280.68
277.775
274.62
288.4
285.94
282.755
279.06
275.055
338.616
324.353
312.039
299.255
283.423
336.287
322.64
310.457
297.589
282.046
320.841
311.79
302.041
291.451
279.482
329.444
317.353
306.163
294.327
280.829
304.123
298.794
292.313
285.011
277.096
312.838
305.633
297.374
288.261
278.27
299.648
295.214
289.667
283.346
276.514
303.008
297.926
291.672
284.598
276.947
298.215
294.058
288.813
282.813
276.33
332.546
319.647
308.462
296.769
282.322
313.719
306.254
297.883
288.679
278.427
301.415
296.617
290.702
284.002
276.743
299.25
294.852
289.392
283.184
276.461
304.466
299.017
292.484
285.149
277.149
300.662
295.959
290.2
283.69
276.631
294.445
290.895
286.436
281.341
275.828
294.855
291.264
286.723
281.518
275.889
293.945
290.556
286.212
281.201
275.781
291.496
288.522
284.692
280.26
275.462
297.003
293.056
288.066
282.351
276.173
295.414
291.743
287.087
281.744
275.966
330.183
317.648
307.016
295.988
281.965
315.038
307.021
298.503
289.272
278.717
321.954
311.762
302.069
291.61
279.111
307.951
301.638
294.405
286.394
277.557
303.477
298.166
291.824
284.715
276.975
313.269
305.744
297.466
288.379
278.192
295.32
291.628
286.987
281.682
275.945
290.677
287.829
284.168
279.935
275.352
297.967
293.799
288.605
282.691
276.29
277.424
285.96
293.833
300.851
306.672
311.187
472.36
466.592
441.436
447.132
457.966
450.752
433.238
423.824
494.001
513.435
489.516
508.187
483.527
473.429
502.668
460.564
456.422
432.393
436.704
449.356
444.131
425.634
418.432
481.334
496.488
478.497
492.94
473.675
465.455
488.808
444.034
441.574
419.515
422.376
436.678
433.877
414.559
409.452
462.576
477.528
460.915
475.443
458.074
452.64
472.818
427.294
425.74
405.834
407.932
422.266
420.651
401.902
397.65
444.737
459.584
443.7
457.93
441.532
437.102
455.778
415.193
413.9
395.797
397.664
410.603
408.784
392.051
387.311
431.222
444.693
430.524
444.055
428.7
424.513
442.331
406.835
405.605
388.988
390.769
402.372
400.462
385.375
380.767
421.183
434.82
420.521
434.613
419.01
415.067
432.848
388.827
385.927
413.066
417.005
382.13
374.948
407.22
397.924
365.306
345.934
363.032
345.513
358.132
356.95
344.759
384.162
381.353
406.578
409.935
377.717
370.968
401.331
393.107
360.06
343.726
357.712
343.58
353.405
352.652
342.768
377.254
374.72
396.902
399.532
371.407
365.609
392.589
385.969
357.583
342.24
355.518
341.538
351.596
350.768
340.194
369.496
367.039
386.102
388.334
363.33
357.312
382.182
375.638
353.19
339.665
350.986
338.205
346.905
345.301
335.942
363.801
361.394
378.179
380.27
357.84
351.917
374.379
367.915
349.712
338.236
347.275
335.707
342.919
340.542
332.367
360.215
357.826
372.914
374.943
354.365
348.492
369.214
363.007
348.279
336.781
345.662
333.536
340.592
337.672
329.699
537.642
555.631
522.958
544.715
504.432
529.45
476.137
503.141
480.071
507.304
506.359
533.306
518.521
543.194
530.885
551.994
494.506
476.457
513.483
485.935
466.914
447.736
484.541
455.71
545.687
552.525
559.942
563.371
534.368
543.489
551.419
556.898
533.19
518.863
505.177
496.912
533.741
545.787
535.238
541.31
494.798
502.529
509.975
516.176
464.359
470.932
547.484
552.972
515.533
525.892
558.747
565.06
557.246
566.33
566.055
570.271
549.001
563.17
560.315
568.145
538.23
558.023
548.959
563.65
556.444
566.294
560.913
567.918
460.869
444.756
469.512
448.905
426.297
412.178
434.91
416.754
498.447
478.378
490.582
473.933
475.319
451.627
478.579
452.974
440.843
419.717
444.09
421.174
504.12
481.282
507.275
482.674
526.123
556.121
508.517
543.904
518.844
551.342
503.248
539.49
531.025
558.457
511.583
546.397
533.566
559.419
512.925
547.867
551.191
538.169
562.48
552.859
541.916
528.865
558.482
547.669
529.042
515.553
551.843
539.682
443.221
403.86
479.291
508.56
542.299
402.338
440.645
473.714
500.959
531.432
401.659
437.652
468.291
495.954
530.697
512.451
488.547
516.861
493.984
506.584
482.875
514.721
491.523
497.423
474.681
511.13
487.969
394.571
379.93
432.033
416.417
462.38
443.413
485.943
464.74
507.854
484.84
393.42
377.528
427.814
411.699
456.709
438.635
482.077
461.556
506.107
482.64
427.873
415.845
427.924
416.379
393.227
371.966
392.768
369.784
458.684
449.399
457.924
447.183
428.021
416.166
428.925
417.26
393.267
369.224
394.508
370.938
458.861
449.483
459.869
450.639
487.315
478.269
512.422
504
485.511
474.653
510.372
499.108
487.562
478.481
513.163
505.428
488.112
479.199
513.388
505.222
460.764
437.466
424.62
464.024
439.766
426.712
456.094
432.454
419.607
461.47
436.357
422.896
447.347
423.273
410.158
457.5
431.061
417.016
360.925
346.546
339.05
395.17
375.424
364.729
419.962
396.958
384.134
438.076
413.717
400.507
452.862
425.003
410.081
357.501
342.687
334.596
391.904
373.449
363.502
415.772
393.954
382.068
433.893
408.597
394.893
447.521
419.45
404.653
402.379
388.404
406.397
392.766
432.912
415.707
442.008
422.32
373.049
352.494
374.256
354.363
374.139
353.094
375.879
355.512
373.883
370.779
373.27
366.89
352.114
356.068
395.488
398.229
426.901
430.838
375.254
377.319
375.634
377.083
358.183
359.402
330.837
311.86
336.099
314.802
332.422
311.613
337.558
314.921
333.507
311.172
339.794
315.456
342.537
317.276
344.223
318.632
366.261
354.176
373.529
359.137
393.258
379.388
401.875
384.74
352.453
339.196
345.316
334.777
377.522
362.027
379.767
363.476
406.924
387.895
409.702
389.376
355.946
341.797
357.732
343.162
334.815
312.982
323.756
308.191
328.755
309.485
320.301
305.911
338.162
315.283
325.942
309.694
339.961
316.804
327.23
310.611
314.07
304.187
305.834
299.764
315.304
305.846
305.63
299.978
316.825
309.207
305.318
300.794
345.912
369.19
329.492
318.637
304.694
367.121
342.456
323.823
312.679
301.272
367.383
344.315
327.527
315.517
303.222
296.902
290.619
293.971
288.184
299.171
292.693
294.86
289.184
302.973
296.608
296.333
290.835
359.942
346.802
335.61
324.7
318.936
311.228
308.109
301.473
298.224
292.99
359.703
346.158
337.798
326.953
322.013
313.539
310.599
303.314
300.568
295.273
340.919
327.642
342.199
327.392
361.422
344.445
362.746
342.89
326.235
315.162
324.981
314.821
343.282
327.263
344.602
328.621
364.358
341.728
365.881
343.238
327.181
315.504
328.25
316.556
313.055
304.876
302.818
296.029
312.67
304.154
302.146
295.773
313.335
305.598
303.186
296.155
314.644
306.254
303.715
297.099
283.437
279.471
277.898
278.919
276.262
275.359
285.739
281.371
279.519
279.833
277.013
275.961
289.375
284.488
282.463
281.253
278.095
276.932
332.219
321.724
316.565
314.177
306.564
303.035
302.455
296.375
293.773
293.404
288.039
285.745
282.675
279.306
277.923
330.726
319.645
314.136
315.1
306.35
302.004
303.711
296.717
293.381
293.995
288.695
286.473
283.657
280.244
278.537
296.688
287.575
282.404
278.974
297.883
288.016
282.612
279.025
296.562
287.575
282.457
279.045
298.031
288.141
282.759
279.139
296.307
287.545
282.543
279.155
298.203
288.306
282.94
279.275
299.063
288.761
283.085
279.317
299.86
289.23
283.241
279.365
297.345
288.075
282.854
279.328
295.642
287.501
282.487
279.325
295.813
287.431
282.555
279.267
294.627
287.046
282.275
279.294
298.454
288.6
283.04
279.357
296.453
287.906
282.653
279.372
299.274
289.04
283.227
279.438
297.093
288.264
282.837
279.476
294.694
286.876
282.102
278.932
292.404
286.081
281.705
278.907
294.552
286.853
282.119
278.984
292.43
286.111
281.722
278.951
294.33
286.812
282.143
279.068
292.663
286.228
281.788
279.03
293.991
286.736
282.135
279.174
292.802
286.312
281.855
279.14
293.605
286.638
282.057
279.257
290.401
285.434
281.23
278.991
289.293
285.125
281.012
278.994
290.716
285.556
281.298
279.037
289.655
285.26
281.079
279.035
291.232
285.762
281.404
279.109
290.253
285.491
281.185
279.105
291.883
286.016
281.569
279.219
291.03
285.79
281.341
279.199
292.745
286.353
281.767
279.331
291.835
286.109
281.497
279.294
293.944
286.975
282
279.476
292.962
286.736
281.784
279.476
293.406
286.662
281.886
279.409
292.5
286.439
281.646
279.389
294.397
287.278
282.096
279.533
293.378
287.032
281.896
279.553
294.888
287.596
282.25
279.627
293.869
287.344
282.048
279.654
276.525
275.129
274.269
273.783
273.567
276.535
275.133
274.27
273.784
273.567
276.55
275.14
274.274
273.786
273.568
276.566
275.147
274.277
273.787
273.569
276.575
275.152
274.279
273.789
273.57
276.609
275.168
274.287
273.793
273.572
276.673
275.2
274.303
273.8
273.577
276.732
275.23
274.318
273.808
273.582
276.637
275.18
274.293
273.795
273.574
276.643
275.182
274.293
273.795
273.574
276.603
275.164
274.285
273.791
273.572
276.622
275.172
274.288
273.793
273.573
276.676
275.2
274.302
273.8
273.577
276.679
275.2
274.302
273.8
273.577
276.738
275.233
274.319
273.809
273.582
276.739
275.233
274.319
273.809
273.582
276.512
275.125
274.267
273.783
273.566
276.505
275.122
274.266
273.782
273.566
276.532
275.133
274.271
273.784
273.567
276.523
275.13
274.269
273.784
273.567
276.556
275.143
274.275
273.786
273.569
276.548
275.139
274.273
273.785
273.568
276.585
275.155
274.281
273.789
273.57
276.574
275.15
274.278
273.788
273.569
276.605
275.164
274.285
273.791
273.571
527.438
521.326
526.868
520.768
525.841
519.826
524.706
518.555
524.144
517.691
526.915
523.507
525.526
521.082
527.721
524.564
528.293
525.132
563.343
570.855
572.51
572.89
572.972
555.255
568.665
572.009
572.782
572.946
563.527
570.933
572.532
572.895
572.973
555.319
568.741
572.034
572.789
572.948
563.643
571.004
572.554
572.901
572.975
555.314
568.809
572.06
572.796
572.95
563.842