/*--------------------------------*- C++ -*----------------------------------*\
| =========                 |                                                 |
| \\      /  F ield         | OpenFOAM: The Open Source CFD Toolbox           |
|  \\    /   O peration     | Version:  2412                                  |
|   \\  /    A nd           | Website:  www.openfoam.com                      |
|    \\/     M anipulation  |                                                 |
\*---------------------------------------------------------------------------*/
FoamFile
{
    version     2.0;
    format      ascii;
    arch        "LSB;label=32;scalar=64";
    class       surfaceScalarField;
    location    "100/topAir";
    object      phi;
}
// * * * * * * * * * * * * * * * * * * * * * * * * * * * * * * * * * * * * * //

dimensions      [1 0 -1 0 0 0 0];

oriented        oriented;

internalField   nonuniform List<scalar> 
3140
(
9.070492e-06
1.1624009e-07
8.2237417e-08
8.8429504e-06
1.2339689e-07
1.0414483e-07
8.6181739e-06
1.1471544e-07
1.100612e-07
8.3944596e-06
1.106212e-07
1.1309323e-07
8.1734349e-06
1.0684927e-07
1.1417568e-07
7.9591237e-06
1.0128401e-07
1.1302753e-07
7.7543794e-06
9.4531563e-08
1.1021307e-07
7.5611655e-06
8.6812463e-08
1.064019e-07
7.3817677e-06
7.7390492e-08
1.0200784e-07
7.2201513e-06
6.4365049e-08
9.7251961e-08
7.0844173e-06
4.3491475e-08
9.2243296e-08
6.9872849e-06
1.018317e-08
8.695011e-08
6.9552275e-06
-5.0042608e-08
8.2102084e-08
6.9293707e-06
-5.1977347e-08
7.7866325e-08
6.9006423e-06
-4.8244487e-08
7.7031417e-08
6.8624702e-06
-4.0683832e-08
7.8937446e-08
6.8107904e-06
-3.0647458e-08
8.242947e-08
6.7442221e-06
-1.9803241e-08
8.6492231e-08
6.6635258e-06
-9.3684426e-09
9.0202264e-08
6.5712665e-06
-2.1824508e-10
9.2630251e-08
6.4668613e-06
1.1637673e-08
9.2932039e-08
6.352438e-06
2.3560097e-08
9.1037649e-08
6.2276211e-06
3.8433427e-08
8.6565797e-08
6.0888154e-06
6.0035474e-08
7.895879e-08
5.9287995e-06
9.2263885e-08
6.7945274e-08
5.7315418e-06
1.4371944e-07
5.3734813e-08
5.4630942e-06
2.3055282e-07
3.8093327e-08
5.0518982e-06
3.8643587e-07
2.4959721e-08
4.3514512e-06
6.8401007e-07
1.6636801e-08
1.3034265e-06
-3.530264e-09
9.3010834e-06
-1.4089171e-10
8.4258629e-08
9.3177842e-06
-2.9759817e-10
1.0699362e-07
9.3192341e-06
-5.3977249e-10
1.1380535e-07
9.3126078e-06
-9.4613443e-10
1.1819368e-07
9.3002869e-06
-1.6369572e-09
1.2080718e-07
9.2831006e-06
-2.8160695e-09
1.2128638e-07
9.2622569e-06
-4.8239774e-09
1.2019922e-07
9.2391073e-06
-8.2172686e-09
1.1817946e-07
9.2147888e-06
-1.3877944e-08
1.1558696e-07
9.1896712e-06
-2.3111713e-08
1.1259447e-07
9.1613138e-06
-3.7487026e-08
1.0933606e-07
9.1229088e-06
-5.7460374e-08
1.0604862e-07
9.0530868e-06
-8.2600899e-08
1.023805e-07
8.9992182e-06
-9.7289992e-08
9.9182144e-08
8.9522103e-06
-9.6963743e-08
9.5729423e-08
8.9119708e-06
-9.2369058e-08
9.1928734e-08
8.8788203e-06
-8.5302589e-08
8.7811901e-08
8.8518324e-06
-7.6311773e-08
8.3505122e-08
8.8293175e-06
-6.6000892e-08
7.9159056e-08
8.8084777e-06
-5.4318906e-08
7.4955305e-08
8.7888562e-06
-3.9751564e-08
7.1030667e-08
8.7672085e-06
-2.1649786e-08
6.6883423e-08
8.7422301e-06
1.0418014e-09
6.2402496e-08
8.7051039e-06
4.0433874e-08
5.6767667e-08
8.6491225e-06
9.7678204e-08
5.0615667e-08
8.5601788e-06
1.8850562e-07
4.4216247e-08
8.4177001e-06
3.3522202e-07
3.788052e-08
8.1942627e-06
5.7477455e-07
3.5185607e-08
7.8689501e-06
9.655399e-07
4.3891224e-08
1.5537244e-06
8.4795178e-08
9.3009922e-06
-1.1644005e-07
8.4259501e-08
9.3174962e-06
-1.2379746e-07
1.0699589e-07
9.3185664e-06
-1.1542011e-07
1.1381012e-07
9.3112461e-06
-1.1182775e-07
1.1820193e-07
9.2976873e-06
-1.0889818e-07
1.2082001e-07
9.2783273e-06
-1.0476057e-07
1.2130453e-07
9.2537212e-06
-1.0043997e-07
1.2022202e-07
9.2241832e-06
-9.6882024e-08
1.1820283e-07
9.1893444e-06
-9.4639551e-08
1.1560041e-07
9.1479053e-06
-9.4247314e-08
1.1257464e-07
9.0974404e-06
-9.6223e-08
1.0920094e-07
9.0350938e-06
-1.006421e-07
1.0552835e-07
8.9574623e-06
-1.0651524e-07
1.0154583e-07
8.8727364e-06
-1.0993295e-07
9.7368996e-08
8.7900641e-06
-1.0719764e-07
9.2906304e-08
8.7112701e-06
-1.0168686e-07
8.8112074e-08
8.6381219e-06
-9.5149548e-08
8.2995464e-08
8.5721523e-06
-8.7924758e-08
7.7583089e-08
8.5144303e-06
-8.0165023e-08
7.1886824e-08
8.466061e-06
-7.1823668e-08
6.5875161e-08
8.4292236e-06
-6.2265735e-08
5.9353098e-08
8.4059484e-06
-5.0125452e-08
5.1752977e-08
8.3964797e-06
-3.236513e-08
4.2878989e-08
8.4046077e-06
-1.5950278e-09
3.3906019e-08
8.429521e-06
4.7458495e-08
2.5314003e-08
8.4778052e-06
1.2244571e-07
1.7787337e-08
8.5627388e-06
2.3771368e-07
1.2592472e-08
8.7088683e-06
4.1532524e-07
1.334721e-08
8.9590787e-06
6.8442161e-07
3.0951383e-08
1.0663394e-06
7.0561422e-08
9.0702656e-06
8.2238555e-08
8.84232e-06
1.041481e-07
8.6168313e-06
1.1006862e-07
8.3918969e-06
1.1310668e-07
8.1688015e-06
1.1419713e-07
7.9509826e-06
1.1305837e-07
7.740291e-06
1.1025164e-07
7.5369703e-06
1.0643869e-07
7.3403144e-06
1.0201636e-07
7.1488939e-06
9.7173145e-08
6.9606782e-06
9.1992764e-08
6.7735435e-06
8.649255e-08
6.586393e-06
8.0635274e-08
6.402094e-06
7.4366142e-08
6.2272467e-06
6.7649724e-08
6.0650794e-06
6.0480456e-08
5.9170196e-06
5.2910278e-08
5.7841023e-06
4.4992615e-08
5.6673344e-06
3.6603012e-08
5.5680439e-06
2.7466952e-08
5.4885423e-06
1.7235999e-08
5.4341615e-06
4.2555792e-09
5.4106664e-06
-8.8696193e-09
5.4334386e-06
-2.4366556e-08
5.5225202e-06
-4.1621929e-08
5.7013503e-06
-5.638231e-08
6.0023095e-06
-6.3241825e-08
6.4766627e-06
-5.9021087e-08
7.2036169e-06
-4.2519169e-08
-2.4143826e-08
9.1966003e-06
1.1818217e-07
3.6424443e-08
9.1100274e-06
1.2543304e-07
6.5284761e-08
9.0240236e-06
1.1649664e-07
7.9568477e-08
8.9373977e-06
1.1266195e-07
8.705738e-08
8.8506212e-06
1.0931461e-07
9.1637834e-08
8.7655281e-06
1.041678e-07
9.3953084e-08
8.6835235e-06
9.7890407e-08
9.4327655e-08
8.6058621e-06
9.0767481e-08
9.329622e-08
8.5343827e-06
8.2147744e-08
9.1340023e-08
8.472433e-06
7.0375753e-08
8.8826558e-08
8.4265392e-06
5.1992363e-08
8.6145381e-08
8.407828e-06
2.1742508e-08
8.3919682e-08
8.4359276e-06
-2.8895318e-08
8.2899459e-08
8.4675203e-06
-4.086071e-08
8.7161306e-08
8.4967964e-06
-5.1806577e-08
9.9611155e-08
8.5192224e-06
-6.239765e-08
1.1897796e-07
8.5311784e-06
-7.2308326e-08
1.4286796e-07
8.5314493e-06
-8.2665001e-08
1.6898766e-07
8.5206224e-06
-9.4178463e-08
1.9532241e-07
8.5000127e-06
-1.0684059e-07
2.2020649e-07
8.4706886e-06
-1.2006992e-07
2.4246173e-07
8.4332455e-06
-1.3257095e-07
2.6119497e-07
8.3867473e-06
-1.4236049e-07
2.755737e-07
8.3277833e-06
-1.4652732e-07
2.8460396e-07
8.2488234e-06
-1.3988166e-07
2.869443e-07
8.1364286e-06
-1.1467636e-07
2.8096646e-07
7.9696374e-06
-5.9743206e-08
2.6479146e-07
7.7089866e-06
5.050361e-08
2.3527385e-07
7.2610735e-06
2.7930895e-07
1.8541056e-07
8.0897737e-07
1.1054552e-07
9.4338818e-06
-1.4121412e-10
3.76612e-08
9.5986054e-06
-2.9755965e-10
6.8000606e-08
9.7458342e-06
-5.3627788e-10
8.3609533e-08
9.885145e-06
-9.3237336e-10
9.2477187e-08
1.0018311e-05
-1.5981182e-09
9.8553746e-08
1.0144027e-05
-2.7216717e-09
1.0245981e-07
1.0262231e-05
-4.6142342e-09
1.0449979e-07
1.0373793e-05
-7.7794276e-09
1.0516469e-07
1.0479677e-05
-1.3006852e-08
1.0485719e-07
1.058031e-05
-2.145373e-08
1.0379188e-07
1.0674167e-05
-3.453367e-08
1.0200485e-07
1.0755617e-05
-5.2945415e-08
9.9286167e-08
1.0809736e-05
-7.5875473e-08
9.5242373e-08
1.0872376e-05
-9.2489893e-08
8.8171494e-08
1.093637e-05
-9.9105646e-08
7.9036743e-08
1.1001759e-05
-1.0466885e-07
6.8813789e-08
1.1069378e-05
-1.1021688e-07
5.8105303e-08
1.1138731e-05
-1.1602007e-07
4.7514123e-08
1.1208874e-05
-1.2254462e-07
3.7389814e-08
1.1278918e-05
-1.2988404e-07
2.7964838e-08
1.1348241e-05
-1.3754819e-07
1.9199064e-08
1.1416259e-05
-1.4444636e-07
1.075508e-08
1.1482287e-05
-1.4828948e-07
2.3208429e-09
1.1546992e-05
-1.4511903e-07
-9.3257639e-09
1.1609768e-05
-1.2850915e-07
-2.3510912e-08
1.1669503e-05
-8.833938e-08
-4.1831101e-08
1.1728081e-05
-1.4378046e-08
-6.6034189e-08
1.1771051e-05
1.4133119e-07
-9.8579469e-08
1.1826038e-05
4.0485223e-07
-1.3659595e-07
8.005078e-07
-1.7248316e-07
9.4337925e-06
-1.1838248e-07
3.7660801e-08
9.5983239e-06
-1.2583294e-07
6.7999893e-08
9.7451862e-06
-1.1719669e-07
8.3608214e-08
9.8838346e-06
-1.138528e-07
9.2473948e-08
1.0015832e-05
-1.1132032e-07
9.8545147e-08
1.0139517e-05
-1.0754061e-07
1.0243804e-07
1.0254245e-05
-1.0356836e-07
1.0444819e-07
1.0359968e-05
-1.0034952e-07
1.050502e-07
1.0456337e-05
-9.839389e-08
1.0461867e-07
1.0542296e-05
-9.8168126e-08
1.0332918e-07
1.061592e-05
-1.0014891e-07
1.01193e-07
1.0674884e-05
-1.0445578e-07
9.8074277e-08
1.0717113e-05
-1.1026735e-07
9.3708405e-08
1.0749114e-05
-1.1459316e-07
8.7471501e-08
1.0778503e-05
-1.146944e-07
7.9106302e-08
1.0806553e-05
-1.1339236e-07
6.8785947e-08
1.083468e-05
-1.1206784e-07
5.6719476e-08
1.0864054e-05
-1.1087628e-07
4.3066028e-08
1.0895472e-05
-1.1001861e-07
2.7942729e-08
1.0929748e-05
-1.0968886e-07
1.1404558e-08
1.0968213e-05
-1.094148e-07
-7.2439457e-09
1.1013422e-05
-1.0858207e-07
-2.9319853e-08
1.1068615e-05
-1.0651281e-07
-5.4089183e-08
1.1140287e-05
-1.0016454e-07
-8.2718458e-08
1.1238432e-05
-8.4982871e-08
-1.163545e-07
1.1377568e-05
-5.3274088e-08
-1.5641102e-07
1.1571349e-05
8.4844192e-09
-2.0404762e-07
1.1864132e-05
1.1968923e-07
-2.5778841e-07
1.2332472e-05
2.8347512e-07
-3.1600129e-07
4.9255928e-07
-3.7164541e-07
9.1963778e-06
3.6422397e-08
9.1094128e-06
6.5280206e-08
9.022725e-06
7.9559714e-08
8.9349388e-06
8.7040124e-08
8.8462131e-06
9.1602424e-08
8.7578521e-06
9.3878799e-08
8.6703645e-06
9.4170882e-08
8.583487e-06
9.2966662e-08
8.496456e-06
9.0653444e-08
8.408052e-06
8.7409071e-08
8.3166576e-06
8.3238251e-08
8.2206925e-06
7.8001898e-08
8.1196362e-06
7.1424197e-08
8.0162975e-06
6.3111766e-08
7.9164949e-06
5.275787e-08
7.8232315e-06
4.0351617e-08
7.7380051e-06
2.606887e-08
7.6617956e-06
1.0325858e-08
7.5958751e-06
-7.495069e-09
7.5422503e-06
-2.8597018e-08
7.501946e-06
-5.1874423e-08
7.4761463e-06
-7.8526651e-08
7.4701448e-06
-1.0938074e-07
7.4917209e-06
-1.4610685e-07
7.5555478e-06
-1.9043132e-07
7.6896837e-06
-2.4379171e-07
7.9428127e-06
-3.0788578e-07
8.3863604e-06
-3.8287861e-07
9.0935927e-06
-4.6627437e-07
-5.5067126e-07
9.1678439e-06
1.1799974e-07
1.9550303e-08
9.0713552e-06
1.2502274e-07
3.6750771e-08
8.9875689e-06
1.1556691e-07
4.7788048e-08
8.9089552e-06
1.1135076e-07
5.4320525e-08
8.8344355e-06
1.0776438e-07
5.8393332e-08
8.765133e-06
1.0241087e-07
6.0845051e-08
8.701554e-06
9.5948288e-08
6.1958702e-08
8.6441658e-06
8.8667778e-08
6.2017149e-08
8.5943001e-06
7.9855579e-08
6.1350667e-08
8.5551017e-06
6.7717213e-08
6.0308373e-08
8.5333415e-06
4.8527328e-08
5.9378945e-08
8.5406438e-06
1.7142921e-08
5.9475271e-08
8.6002284e-06
-3.8292486e-08
6.1609103e-08
8.6588606e-06
-4.3981014e-08
7.2535442e-08
8.7113468e-06
-4.9003546e-08
9.6174575e-08
8.7537038e-06
-5.3959574e-08
1.3064493e-07
8.7826091e-06
-5.8955959e-08
1.7299938e-07
8.7971535e-06
-6.5741827e-08
2.202806e-07
8.7988677e-06
-7.5131648e-08
2.6884832e-07
8.7896492e-06
-8.7178131e-08
3.1672306e-07
8.7707605e-06
-1.014528e-07
3.6293286e-07
8.7422943e-06
-1.1683279e-07
4.0663168e-07
8.7025009e-06
-1.3119014e-07
4.4670118e-07
8.6462778e-06
-1.4058209e-07
4.8155801e-07
8.5641008e-06
-1.3940529e-07
5.0867921e-07
8.44022e-06
-1.1883172e-07
5.2383458e-07
8.251744e-06
-6.5921545e-08
5.1934802e-07
7.9607018e-06
4.5460193e-08
4.8101828e-07
7.4743498e-06
2.8292131e-07
3.8900639e-07
8.3617845e-07
2.3647707e-07
9.4045941e-06
-1.4216578e-10
2.016997e-08
9.5598195e-06
-2.9996485e-10
3.8097949e-08
9.7096327e-06
-5.4096144e-10
4.9904237e-08
9.8570991e-06
-9.4143737e-10
5.7302975e-08
1.0002667e-05
-1.6160215e-09
6.2366405e-08
1.0144379e-05
-2.7573595e-09
6.591613e-08
1.0281308e-05
-4.685261e-09
6.8204078e-08
1.04136e-05
-7.9192263e-09
6.9460158e-08
1.0541679e-05
-1.3276257e-08
6.9910032e-08
1.0665474e-05
-2.1952241e-08
6.9666655e-08
1.0782769e-05
-3.5381807e-08
6.8618379e-08
1.0887087e-05
-5.4108647e-08
6.6220213e-08
1.0960122e-05
-7.7715582e-08
6.1630402e-08
1.1045293e-05
-9.2721893e-08
5.1742053e-08
1.1133125e-05
-9.5642779e-08
3.7845435e-08
1.1223646e-05
-9.7173244e-08
2.1509535e-08
1.131794e-05
-9.8989929e-08
3.8487958e-09
1.1414766e-05
-1.0194517e-07
-1.3102693e-08
1.1512454e-05
-1.0698221e-07
-2.8439873e-08
1.1609355e-05
-1.1451992e-07
-4.1585868e-08
1.170396e-05
-1.2410891e-07
-5.2738519e-08
1.1794789e-05
-1.3432449e-07
-6.2568918e-08
1.188116e-05
-1.4271642e-07
-7.2508692e-08
1.1960685e-05
-1.4527827e-07
-8.413785e-08
1.2032002e-05
-1.344029e-07
-9.9811114e-08
1.2092831e-05
-9.8360557e-08
-1.2311025e-07
1.214149e-05
-2.1847105e-08
-1.5874339e-07
1.216469e-05
1.3836771e-07
-2.1465967e-07
1.2188943e-05
4.2287156e-07
-3.0076295e-07
8.5614986e-07
-4.2436176e-07
9.4045042e-06
-1.1820188e-07
2.0168845e-08
9.559535e-06
-1.254263e-07
3.8095432e-08
9.7089767e-06
-1.1627349e-07
4.9899061e-08
9.8557708e-06
-1.1255384e-07
5.7292204e-08
1.000015e-05
-1.0979402e-07
6.2343707e-08
1.0139794e-05
-1.0583199e-07
6.5868475e-08
1.0273178e-05
-1.017257e-07
6.8105567e-08
1.0399503e-05
-9.8455716e-08
6.9261605e-08
1.0517854e-05
-9.6533421e-08
6.9524696e-08
1.0626691e-05
-9.642454e-08
6.8964152e-08
1.0723615e-05
-9.8593581e-08
6.7480464e-08
1.0805922e-05
-1.0310992e-07
6.4768592e-08
1.0870662e-05
-1.0905734e-07
6.0310904e-08
1.0925443e-05
-1.1294861e-07
5.291742e-08
1.0978537e-05
-1.1168937e-07
4.205842e-08
1.103103e-05
-1.0870862e-07
2.7828889e-08
1.1084377e-05
-1.0569095e-07
1.0073145e-08
1.1139238e-05
-1.031375e-07
-1.0602192e-08
1.1195598e-05
-1.0128731e-07
-3.4111403e-08
1.1253459e-05
-1.0013825e-07
-6.0837475e-08
1.1313121e-05
-9.9813313e-08
-9.1200883e-08
1.137516e-05
-9.987485e-08
-1.258073e-07
1.1442446e-05
-9.8756037e-08
-1.653352e-07
1.1520229e-05
-9.3501064e-08
-2.1227696e-07
1.1617733e-05
-7.9053345e-08
-2.6920568e-07
1.1748528e-05
-4.600196e-08
-3.3956312e-07
1.1929233e-05
2.0680872e-08
-4.2727767e-07
1.2202581e-05
1.431025e-07
-5.3586661e-07
1.2649775e-05
3.2932956e-07
-6.6964658e-07
5.7573609e-07
-8.1955656e-07
9.1676181e-06
1.9546584e-08
9.0707298e-06
3.6742144e-08
8.9862455e-06
4.7770539e-08
8.9064458e-06
5.4285987e-08
8.829929e-06
5.8325236e-08
8.7572658e-06
6.071e-08
8.6880216e-06
6.1689381e-08
8.6210547e-06
6.1477804e-08
8.5549077e-06
6.0266976e-08
8.4877708e-06
5.8121428e-08
8.4174799e-06
5.493564e-08
8.3419529e-06
5.0418949e-08
8.2602334e-06
4.4086349e-08
8.1751266e-06
3.5270053e-08
8.0927568e-06
2.3438271e-08
8.0160963e-06
8.3035729e-09
7.9462634e-06
-9.7891265e-09
7.8840903e-06
-3.0638484e-08
7.8297261e-06
-5.4418107e-08
7.7825612e-06
-8.1570345e-08
7.7437807e-06
-1.1290712e-07
7.7153431e-06
-1.4996383e-07
7.7017931e-06
-1.9458655e-07
7.7111962e-06
-2.4901078e-07
7.759506e-06
-3.1779413e-07
7.8776554e-06
-4.0794259e-07
8.1184498e-06
-5.2799883e-07
8.5599283e-06
-6.8125364e-07
9.2857407e-06
-8.6275515e-07
-1.0444171e-06
9.1620255e-06
1.1814642e-07
8.3478813e-09
9.0571782e-06
1.2539517e-07
1.6202963e-08
8.9669575e-06
1.1604295e-07
2.1965948e-08
8.8837039e-06
1.1184777e-07
2.5726522e-08
8.8057271e-06
1.0825024e-07
2.8120146e-08
8.7341432e-06
1.0283524e-07
2.9594044e-08
8.6695121e-06
9.6239527e-08
3.0350554e-08
8.612263e-06
8.8728644e-08
3.0538045e-08
8.5637859e-06
7.9497599e-08
3.0330799e-08
8.5276409e-06
6.6504388e-08
2.9949556e-08
8.5117645e-06
4.5496493e-08
2.9759609e-08
8.5291164e-06
1.1611859e-08
3.0512379e-08
8.6106682e-06
-5.2903703e-08
3.2962773e-08
8.6835864e-06
-4.5782118e-08
4.5422714e-08
8.743159e-06
-3.3648872e-08
7.0293038e-08
8.7854745e-06
-1.8598837e-08
1.0698743e-07
8.8102887e-06
-3.1488415e-09
1.5140885e-07
8.8166108e-06
1.5404636e-08
1.9864397e-07
8.8076494e-06
3.1139725e-08
2.467744e-07
8.7847836e-06
4.4362711e-08
2.953435e-07
8.7481827e-06
5.5631614e-08
3.4403098e-07
8.696782e-06
6.5918443e-08
3.9225291e-07
8.6280197e-06
7.6662709e-08
4.3894816e-07
8.5360155e-06
9.1551224e-08
4.8216529e-07
8.4104616e-06
1.1572778e-07
5.1866519e-07
8.2336342e-06
1.578522e-07
5.4297393e-07
7.9742232e-06
2.3326737e-07
5.4565888e-07
7.5723598e-06
3.7267612e-07
5.1037537e-07
6.906239e-06
6.4395955e-07
4.1133946e-07
1.2347627e-06
2.453501e-07
9.3988008e-06
-1.4376898e-10
8.6203284e-09
9.5457523e-06
-3.0377204e-10
1.6845381e-08
9.6892211e-06
-5.4902841e-10
2.3027395e-08
9.8320525e-06
-9.5832897e-10
2.7277737e-08
9.9740861e-06
-1.6511552e-09
3.0234201e-08
1.0113341e-05
-2.8297502e-09
3.2326596e-08
1.0248884e-05
-4.8322936e-09
3.3732522e-08
1.0380724e-05
-8.2120674e-09
3.4561287e-08
1.0509068e-05
-1.3843834e-08
3.4906751e-08
1.0633456e-05
-2.3004019e-08
3.4787549e-08
1.0750721e-05
-3.7162062e-08
3.4012494e-08
1.0853232e-05
-5.6604596e-08
3.1925151e-08
1.0915887e-05
-8.1474356e-08
2.7546176e-08
1.0997019e-05
-9.2465707e-08
1.7294036e-08
1.1082683e-05
-8.6024126e-08
4.5580428e-09
1.1173862e-05
-7.5143832e-08
-1.3121787e-08
1.1268465e-05
-6.2859138e-08
-3.1040334e-08
1.1365327e-05
-4.884792e-08
-4.5707735e-08
1.1460846e-05
-3.5517893e-08
-5.7295371e-08
1.1552861e-05
-2.3296538e-08
-6.5934086e-08
1.1638759e-05
-1.1297428e-08
-7.1699113e-08
1.1714529e-05
2.565601e-09
-7.4975041e-08
1.1777409e-05
1.7732197e-08
-7.6444316e-08
1.1819786e-05
4.2943025e-08
-7.7890221e-08
1.1830964e-05
8.6458226e-08
-8.1699011e-08
1.179434e-05
1.6295435e-07
-9.1563943e-08
1.1686862e-05
2.9553739e-07
-1.1350453e-07
1.1480698e-05
5.2247024e-07
-1.5825008e-07
1.116702e-05
9.0403474e-07
-2.4710671e-07
1.4957951e-06
-4.1543043e-07
9.3987093e-06
-1.183511e-07
8.6194515e-09
9.5454616e-06
-1.2580405e-07
1.6843359e-08
9.6885486e-06
-1.1676019e-07
2.3023196e-08
9.8306859e-06
-1.1307248e-07
2.7269048e-08
9.9714865e-06
-1.1032426e-07
3.0216195e-08
1.0108584e-05
-1.0634804e-07
3.228946e-08
1.0240407e-05
-1.0220713e-07
3.3656949e-08
1.0365958e-05
-9.8912195e-08
3.4411103e-08
1.0484026e-05
-9.7006748e-08
3.4619967e-08
1.0592689e-05
-9.6983722e-08
3.4280152e-08
1.0689054e-05
-9.9301744e-08
3.3255522e-08
1.0769932e-05
-1.03927e-07
3.1213317e-08
1.0830891e-05
-1.0967928e-07
2.7556288e-08
1.0882284e-05
-1.1187767e-07
2.0936851e-08
1.0933855e-05
-1.0661116e-07
1.1074249e-08
1.0985984e-05
-9.8502425e-08
-9.4174843e-10
1.1041663e-05
-8.9013256e-08
-1.9450882e-08
1.1101082e-05
-7.9123321e-08
-3.9745627e-08
1.1163908e-05
-6.910594e-08
-6.3348834e-08
1.122958e-05
-5.9326982e-08
-9.0479333e-08
1.1297987e-05
-4.9723391e-08
-1.2118125e-07
1.1370096e-05
-3.9364517e-08
-1.5598539e-07
1.144447e-05
-2.5996282e-08
-1.9597973e-07
1.1521172e-05
-4.1103512e-09
-2.4192463e-07
1.1597161e-05
3.7221172e-08
-2.9595596e-07
1.1675644e-05
1.0607818e-07
-3.6116666e-07
1.1765981e-05
2.1987601e-07
-4.419487e-07
1.1892847e-05
4.0425077e-07
-5.4450302e-07
1.2113222e-05
6.9355641e-07
-6.7952652e-07
1.107664e-06
-8.579318e-07
9.1617944e-06
8.3451916e-09
9.056536e-06
1.619657e-08
8.9655935e-06
2.1952797e-08
8.8811066e-06
2.5700438e-08
8.8010389e-06
2.8068682e-08
8.7259087e-06
2.949211e-08
8.6552436e-06
3.0147383e-08
8.5876788e-06
3.01304e-08
8.5214322e-06
2.9506741e-08
8.4543035e-06
2.8266453e-08
8.3836652e-06
2.6272146e-08
8.3069401e-06
2.3217152e-08
8.2227488e-06
1.8598403e-08
8.134357e-06
1.1784197e-08
8.0483325e-06
2.8516025e-09
7.968374e-06
-1.0240274e-08
7.8956219e-06
-2.6050297e-08
7.8300972e-06
-4.4237074e-08
7.7712608e-06
-6.4687509e-08
7.7187177e-06
-8.8354171e-08
7.6732593e-06
-1.1717199e-07
7.6371154e-06
-1.531844e-07
7.615545e-06
-1.9901229e-07
7.6209961e-06
-2.5857197e-07
7.6765833e-06
-3.3615974e-07
7.8115362e-06
-4.3681667e-07
8.0694231e-06
-5.6600833e-07
8.5194945e-06
-7.2707121e-07
9.2665519e-06
-9.1624926e-07
-1.0980618e-06
9.1591496e-06
1.1816777e-07
5.8922359e-15
9.0498945e-06
1.2545813e-07
1.2282666e-15
8.9557872e-06
1.1607334e-07
1.67013e-15
8.8697176e-06
1.1179639e-07
-3.5887428e-16
8.7897336e-06
1.0810432e-07
8.4817121e-16
8.7167485e-06
1.0257947e-07
-2.7673826e-15
8.6512542e-06
9.5845235e-08
-5.2432017e-15
8.593652e-06
8.814067e-08
-9.4214429e-15
8.545411e-06
7.857245e-08
-1.8421419e-14
8.5104947e-06
6.4866484e-08
-2.661021e-14
8.4979707e-06
4.2284434e-08
-4.0299536e-14
8.5217365e-06
6.7476343e-09
-4.4744242e-14
8.6214124e-06
-6.6711493e-08
-5.4327122e-14
8.700913e-06
-3.4057284e-08
-4.7336058e-14
8.7697615e-06
1.4819251e-09
-4.1550859e-14
8.8186654e-06
5.8136451e-08
-3.2523989e-14
8.8458853e-06
1.2425623e-07
-2.1010887e-14
8.8556455e-06
1.8896586e-07
-1.8340989e-14
8.8491829e-06
2.5333338e-07
2.6986788e-15
8.826785e-06
3.1785102e-07
7.7191202e-15
8.7875469e-06
3.8339099e-07
2.382126e-14
8.7287006e-06
4.5123217e-07
-1.2432037e-13
8.644767e-06
5.2302421e-07
-1.1682734e-13
8.5259278e-06
6.0115519e-07
-1.603827e-13
8.355462e-06
6.8928838e-07
-1.9415224e-13
8.104933e-06
7.9366614e-07
-2.4947748e-13
7.7248404e-06
9.2591908e-07
-2.8795236e-13
7.1259958e-06
1.1093914e-06
-3.1634771e-13
6.1479021e-06
1.3896078e-06
-2.9198911e-13
1.8890616e-06
-2.1490479e-13
9.3958942e-06
-1.451125e-10
8.9289536e-15
9.5385046e-06
-3.0688566e-10
4.1020738e-15
9.6781608e-06
-5.5549949e-10
-1.9148115e-16
9.8182066e-06
-9.7162546e-10
2.6373945e-15
9.9582235e-06
-1.6783653e-09
-2.3009066e-15
1.0096015e-05
-2.8851371e-09
-4.4835864e-15
1.0230537e-05
-4.9440582e-09
-4.6491558e-15
1.0361673e-05
-8.4340671e-09
-1.2408421e-14
1.0489425e-05
-1.4273102e-08
-1.428502e-14
1.061287e-05
-2.3790594e-08
-1.9844731e-14
1.0727591e-05
-3.8424024e-08
-2.3151316e-14
1.0824424e-05
-5.8160053e-08
-2.4764435e-14
1.086862e-05
-8.3361243e-08
-2.8596563e-14
1.0938159e-05
-8.6301376e-08
-2.9913285e-14
1.1006934e-05
-6.2734802e-08
-3.6961489e-14
1.1077177e-05
-2.5227447e-08
-4.4535226e-14
1.1146861e-05
2.3533137e-08
-5.6567034e-14
1.1210079e-05
8.0043882e-08
-6.6420944e-14
1.1263334e-05
1.4278822e-07
-7.9226895e-14
1.1302888e-05
2.1237112e-07
-8.9145573e-14
1.1324243e-05
2.9034912e-07
-9.1092207e-14
1.1322146e-05
3.7837291e-07
-5.4691902e-14
1.128968e-05
4.7906958e-07
-1.1143894e-13
1.1216412e-05
5.9656581e-07
-1.1721799e-13
1.1086316e-05
7.3772566e-07
-9.9612858e-14
1.0874385e-05
9.1408521e-07
-8.1854627e-14
1.0541302e-05
1.1455599e-06
-6.4968e-14
1.0025374e-05
1.4671454e-06
-4.2659671e-14
9.2283673e-06
1.9396007e-06
1.9928636e-14
2.6431547e-06
9.0984515e-14
9.3958014e-06
-1.1837451e-07
5.7485544e-15
9.5382091e-06
-1.2587131e-07
1.0342977e-15
9.677476e-06
-1.1679911e-07
1.9589865e-15
9.8168115e-06
-1.1303814e-07
-1.1003925e-15
9.9555622e-06
-1.1021283e-07
-9.1621184e-16
1.0091129e-05
-1.0616286e-07
-3.2719584e-15
1.0221801e-05
-1.0195885e-07
-9.6577397e-15
1.0346408e-05
-9.862989e-08
-1.0743839e-14
1.046349e-05
-9.6734849e-08
-1.6683086e-14
1.0570756e-05
-9.6776926e-08
-1.746719e-14
1.0664769e-05
-9.9181592e-08
-2.3425233e-14
1.0741585e-05
-1.0376208e-07
-2.1245897e-14
1.0794681e-05
-1.0890139e-07
-2.5818982e-14
1.0837487e-05
-1.0817012e-07
-2.8110482e-14
1.0881834e-05
-9.6007963e-08
-3.6695323e-14
1.0932597e-05
-7.6932094e-08
-5.2529602e-14
1.0990189e-05
-5.3509702e-08
-6.6357402e-14
1.105495e-05
-2.4461717e-08
-8.0191368e-14
1.1122809e-05
1.1579635e-08
-1.0418218e-13
1.1189318e-05
5.538271e-08
-1.3332277e-13
1.1252036e-05
1.0645042e-07
-1.3702267e-13
1.1308081e-05
1.6634391e-07
-1.2307506e-13
1.1353002e-05
2.3817085e-07
-1.3031941e-13
1.1380881e-05
3.2676605e-07
-1.1215639e-13
1.1383492e-05
4.3916567e-07
-1.2359743e-13
1.1350015e-05
5.8640686e-07
-8.490697e-14
1.1266948e-05
7.8669697e-07
-7.4638677e-14
1.1118708e-05
1.0709117e-06
1.0827305e-14
1.0885853e-05
1.4929725e-06
9.1196999e-14
2.1299972e-06
2.0879327e-13
9.1589148e-06
5.9169887e-15
9.0492401e-06
3.1221891e-16
8.9543937e-06
-6.3320499e-16
8.867056e-06
8.0285126e-16
8.7849119e-06
8.782314e-16
8.7082411e-06
-2.6465654e-15
8.6364297e-06
-4.537628e-15
8.5679302e-06
-8.3174526e-15
8.5007021e-06
-1.4382711e-14
8.4321916e-06
-1.8092319e-14
8.3592822e-06
-2.1578837e-14
8.2787373e-06
-2.9930719e-14
8.1884344e-06
-4.147161e-14
8.0920485e-06
-4.6810145e-14
7.9988923e-06
-5.7556349e-14
7.91172e-06
-8.1985402e-14
7.8321601e-06
-9.9451538e-14
7.7634615e-06
-1.219108e-13
7.7103538e-06
-1.5624153e-13
7.6773826e-06
-1.9956674e-13
7.6666613e-06
-2.3154794e-13
7.6798211e-06
-2.6018927e-13
7.7189801e-06
-2.7878832e-13
7.7871748e-06
-2.8418383e-13
7.8901821e-06
-3.0679385e-13
8.039775e-06
-3.0810551e-13
8.260469e-06
-2.6325704e-13
8.6043194e-06
-1.8693499e-13
9.1810609e-06
-4.2718634e-14
1.2534325e-13
9.1591496e-06
1.1816778e-07
-8.3478674e-09
9.0498945e-06
1.2545813e-07
-1.6202958e-08
8.9557872e-06
1.1607334e-07
-2.1965946e-08
8.8697176e-06
1.1179639e-07
-2.5726523e-08
8.7897336e-06
1.0810432e-07
-2.8120149e-08
8.7167485e-06
1.0257948e-07
-2.9594051e-08
8.6512542e-06
9.5845236e-08
-3.0350566e-08
8.593652e-06
8.8140668e-08
-3.0538064e-08
8.5454109e-06
7.8572454e-08
-3.0330825e-08
8.5104947e-06
6.486649e-08
-2.9949603e-08
8.4979707e-06
4.2284447e-08
-2.9759674e-08
8.5217364e-06
6.7476266e-09
-3.0512466e-08
8.6214125e-06
-6.6711485e-08
-3.2962866e-08
8.7009129e-06
-3.4057277e-08
-4.5422817e-08
8.7697615e-06
1.4819417e-09
-7.0293142e-08
8.8186654e-06
5.8136484e-08
-1.0698754e-07
8.8458853e-06
1.2425625e-07
-1.5140894e-07
8.8556455e-06
1.8896588e-07
-1.9864405e-07
8.8491829e-06
2.5333338e-07
-2.4677443e-07
8.826785e-06
3.1785106e-07
-2.9534349e-07
8.7875467e-06
3.8339107e-07
-3.4403096e-07
8.7287007e-06
4.512316e-07
-3.9225293e-07
8.6447668e-06
5.2302414e-07
-4.3894828e-07
8.5259277e-06
6.0115511e-07
-4.8216558e-07
8.3554621e-06
6.8928825e-07
-5.1866553e-07
8.104933e-06
7.9366602e-07
-5.4297434e-07
7.7248405e-06
9.2591889e-07
-5.4565935e-07
7.1259961e-06
1.1093911e-06
-5.103759e-07
6.1479027e-06
1.3896074e-06
-4.1133999e-07
1.8890613e-06
-2.4535055e-07
9.3958942e-06
-1.4511723e-10
-8.6203187e-09
9.5385046e-06
-3.0689149e-10
-1.6845378e-08
9.6781608e-06
-5.5549791e-10
-2.3027395e-08
9.8182066e-06
-9.7162834e-10
-2.727774e-08
9.9582235e-06
-1.6783649e-09
-3.0234206e-08
1.0096015e-05
-2.88514e-09
-3.2326607e-08
1.0230537e-05
-4.9440651e-09
-3.3732531e-08
1.0361673e-05
-8.4340627e-09
-3.4561301e-08
1.0489425e-05
-1.42731e-08
-3.4906771e-08
1.061287e-05
-2.379059e-08
-3.478758e-08
1.0727591e-05
-3.8424022e-08
-3.4012539e-08
1.0824424e-05
-5.8160042e-08
-3.1925201e-08
1.086862e-05
-8.3361231e-08
-2.7546224e-08
1.0938159e-05
-8.630136e-08
-1.7294082e-08
1.1006934e-05
-6.2734781e-08
-4.55809e-09
1.1077177e-05
-2.5227424e-08
1.3121704e-08
1.1146861e-05
2.3533162e-08
3.104024e-08
1.1210079e-05
8.0043904e-08
4.5707615e-08
1.1263334e-05
1.4278823e-07
5.7295214e-08
1.1302888e-05
2.1237112e-07
6.5933888e-08
1.1324244e-05
2.9034911e-07
7.169887e-08
1.1322146e-05
3.7837268e-07
7.4974821e-08
1.1289681e-05
4.7906934e-07
7.6444099e-08
1.1216412e-05
5.9656571e-07
7.7890016e-08
1.1086317e-05
7.3772554e-07
8.1698777e-08
1.0874385e-05
9.1408509e-07
9.1563689e-08
1.0541303e-05
1.1455597e-06
1.1350429e-07
1.0025375e-05
1.4671451e-06
1.5824984e-07
9.228368e-06
1.9396004e-06
2.4710656e-07
2.6431543e-06
4.1543042e-07
9.3958014e-06
-1.1837451e-07
-8.6194389e-09
9.5382092e-06
-1.2587131e-07
-1.684335e-08
9.677476e-06
-1.1679911e-07
-2.3023195e-08
9.8168115e-06
-1.1303814e-07
-2.7269052e-08
9.9555622e-06
-1.1021283e-07
-3.0216202e-08
1.0091129e-05
-1.0616285e-07
-3.2289464e-08
1.0221801e-05
-1.0195885e-07
-3.3656958e-08
1.0346408e-05
-9.8629892e-08
-3.4411117e-08
1.046349e-05
-9.6734846e-08
-3.4619993e-08
1.0570756e-05
-9.6776926e-08
-3.4280185e-08
1.0664769e-05
-9.9181581e-08
-3.3255561e-08
1.0741585e-05
-1.0376208e-07
-3.1213366e-08
1.0794681e-05
-1.0890139e-07
-2.755633e-08
1.0837487e-05
-1.0817011e-07
-2.0936904e-08
1.0881834e-05
-9.6007951e-08
-1.1074314e-08
1.0932597e-05
-7.6932093e-08
9.4166759e-10
1.0990189e-05
-5.3509696e-08
1.9450761e-08
1.1054949e-05
-2.4461719e-08
3.9745478e-08
1.1122809e-05
1.1579631e-08
6.3348648e-08
1.1189318e-05
5.5382705e-08
9.0479088e-08
1.1252036e-05
1.0645041e-07
1.2118096e-07
1.1308081e-05
1.6634382e-07
1.5598507e-07
1.1353002e-05
2.3817073e-07
1.9597942e-07
1.1380881e-05
3.2676595e-07
2.4192436e-07
1.1383492e-05
4.3916561e-07
2.9595564e-07
1.1350015e-05
5.8640676e-07
3.6116637e-07
1.1266948e-05
7.866969e-07
4.4194842e-07
1.1118708e-05
1.0709116e-06
5.4450281e-07
1.0885854e-05
1.4929723e-06
6.7952644e-07
2.1299969e-06
8.5793189e-07
9.1589148e-06
-8.3451821e-09
9.0492401e-06
-1.619656e-08
8.9543937e-06
-2.1952792e-08
8.867056e-06
-2.5700436e-08
8.7849119e-06
-2.8068689e-08
8.7082411e-06
-2.9492112e-08
8.6364297e-06
-3.0147393e-08
8.5679302e-06
-3.0130412e-08
8.5007021e-06
-2.9506769e-08
8.4321916e-06
-2.8266492e-08
8.3592822e-06
-2.6272197e-08
8.2787373e-06
-2.3217216e-08
8.1884344e-06
-1.859847e-08
8.0920485e-06
-1.1784289e-08
7.9988922e-06
-2.851705e-09
7.91172e-06
1.0240124e-08
7.8321601e-06
2.605011e-08
7.7634614e-06
4.4236844e-08
7.7103537e-06
6.4687218e-08
7.6773825e-06
8.8353803e-08
7.6666612e-06
1.1717155e-07
7.679821e-06
1.5318388e-07
7.7189799e-06
1.9901172e-07
7.7871747e-06
2.5857135e-07
7.8901819e-06
3.3615904e-07
8.0397749e-06
4.3681596e-07
8.2604689e-06
5.6600763e-07
8.6043195e-06
7.2707062e-07
9.1810612e-06
9.1624885e-07
1.0980616e-06
9.1620255e-06
1.1814642e-07
-1.9550291e-08
9.0571782e-06
1.2539518e-07
-3.6750767e-08
8.9669575e-06
1.1604295e-07
-4.7788045e-08
8.8837039e-06
1.1184778e-07
-5.4320519e-08
8.8057271e-06
1.0825024e-07
-5.8393329e-08
8.7341432e-06
1.0283524e-07
-6.0845049e-08
8.6695121e-06
9.623953e-08
-6.1958706e-08
8.612263e-06
8.8728643e-08
-6.2017162e-08
8.5637858e-06
7.9497609e-08
-6.1350688e-08
8.5276409e-06
6.6504399e-08
-6.03084e-08
8.5117645e-06
4.5496505e-08
-5.937899e-08
8.5291164e-06
1.161187e-08
-5.9475329e-08
8.6106682e-06
-5.2903706e-08
-6.1609167e-08
8.6835864e-06
-4.5782115e-08
-7.2535513e-08
8.743159e-06
-3.3648868e-08
-9.6174658e-08
8.7854745e-06
-1.8598853e-08
-1.3064502e-07
8.8102887e-06
-3.1488728e-09
-1.7299946e-07
8.8166109e-06
1.5404557e-08
-2.2028066e-07
8.8076494e-06
3.1139618e-08
-2.6884834e-07
8.7847835e-06
4.4362666e-08
-3.1672305e-07
8.7481823e-06
5.5631677e-08
-3.629328e-07
8.6967819e-06
6.5917968e-08
-4.0663161e-07
8.6280194e-06
7.6662516e-08
-4.4670108e-07
8.5360153e-06
9.1550733e-08
-4.8155789e-07
8.4104615e-06
1.157272e-07
-5.0867906e-07
8.2336341e-06
1.5785154e-07
-5.2383442e-07
7.9742234e-06
2.3326657e-07
-5.193479e-07
7.5723603e-06
3.7267518e-07
-4.8101826e-07
6.9062402e-06
6.4395854e-07
-3.8900654e-07
1.2347618e-06
-2.3647748e-07