/*--------------------------------*- C++ -*----------------------------------*\
| =========                 |                                                 |
| \\      /  F ield         | OpenFOAM: The Open Source CFD Toolbox           |
|  \\    /   O peration     | Version:  2412                                  |
|   \\  /    A nd           | Website:  www.openfoam.com                      |
|    \\/     M anipulation  |                                                 |
\*---------------------------------------------------------------------------*/
FoamFile
{
    version     2.0;
    format      ascii;
    arch        "LSB;label=32;scalar=64";
    class       volScalarField;
    location    "100/topAir";
    object      rho;
}
// * * * * * * * * * * * * * * * * * * * * * * * * * * * * * * * * * * * * * //

dimensions      [1 -3 0 0 0 0 0];

internalField   nonuniform List<scalar> 
1200
(
1.1586187
1.1586161
1.1586132
1.1586098
1.1586058
1.1586009
1.1585949
1.1585876
1.158579
1.1585689
1.1585571
1.1585343
1.158245
1.1510576
1.1447338
1.1393098
1.134796
1.1311776
1.1284174
1.1264586
1.1252529
1.1247057
1.1247157
1.1251806
1.1260008
1.1270814
1.1283343
1.1296821
1.1310626
1.1323749
1.15862
1.1586199
1.1586196
1.1586193
1.1586188
1.1586182
1.1586175
1.1586166
1.1586155
1.1586143
1.1586129
1.1586109
1.1585979
1.158425
1.1581173
1.1577004
1.1571993
1.1566377
1.1560376
1.1554172
1.1547571
1.1540713
1.1533639
1.1526404
1.1518868
1.151072
1.1501378
1.148981
1.1474323
1.145323
1.1586191
1.1586191
1.158619
1.158619
1.158619
1.1586189
1.1586189
1.1586188
1.1586187
1.1586186
1.1586184
1.1586183
1.1586177
1.1586131
1.1586018
1.1585813
1.1585503
1.1585076
1.1584528
1.1583859
1.1583063
1.1582139
1.158107
1.1579624
1.1577658
1.1574876
1.1570755
1.1564383
1.1554259
1.1539049
1.158618
1.158618
1.158618
1.158618
1.158618
1.158618
1.158618
1.158618
1.1586179
1.1586179
1.1586179
1.1586179
1.1586178
1.1586176
1.158617
1.1586158
1.1586135
1.1586097
1.1586041
1.1585962
1.1585856
1.158572
1.1585548
1.1585328
1.1584983
1.1584416
1.1583435
1.1581656
1.1578372
1.1572838
1.1586187
1.158616
1.1586131
1.1586098
1.1586058
1.1586009
1.158595
1.1585878
1.1585791
1.1585688
1.1585568
1.1585363
1.1582986
1.1515439
1.1455373
1.1403634
1.1360731
1.1326776
1.1301452
1.1284086
1.1273783
1.1269515
1.1270185
1.1274667
1.1281797
1.1290353
1.1299045
1.1307404
1.131639
1.1325136
1.15862
1.1586199
1.1586196
1.1586193
1.1586188
1.1586183
1.1586176
1.1586168
1.1586158
1.1586146
1.1586133
1.1586116
1.1586021
1.1584642
1.1582175
1.1578827
1.1574813
1.1570337
1.1565593
1.156075
1.1555945
1.1551285
1.154684
1.1542637
1.153865
1.1534782
1.1530835
1.1525997
1.1517442
1.1502288
1.1586191
1.1586191
1.158619
1.158619
1.158619
1.1586189
1.1586189
1.1586188
1.1586187
1.1586186
1.1586185
1.1586184
1.158618
1.1586149
1.1586071
1.1585932
1.1585722
1.1585434
1.1585066
1.1584621
1.1584102
1.1583513
1.1582861
1.1582146
1.1581365
1.1580503
1.1579511
1.157775
1.1574434
1.1568576
1.158618
1.158618
1.158618
1.158618
1.158618
1.158618
1.158618
1.158618
1.1586179
1.1586179
1.1586179
1.1586179
1.1586179
1.1586177
1.1586174
1.1586167
1.1586154
1.1586133
1.1586102
1.1586058
1.1586
1.1585926
1.1585833
1.158572
1.1585582
1.158541
1.1585177
1.1584741
1.1583902
1.1582415
1.1586186
1.1586158
1.1586128
1.1586093
1.158605
1.1585997
1.1585932
1.158585
1.1585749
1.1585626
1.1585475
1.1585219
1.1582438
1.1502563
1.1432133
1.1372159
1.1323405
1.1286138
1.1259675
1.1242789
1.1234058
1.1232041
1.1235336
1.1242577
1.1252421
1.1263504
1.1274402
1.1284476
1.1294913
1.1304803
1.15862
1.1586199
1.1586196
1.1586192
1.1586188
1.1586182
1.1586175
1.1586166
1.1586155
1.1586142
1.1586128
1.1586108
1.1586
1.1584402
1.158156
1.1577732
1.1573176
1.1568136
1.1562829
1.1557444
1.1552132
1.1547007
1.1542138
1.1537546
1.1533179
1.1528879
1.1524342
1.1518677
1.1508615
1.1491041
1.1586191
1.1586191
1.158619
1.158619
1.158619
1.1586189
1.1586189
1.1586188
1.1586187
1.1586186
1.1586185
1.1586183
1.1586179
1.1586144
1.1586057
1.1585903
1.1585671
1.1585355
1.1584954
1.1584467
1.1583896
1.1583243
1.1582503
1.1581663
1.158069
1.1579516
1.1577998
1.1575327
1.1570379
1.1561924
1.158618
1.158618
1.158618
1.158618
1.158618
1.158618
1.158618
1.158618
1.1586179
1.1586179
1.1586179
1.1586179
1.1586179
1.1586177
1.1586174
1.1586166
1.1586153
1.1586131
1.1586098
1.1586052
1.158599
1.1585909
1.1585802
1.1585661
1.1585463
1.1585164
1.1584649
1.1583621
1.1581619
1.1578181
1.1586185
1.1586156
1.1586125
1.1586087
1.1586042
1.1585984
1.1585911
1.1585818
1.1585699
1.1585547
1.1585351
1.1585003
1.1581405
1.1479416
1.1389712
1.1313481
1.1252333
1.1208089
1.1178714
1.1161459
1.1153809
1.115365
1.1159241
1.1169137
1.1182112
1.1197096
1.1213111
1.1229278
1.1244899
1.1258969
1.15862
1.1586199
1.1586196
1.1586192
1.1586187
1.1586181
1.1586173
1.1586164
1.1586152
1.1586137
1.158612
1.1586096
1.1585958
1.1583905
1.1580248
1.1575277
1.1569271
1.1562084
1.1553952
1.1545196
1.1536093
1.1526858
1.1517678
1.1508553
1.1499329
1.1489643
1.1478836
1.1465755
1.1448412
1.1424215
1.1586191
1.1586191
1.158619
1.158619
1.158619
1.1586189
1.1586189
1.1586188
1.1586187
1.1586186
1.1586185
1.1586183
1.1586177
1.1586133
1.1586021
1.158582
1.1585513
1.1585076
1.1584484
1.1583715
1.1582735
1.1581491
1.1579857
1.1577677
1.1574716
1.157057
1.1564581
1.155569
1.1542237
1.1522657
1.158618
1.158618
1.158618
1.158618
1.158618
1.158618
1.158618
1.158618
1.1586179
1.1586179
1.1586179
1.1586179
1.1586178
1.1586177
1.1586172
1.1586163
1.1586145
1.1586115
1.1586068
1.1585996
1.1585889
1.1585727
1.1585478
1.1585081
1.1584395
1.1583181
1.1581026
1.1577231
1.1570718
1.1560655
1.1586184
1.1586155
1.1586123
1.1586084
1.1586036
1.1585976
1.1585898
1.1585797
1.1585664
1.158549
1.1585253
1.15848
1.158006
1.1446464
1.1328601
1.1228613
1.1150278
1.1102622
1.1075489
1.1062708
1.106025
1.1065319
1.1075877
1.1090378
1.1107616
1.1126621
1.1146586
1.1166818
1.1186717
1.1205391
1.15862
1.1586198
1.1586196
1.1586192
1.1586187
1.158618
1.1586172
1.1586162
1.1586149
1.1586133
1.1586114
1.1586086
1.1585907
1.1583206
1.1578291
1.1569882
1.1557553
1.1541991
1.1523927
1.1504105
1.1483217
1.1461864
1.1440549
1.1419662
1.1399475
1.1380127
1.1361594
1.1343641
1.1325807
1.1307662
1.1586191
1.1586191
1.158619
1.158619
1.158619
1.1586189
1.1586189
1.1586188
1.1586187
1.1586186
1.1586184
1.1586182
1.1586176
1.1586117
1.1585967
1.1585664
1.158508
1.1583989
1.1582173
1.1579406
1.157545
1.1570065
1.156301
1.1554037
1.1542869
1.1529154
1.1512396
1.1491855
1.1466489
1.143602
1.158618
1.158618
1.158618
1.158618
1.158618
1.158618
1.158618
1.158618
1.1586179
1.1586179
1.1586179
1.1586179
1.1586178
1.1586176
1.158617
1.1586156
1.1586127
1.1586068
1.1585955
1.1585731
1.1585316
1.1584594
1.1583398
1.1581491
1.1578531
1.157403
1.1567274
1.1557204
1.1542307
1.1521577
1.1586184
1.1586155
1.1586123
1.1586084
1.1586036
1.1585976
1.1585898
1.1585797
1.1585664
1.158549
1.1585253
1.15848
1.158006
1.1446464
1.1328601
1.1228613
1.1150278
1.1102622
1.1075489
1.1062708
1.106025
1.1065319
1.1075876
1.1090378
1.1107616
1.1126621
1.1146586
1.1166818
1.1186717
1.1205391
1.15862
1.1586198
1.1586196
1.1586192
1.1586187
1.158618
1.1586172
1.1586162
1.1586149
1.1586133
1.1586114
1.1586086
1.1585907
1.1583206
1.1578291
1.1569882
1.1557553
1.1541991
1.1523927
1.1504105
1.1483217
1.1461864
1.1440549
1.1419662
1.1399475
1.1380127
1.1361594
1.1343641
1.1325807
1.1307662
1.1586191
1.1586191
1.158619
1.158619
1.158619
1.1586189
1.1586189
1.1586188
1.1586187
1.1586186
1.1586184
1.1586182
1.1586176
1.1586117
1.1585967
1.1585664
1.158508
1.1583989
1.1582173
1.1579406
1.157545
1.1570065
1.156301
1.1554037
1.1542869
1.1529154
1.1512396
1.1491855
1.1466489
1.143602
1.158618
1.158618
1.158618
1.158618
1.158618
1.158618
1.158618
1.158618
1.1586179
1.1586179
1.1586179
1.1586179
1.1586178
1.1586176
1.158617
1.1586156
1.1586127
1.1586068
1.1585955
1.1585731
1.1585316
1.1584594
1.1583398
1.1581491
1.1578531
1.157403
1.1567274
1.1557204
1.1542307
1.1521577
1.1586185
1.1586156
1.1586125
1.1586087
1.1586042
1.1585984
1.1585911
1.1585818
1.1585699
1.1585547
1.1585351
1.1585003
1.1581405
1.1479416
1.1389712
1.1313481
1.1252333
1.1208089
1.1178714
1.1161459
1.1153809
1.1153651
1.1159241
1.1169137
1.1182112
1.1197097
1.1213111
1.1229278
1.1244899
1.1258969
1.15862
1.1586199
1.1586196
1.1586192
1.1586187
1.1586181
1.1586173
1.1586164
1.1586152
1.1586137
1.158612
1.1586096
1.1585958
1.1583905
1.1580248
1.1575277
1.1569271
1.1562084
1.1553952
1.1545196
1.1536093
1.1526858
1.1517678
1.1508553
1.1499329
1.1489643
1.1478836
1.1465755
1.1448413
1.1424215
1.1586191
1.1586191
1.158619
1.158619
1.158619
1.1586189
1.1586189
1.1586188
1.1586187
1.1586186
1.1586185
1.1586183
1.1586177
1.1586133
1.1586021
1.158582
1.1585513
1.1585076
1.1584484
1.1583715
1.1582735
1.1581491
1.1579857
1.1577677
1.1574716
1.157057
1.1564581
1.155569
1.1542237
1.1522658
1.158618
1.158618
1.158618
1.158618
1.158618
1.158618
1.158618
1.158618
1.1586179
1.1586179
1.1586179
1.1586179
1.1586178
1.1586177
1.1586172
1.1586163
1.1586145
1.1586115
1.1586068
1.1585996
1.1585889
1.1585727
1.1585478
1.1585081
1.1584395
1.1583181
1.1581026
1.1577231
1.1570718
1.1560655
1.1586186
1.1586158
1.1586128
1.1586093
1.158605
1.1585997
1.1585932
1.158585
1.1585749
1.1585626
1.1585475
1.1585219
1.1582438
1.1502563
1.1432133
1.1372159
1.1323404
1.1286138
1.1259675
1.1242789
1.1234058
1.1232041
1.1235336
1.1242577
1.1252421
1.1263504
1.1274402
1.1284475
1.1294913
1.1304803
1.15862
1.1586199
1.1586196
1.1586192
1.1586188
1.1586182
1.1586175
1.1586166
1.1586155
1.1586142
1.1586128
1.1586108
1.1586
1.1584402
1.158156
1.1577732
1.1573176
1.1568136
1.1562829
1.1557444
1.1552132
1.1547007
1.1542138
1.1537546
1.1533179
1.1528879
1.1524342
1.1518677
1.1508615
1.1491041
1.1586191
1.1586191
1.158619
1.158619
1.158619
1.1586189
1.1586189
1.1586188
1.1586187
1.1586186
1.1586185
1.1586183
1.1586179
1.1586144
1.1586057
1.1585903
1.1585671
1.1585355
1.1584954
1.1584467
1.1583896
1.1583243
1.1582503
1.1581663
1.158069
1.1579516
1.1577998
1.1575327
1.1570379
1.1561924
1.158618
1.158618
1.158618
1.158618
1.158618
1.158618
1.158618
1.158618
1.1586179
1.1586179
1.1586179
1.1586179
1.1586179
1.1586177
1.1586174
1.1586166
1.1586153
1.1586131
1.1586098
1.1586052
1.158599
1.1585909
1.1585802
1.1585661
1.1585463
1.1585164
1.1584649
1.1583621
1.1581619
1.1578181
1.1586187
1.158616
1.1586131
1.1586098
1.1586058
1.1586009
1.158595
1.1585878
1.1585791
1.1585688
1.1585568
1.1585363
1.1582986
1.1515439
1.1455373
1.1403634
1.1360731
1.1326776
1.1301451
1.1284085
1.1273783
1.1269515
1.1270184
1.1274667
1.1281797
1.1290352
1.1299045
1.1307404
1.131639
1.1325136
1.15862
1.1586199
1.1586196
1.1586193
1.1586188
1.1586183
1.1586176
1.1586168
1.1586158
1.1586146
1.1586133
1.1586116
1.1586021
1.1584642
1.1582175
1.1578827
1.1574813
1.1570337
1.1565593
1.156075
1.1555945
1.1551285
1.154684
1.1542637
1.153865
1.1534782
1.1530835
1.1525997
1.1517442
1.1502288
1.1586191
1.1586191
1.158619
1.158619
1.158619
1.1586189
1.1586189
1.1586188
1.1586187
1.1586186
1.1586185
1.1586184
1.158618
1.1586149
1.1586071
1.1585932
1.1585722
1.1585434
1.1585066
1.1584621
1.1584102
1.1583513
1.1582861
1.1582146
1.1581365
1.1580503
1.1579511
1.157775
1.1574434
1.1568576
1.158618
1.158618
1.158618
1.158618
1.158618
1.158618
1.158618
1.158618
1.1586179
1.1586179
1.1586179
1.1586179
1.1586179
1.1586177
1.1586174
1.1586167
1.1586154
1.1586133
1.1586102
1.1586058
1.1586
1.1585926
1.1585833
1.158572
1.1585582
1.158541
1.1585177
1.1584741
1.1583902
1.1582415
1.1586187
1.1586161
1.1586132
1.1586098
1.1586058
1.1586009
1.1585949
1.1585876
1.158579
1.1585689
1.1585571
1.1585343
1.158245
1.1510577
1.1447338
1.1393098
1.134796
1.1311775
1.1284173
1.1264586
1.1252528
1.1247057
1.1247156
1.1251805
1.1260007
1.1270813
1.1283342
1.1296821
1.1310625
1.1323749
1.15862
1.1586199
1.1586196
1.1586193
1.1586188
1.1586182
1.1586175
1.1586166
1.1586155
1.1586143
1.1586129
1.1586109
1.1585979
1.158425
1.1581173
1.1577004
1.1571993
1.1566377
1.1560376
1.1554172
1.1547571
1.1540713
1.1533639
1.1526404
1.1518868
1.151072
1.1501377
1.148981
1.1474323
1.1453229
1.1586191
1.1586191
1.158619
1.158619
1.158619
1.1586189
1.1586189
1.1586188
1.1586187
1.1586186
1.1586184
1.1586183
1.1586177
1.1586131
1.1586018
1.1585813
1.1585503
1.1585076
1.1584528
1.1583859
1.1583063
1.1582139
1.158107
1.1579624
1.1577658
1.1574876
1.1570755
1.1564383
1.1554259
1.1539049
1.158618
1.158618
1.158618
1.158618
1.158618
1.158618
1.158618
1.158618
1.1586179
1.1586179
1.1586179
1.1586179
1.1586178
1.1586176
1.158617
1.1586158
1.1586135
1.1586097
1.1586041
1.1585962
1.1585856
1.158572
1.1585548
1.1585328
1.1584983
1.1584416
1.1583435
1.1581656
1.1578372
1.1572838
)
;

boundaryField
{
    maxY
    {
        type            calculated;
        value           nonuniform List<scalar> 
300
(
1.1586175
1.1586175
1.1586175
1.1586175
1.1586175
1.1586175
1.1586175
1.1586175
1.1586175
1.1586175
1.1586175
1.1586175
1.1586175
1.1586175
1.1586175
1.1586175
1.1586175
1.1586175
1.1586175
1.1586175
1.1586175
1.1586175
1.1586175
1.1586175
1.1586175
1.1586175
1.1586175
1.1586175
1.1586175
1.1586175
1.1586175
1.1586175
1.1586175
1.1586175
1.1586175
1.1586175
1.1586175
1.1586175
1.1586175
1.1586175
1.1586175
1.1586175
1.1586175
1.1586175
1.1586175
1.1586175
1.1586175
1.1586175
1.1586175
1.1586175
1.1586174
1.1586175
1.1586175
1.1586174
1.1586174
1.1586174
1.1586174
1.1586175
1.1586175
1.1586174
1.1586174
1.1586174
1.1586174
1.1586174
1.1586174
1.1586174
1.1586174
1.1586174
1.1586174
1.1586174
1.1586174
1.1586174
1.1586174
1.1586174
1.1586174
1.1586174
1.1586174
1.1586174
1.1586174
1.1586174
1.1586174
1.1586174
1.1586174
1.1586174
1.1586174
1.1586174
1.1586174
1.1586174
1.1586174
1.1586174
1.1586174
1.1586174
1.1586174
1.1586174
1.1586174
1.1586174
1.1586174
1.1586174
1.1586174
1.1586174
1.1586174
1.1586174
1.1586174
1.1586174
1.1586174
1.1586174
1.1586174
1.1586174
1.1586174
1.1586174
1.1586173
1.1586174
1.1586174
1.1586174
1.1586174
1.1586174
1.1586174
1.1586174
1.1586174
1.1586173
1.1586173
1.1586173
1.1586173
1.1586173
1.1586173
1.1586173
1.1586173
1.1586173
1.1586173
1.1586173
1.1586171
1.1586172
1.1586172
1.1586172
1.1586171
1.1586171
1.1586172
1.1586172
1.1586172
1.1586171
1.1586165
1.1586169
1.1586168
1.1586167
1.1586165
1.1586165
1.1586167
1.1586168
1.1586169
1.1586165
1.1586153
1.1586162
1.1586161
1.1586157
1.1586151
1.1586151
1.1586157
1.1586161
1.1586162
1.1586153
1.158613
1.1586149
1.1586147
1.1586139
1.1586122
1.1586122
1.1586139
1.1586147
1.1586149
1.158613
1.1586092
1.1586128
1.1586125
1.1586109
1.1586063
1.1586063
1.1586109
1.1586125
1.1586128
1.1586092
1.1586036
1.1586096
1.1586093
1.1586062
1.158595
1.158595
1.1586062
1.1586093
1.1586096
1.1586036
1.1585957
1.1586053
1.1586047
1.1585991
1.1585726
1.1585726
1.1585991
1.1586047
1.1586053
1.1585957
1.1585851
1.1585995
1.1585985
1.1585884
1.158531
1.158531
1.1585884
1.1585985
1.1585995
1.1585851
1.1585715
1.1585921
1.1585904
1.1585722
1.1584589
1.1584589
1.1585722
1.1585904
1.1585921
1.1585715
1.1585543
1.1585828
1.1585797
1.1585472
1.1583393
1.1583393
1.1585472
1.1585797
1.1585828
1.1585543
1.1585322
1.1585715
1.1585655
1.1585076
1.1581485
1.1581485
1.1585076
1.1585655
1.1585715
1.1585322
1.1584978
1.1585577
1.1585458
1.158439
1.1578526
1.1578526
1.158439
1.1585458
1.1585577
1.1584978
1.1584411
1.1585405
1.1585158
1.1583176
1.1574025
1.1574025
1.1583176
1.1585158
1.1585405
1.1584411
1.1583429
1.1585172
1.1584643
1.1581021
1.1567269
1.1567269
1.1581021
1.1584643
1.1585172
1.1583429
1.1581651
1.1584736
1.1583616
1.1577225
1.1557199
1.1557199
1.1577225
1.1583616
1.1584736
1.1581651
1.1578367
1.1583897
1.1581614
1.1570713
1.1542301
1.1542301
1.1570713
1.1581614
1.1583897
1.1578367
1.1572833
1.158241
1.1578176
1.1560649
1.1521572
1.1521572
1.1560649
1.1578176
1.158241
1.1572832
)
;
    }
    minX
    {
        type            calculated;
        value           nonuniform List<scalar> 
40
(
1.1586212
1.1586201
1.1586191
1.158618
1.1586212
1.1586201
1.1586191
1.158618
1.1586212
1.1586201
1.1586191
1.158618
1.1586212
1.1586201
1.1586191
1.158618
1.1586212
1.1586201
1.1586191
1.158618
1.1586212
1.1586201
1.1586191
1.158618
1.1586212
1.1586201
1.1586191
1.158618
1.1586212
1.1586201
1.1586191
1.158618
1.1586212
1.1586201
1.1586191
1.158618
1.1586212
1.1586201
1.1586191
1.158618
)
;
    }
    maxX
    {
        type            calculated;
        value           nonuniform List<scalar> 
40
(
1.1323846
1.1453296
1.1539082
1.157285
1.1325219
1.1502318
1.1568585
1.1582417
1.1304884
1.1491067
1.1561931
1.1578183
1.1259053
1.1424251
1.1522673
1.1560661
1.1205476
1.1307717
1.1436051
1.1521592
1.1205476
1.1307717
1.1436051
1.1521592
1.1259053
1.1424251
1.1522673
1.1560661
1.1304884
1.1491067
1.1561931
1.1578183
1.1325219
1.1502318
1.1568584
1.1582417
1.1323845
1.1453295
1.1539082
1.157285
)
;
    }
    minZ
    {
        type            calculated;
        value           nonuniform List<scalar> 
120
(
1.1586187
1.15862
1.1586191
1.158618
1.1586161
1.1586199
1.1586191
1.158618
1.1586132
1.1586196
1.158619
1.158618
1.1586098
1.1586193
1.158619
1.158618
1.1586058
1.1586188
1.158619
1.158618
1.1586009
1.1586182
1.1586189
1.158618
1.1585949
1.1586175
1.1586189
1.158618
1.1585876
1.1586166
1.1586188
1.158618
1.158579
1.1586155
1.1586187
1.1586179
1.1585689
1.1586143
1.1586186
1.1586179
1.1585571
1.1586129
1.1586184
1.1586179
1.1585343
1.1586109
1.1586183
1.1586179
1.158245
1.1585979
1.1586177
1.1586178
1.1510576
1.158425
1.1586131
1.1586176
1.1447338
1.1581173
1.1586018
1.158617
1.1393098
1.1577004
1.1585813
1.1586158
1.134796
1.1571993
1.1585503
1.1586135
1.1311776
1.1566377
1.1585076
1.1586097
1.1284174
1.1560376
1.1584528
1.1586041
1.1264586
1.1554172
1.1583859
1.1585962
1.1252529
1.1547571
1.1583063
1.1585856
1.1247057
1.1540713
1.1582139
1.158572
1.1247157
1.1533639
1.158107
1.1585548
1.1251806
1.1526404
1.1579624
1.1585328
1.1260008
1.1518868
1.1577658
1.1584983
1.1270814
1.151072
1.1574876
1.1584416
1.1283343
1.1501378
1.1570755
1.1583435
1.1296821
1.148981
1.1564383
1.1581656
1.1310626
1.1474323
1.1554259
1.1578372
1.1323749
1.145323
1.1539049
1.1572838
)
;
    }
    maxZ
    {
        type            calculated;
        value           nonuniform List<scalar> 
120
(
1.1586187
1.15862
1.1586191
1.158618
1.1586161
1.1586199
1.1586191
1.158618
1.1586132
1.1586196
1.158619
1.158618
1.1586098
1.1586193
1.158619
1.158618
1.1586058
1.1586188
1.158619
1.158618
1.1586009
1.1586182
1.1586189
1.158618
1.1585949
1.1586175
1.1586189
1.158618
1.1585876
1.1586166
1.1586188
1.158618
1.158579
1.1586155
1.1586187
1.1586179
1.1585689
1.1586143
1.1586186
1.1586179
1.1585571
1.1586129
1.1586184
1.1586179
1.1585343
1.1586109
1.1586183
1.1586179
1.158245
1.1585979
1.1586177
1.1586178
1.1510577
1.158425
1.1586131
1.1586176
1.1447338
1.1581173
1.1586018
1.158617
1.1393098
1.1577004
1.1585813
1.1586158
1.134796
1.1571993
1.1585503
1.1586135
1.1311775
1.1566377
1.1585076
1.1586097
1.1284173
1.1560376
1.1584528
1.1586041
1.1264586
1.1554172
1.1583859
1.1585962
1.1252528
1.1547571
1.1583063
1.1585856
1.1247057
1.1540713
1.1582139
1.158572
1.1247156
1.1533639
1.158107
1.1585548
1.1251805
1.1526404
1.1579624
1.1585328
1.1260007
1.1518868
1.1577658
1.1584983
1.1270813
1.151072
1.1574876
1.1584416
1.1283342
1.1501377
1.1570755
1.1583435
1.1296821
1.148981
1.1564383
1.1581656
1.1310625
1.1474323
1.1554259
1.1578372
1.1323749
1.1453229
1.1539049
1.1572838
)
;
    }
    topAir_to_rightSolid
    {
        type            calculated;
        value           nonuniform List<scalar> 
130
(
1.0632014
1.0724551
1.0821741
1.0918488
1.101075
1.1095606
1.1171141
1.1236243
1.1290392
1.1333457
1.1365527
1.1386776
1.1397362
1.0556077
1.0664627
1.077631
1.0885061
1.0986682
1.1078538
1.1159155
1.1227867
1.1284534
1.1329317
1.1362517
1.1384452
1.1395365
1.0405761
1.0550244
1.0692557
1.0825274
1.0944717
1.1049403
1.1139061
1.1214041
1.127499
1.1322643
1.1357705
1.1380755
1.1392193
1.0189023
1.0398796
1.0589262
1.075553
1.0897813
1.1017895
1.1117879
1.1199759
1.1265288
1.1315944
1.1352917
1.1377095
1.1389058
0.99474447
1.0260992
1.0507217
1.0705004
1.0865915
1.0997398
1.1104532
1.1190962
1.1259407
1.1311923
1.1350056
1.1374907
1.1387178
0.99474447
1.0260992
1.0507217
1.0705004
1.0865915
1.0997398
1.1104531
1.1190962
1.1259407
1.1311923
1.1350055
1.1374906
1.1387178
1.0189022
1.0398796
1.058926
1.0755529
1.0897812
1.1017895
1.1117879
1.1199759
1.1265288
1.1315944
1.1352916
1.1377095
1.1389058
1.040576
1.0550243
1.0692556
1.0825273
1.0944716
1.1049403
1.113906
1.1214041
1.1274989
1.1322643
1.1357704
1.1380754
1.1392192
1.0556075
1.0664625
1.0776309
1.088506
1.0986682
1.1078537
1.1159154
1.1227867
1.1284534
1.1329316
1.1362517
1.1384452
1.1395365
1.0632012
1.0724549
1.0821739
1.0918487
1.101075
1.1095606
1.117114
1.1236242
1.1290391
1.1333457
1.1365527
1.1386776
1.1397362
)
;
    }
    topAir_to_heater
    {
        type            calculated;
        value           nonuniform List<scalar> 
40
(
1.0413451
1.0437075
1.04834
1.0549861
1.0297654
1.0325205
1.0379646
1.0458443
1.0061976
1.0096538
1.0166756
1.0272067
0.97020734
0.97429813
0.98320059
0.99796169
0.92235445
0.92590396
0.93490184
0.95353237
0.92235443
0.92590394
0.93490181
0.95353234
0.97020732
0.97429811
0.98320057
0.99796166
1.0061976
1.0096538
1.0166756
1.0272066
1.0297654
1.0325205
1.0379645
1.0458442
1.0413452
1.0437075
1.0483399
1.0549859
)
;
    }
    topAir_to_leftSolid
    {
        type            calculated;
        value           nonuniform List<scalar> 
130
(
1.1585627
1.1585585
1.1585502
1.1585375
1.1585204
1.1584985
1.1584722
1.1584416
1.1584077
1.1583721
1.1583376
1.1583078
1.1582872
1.1585615
1.1585571
1.1585483
1.1585348
1.1585162
1.1584923
1.1584628
1.1584276
1.1583874
1.1583432
1.1582979
1.1582561
1.1582253
1.1585596
1.1585548
1.1585452
1.1585302
1.1585093
1.1584817
1.1584467
1.1584032
1.1583507
1.1582889
1.1582194
1.1581467
1.1580832
1.1585576
1.1585525
1.1585419
1.1585254
1.158502
1.1584705
1.1584292
1.1583759
1.1583078
1.1582216
1.1581138
1.1579824
1.1578383
1.1585564
1.158551
1.1585399
1.1585224
1.1584974
1.1584632
1.1584176
1.1583571
1.1582768
1.1581693
1.1580226
1.157817
1.1575327
1.1585564
1.158551
1.1585399
1.1585224
1.1584974
1.1584632
1.1584176
1.1583571
1.1582768
1.1581693
1.1580226
1.157817
1.1575327
1.1585576
1.1585525
1.1585419
1.1585254
1.158502
1.1584705
1.1584292
1.1583759
1.1583078
1.1582216
1.1581138
1.1579824
1.1578383
1.1585596
1.1585548
1.1585452
1.1585302
1.1585093
1.1584817
1.1584467
1.1584032
1.1583507
1.1582889
1.1582194
1.1581467
1.1580832
1.1585615
1.1585571
1.1585483
1.1585348
1.1585162
1.1584923
1.1584628
1.1584276
1.1583874
1.1583432
1.1582979
1.1582561
1.1582253
1.1585627
1.1585585
1.1585502
1.1585375
1.1585204
1.1584985
1.1584722
1.1584416
1.1584077
1.1583721
1.1583376
1.1583078
1.1582872
)
;
    }
}


// ************************************************************************* //
