/*--------------------------------*- C++ -*----------------------------------*\
| =========                 |                                                 |
| \\      /  F ield         | OpenFOAM: The Open Source CFD Toolbox           |
|  \\    /   O peration     | Version:  2412                                  |
|   \\  /    A nd           | Website:  www.openfoam.com                      |
|    \\/     M anipulation  |                                                 |
\*---------------------------------------------------------------------------*/
FoamFile
{
    version     2.0;
    format      ascii;
    arch        "LSB;label=32;scalar=64";
    class       volScalarField;
    location    "100/topAir";
    object      T;
}
// * * * * * * * * * * * * * * * * * * * * * * * * * * * * * * * * * * * * * //

dimensions      [0 0 0 1 0 0 0];

internalField   nonuniform List<scalar> 
1200
(
300.00064
300.00132
300.00207
300.00294
300.00398
300.00525
300.0068
300.00868
300.01092
300.01353
300.01657
300.02248
300.09743
301.97127
303.63945
305.085
306.29852
307.27831
308.02994
308.56557
308.8962
309.04649
309.04373
308.91604
308.69102
308.39507
308.05262
307.68508
307.30955
306.95339
300.00002
300.00006
300.00013
300.00022
300.00034
300.00049
300.00068
300.00091
300.00118
300.00151
300.00187
300.00239
300.00575
300.05053
300.13025
300.23833
300.36835
300.51418
300.67018
300.83162
301.00358
301.18246
301.36718
301.55635
301.75361
301.96723
302.21251
302.51676
302.92506
303.48296
300
300
300.00001
300.00001
300.00002
300.00003
300.00005
300.00006
300.00009
300.00012
300.00015
300.0002
300.00036
300.00153
300.00447
300.00976
300.0178
300.02885
300.04304
300.06037
300.08098
300.10494
300.13263
300.17012
300.22108
300.29325
300.40019
300.5657
300.82907
301.2256
300
300
300
300
300.00001
300.00001
300.00001
300.00001
300.00002
300.00002
300.00002
300.00003
300.00004
300.00009
300.00024
300.00057
300.00116
300.00213
300.00359
300.00563
300.00837
300.01191
300.01635
300.02206
300.03097
300.04566
300.07109
300.11717
300.20228
300.34585
300.00065
300.00134
300.00209
300.00295
300.00399
300.00524
300.00678
300.00865
300.0109
300.01356
300.01667
300.02197
300.08354
301.84375
303.42646
304.80313
305.95421
306.87138
307.55902
308.03235
308.31384
308.43061
308.41227
308.28966
308.09483
307.86136
307.62452
307.39711
307.15301
306.9158
300.00002
300.00007
300.00013
300.00022
300.00033
300.00047
300.00065
300.00086
300.00112
300.00142
300.00176
300.00221
300.00465
300.04037
300.10429
300.19104
300.29516
300.41131
300.53454
300.66043
300.78545
300.90681
301.02265
301.13225
301.23629
301.33731
301.44046
301.56697
301.79099
302.18859
300
300
300.00001
300.00001
300.00002
300.00003
300.00004
300.00006
300.00008
300.0001
300.00013
300.00017
300.00028
300.00108
300.00309
300.00668
300.01213
300.01959
300.0291
300.04063
300.05409
300.06934
300.08623
300.10475
300.12498
300.14733
300.17304
300.2187
300.30471
300.45676
300
300
300
300
300.00001
300.00001
300.00001
300.00001
300.00001
300.00002
300.00002
300.00003
300.00003
300.00006
300.00015
300.00033
300.00067
300.00121
300.00202
300.00315
300.00465
300.00657
300.00896
300.01189
300.01547
300.01992
300.02596
300.03724
300.05897
300.0975
300.00067
300.00139
300.00217
300.00308
300.00419
300.00555
300.00725
300.00936
300.01198
300.01517
300.01907
300.0257
300.09775
302.18164
304.04329
305.64674
306.96275
307.97633
308.70014
309.16379
309.40407
309.45964
309.36887
309.16963
308.89914
308.5952
308.29692
308.0217
307.73704
307.46783
300.00002
300.00007
300.00013
300.00022
300.00034
300.00049
300.00068
300.00091
300.00119
300.00152
300.0019
300.00241
300.00519
300.04659
300.12021
300.21945
300.33763
300.46849
300.60638
300.74644
300.88473
301.01828
301.14526
301.26511
301.3792
301.49159
301.61028
301.75863
302.02245
302.48436
300
300
300.00001
300.00001
300.00002
300.00003
300.00004
300.00006
300.00008
300.00011
300.00014
300.00018
300.0003
300.0012
300.00344
300.00744
300.01345
300.02163
300.03202
300.04463
300.05941
300.07634
300.0955
300.11727
300.14247
300.17291
300.21226
300.28154
300.40996
300.62962
300
300
300
300
300.00001
300.00001
300.00001
300.00001
300.00001
300.00002
300.00002
300.00003
300.00003
300.00007
300.00016
300.00035
300.0007
300.00127
300.00212
300.0033
300.0049
300.00701
300.00977
300.01344
300.01855
300.02631
300.03964
300.06625
300.11813
300.20724
300.0007
300.00143
300.00225
300.00322
300.0044
300.00589
300.00778
300.01019
300.01327
300.0172
300.02227
300.03129
300.1245
302.79096
305.17572
307.23201
308.90158
310.12098
310.93589
311.41656
311.63015
311.63459
311.47846
311.20251
310.84139
310.42541
309.98207
309.53578
309.10579
308.71949
300.00002
300.00007
300.00014
300.00023
300.00036
300.00052
300.00072
300.00097
300.00128
300.00166
300.00211
300.00272
300.0063
300.05945
300.15422
300.28311
300.43901
300.62576
300.83734
301.0655
301.30308
301.54446
301.78481
302.02409
302.26636
302.52116
302.80597
303.15145
303.61067
304.25375
300
300
300.00001
300.00001
300.00002
300.00003
300.00004
300.00006
300.00009
300.00012
300.00015
300.0002
300.00034
300.00149
300.00439
300.00958
300.01754
300.02887
300.04418
300.06412
300.0895
300.12174
300.16408
300.22058
300.29739
300.40501
300.56056
300.79183
301.14242
301.65411
300
300
300
300
300.00001
300.00001
300.00001
300.00001
300.00001
300.00002
300.00002
300.00003
300.00004
300.00008
300.00019
300.00045
300.00091
300.00169
300.0029
300.00475
300.00752
300.01171
300.01818
300.02844
300.04622
300.07766
300.13349
300.23189
300.40087
300.66237
300.00071
300.00146
300.0023
300.0033
300.00454
300.0061
300.00812
300.01075
300.01418
300.01869
300.02482
300.03654
300.15937
303.66263
306.82195
309.55412
311.72884
313.0669
313.83385
314.19643
314.26625
314.12229
313.82286
313.41253
312.92613
312.39162
311.83209
311.26712
310.71343
310.19564
300.00002
300.00007
300.00014
300.00024
300.00037
300.00053
300.00074
300.00101
300.00134
300.00176
300.00225
300.00298
300.00762
300.07757
300.20495
300.42315
300.74362
301.14911
301.62115
302.14086
302.69047
303.25436
303.81935
304.37505
304.91406
305.43247
305.93068
306.41487
306.89734
307.38981
300
300
300.00001
300.00001
300.00002
300.00003
300.00005
300.00006
300.00009
300.00012
300.00016
300.00021
300.00039
300.0019
300.00577
300.01364
300.02875
300.057
300.10405
300.17575
300.27835
300.41812
300.60142
300.83485
301.12591
301.48414
301.923
302.46266
303.13175
303.9394
300
300
300
300
300.00001
300.00001
300.00001
300.00001
300.00001
300.00002
300.00002
300.00003
300.00004
300.00009
300.00024
300.00061
300.00137
300.00289
300.00581
300.01163
300.02237
300.04107
300.07203
300.12146
300.19818
300.31491
300.49032
300.75214
301.14032
301.68212
300.00071
300.00146
300.0023
300.0033
300.00454
300.0061
300.00812
300.01075
300.01418
300.01869
300.02482
300.03654
300.15937
303.66263
306.82195
309.55412
311.72884
313.0669
313.83385
314.19643
314.26625
314.12227
313.82287
313.41253
312.92613
312.39162
311.83209
311.26712
310.71343
310.19564
300.00002
300.00007
300.00014
300.00024
300.00037
300.00053
300.00074
300.00101
300.00134
300.00176
300.00225
300.00298
300.00762
300.07757
300.20495
300.42315
300.74362
301.14911
301.62115
302.14086
302.69047
303.25436
303.81935
304.37505
304.91406
305.43247
305.93068
306.41487
306.89734
307.38981
300
300
300.00001
300.00001
300.00002
300.00003
300.00005
300.00006
300.00009
300.00012
300.00016
300.00021
300.00039
300.0019
300.00577
300.01364
300.02875
300.057
300.10405
300.17575
300.27835
300.41812
300.60142
300.83485
301.12591
301.48414
301.923
302.46266
303.13175
303.9394
300
300
300
300
300.00001
300.00001
300.00001
300.00001
300.00001
300.00002
300.00002
300.00003
300.00004
300.00009
300.00024
300.00061
300.00137
300.00289
300.00581
300.01163
300.02237
300.04107
300.07203
300.12146
300.19818
300.31491
300.49032
300.75214
301.14032
301.68212
300.0007
300.00143
300.00225
300.00322
300.0044
300.00589
300.00778
300.01019
300.01327
300.0172
300.02227
300.03129
300.1245
302.79096
305.17572
307.23201
308.90158
310.12098
310.93589
311.41657
311.63015
311.63458
311.47846
311.2025
310.84138
310.42541
309.98207
309.53578
309.10579
308.71949
300.00002
300.00007
300.00014
300.00023
300.00036
300.00052
300.00072
300.00097
300.00128
300.00166
300.00211
300.00272
300.0063
300.05945
300.15422
300.28311
300.43901
300.62576
300.83734
301.0655
301.30308
301.54446
301.78481
302.02409
302.26636
302.52116
302.80597
303.15145
303.61067
304.25375
300
300
300.00001
300.00001
300.00002
300.00003
300.00004
300.00006
300.00009
300.00012
300.00015
300.0002
300.00034
300.00149
300.00439
300.00958
300.01754
300.02887
300.04418
300.06412
300.0895
300.12174
300.16408
300.22058
300.29739
300.40501
300.56056
300.79183
301.14242
301.65411
300
300
300
300
300.00001
300.00001
300.00001
300.00001
300.00001
300.00002
300.00002
300.00003
300.00004
300.00008
300.00019
300.00045
300.00091
300.00169
300.0029
300.00475
300.00752
300.01171
300.01818
300.02844
300.04622
300.07766
300.13349
300.23189
300.40087
300.66237
300.00067
300.00139
300.00217
300.00308
300.00419
300.00555
300.00725
300.00936
300.01198
300.01517
300.01907
300.0257
300.09775
302.18164
304.0433
305.64674
306.96275
307.97633
308.70014
309.1638
309.40407
309.45963
309.36888
309.16963
308.89914
308.5952
308.29692
308.0217
307.73705
307.46783
300.00002
300.00007
300.00013
300.00022
300.00034
300.00049
300.00068
300.00091
300.00119
300.00152
300.0019
300.00241
300.00519
300.04659
300.12021
300.21945
300.33763
300.46849
300.60638
300.74644
300.88473
301.01828
301.14526
301.26511
301.3792
301.49159
301.61028
301.75863
302.02244
302.48436
300
300
300.00001
300.00001
300.00002
300.00003
300.00004
300.00006
300.00008
300.00011
300.00014
300.00018
300.0003
300.0012
300.00344
300.00744
300.01345
300.02163
300.03202
300.04463
300.05941
300.07634
300.0955
300.11727
300.14247
300.17291
300.21226
300.28154
300.40996
300.62962
300
300
300
300
300.00001
300.00001
300.00001
300.00001
300.00001
300.00002
300.00002
300.00003
300.00003
300.00007
300.00016
300.00035
300.0007
300.00127
300.00212
300.0033
300.0049
300.00701
300.00977
300.01344
300.01855
300.02631
300.03964
300.06625
300.11813
300.20724
300.00065
300.00134
300.00209
300.00295
300.00399
300.00524
300.00678
300.00865
300.0109
300.01356
300.01667
300.02197
300.08354
301.84375
303.42647
304.80313
305.95421
306.87138
307.55903
308.03235
308.31385
308.43061
308.41228
308.28967
308.09484
307.86136
307.62453
307.39712
307.15302
306.91581
300.00002
300.00007
300.00013
300.00022
300.00033
300.00047
300.00065
300.00086
300.00112
300.00142
300.00176
300.00221
300.00465
300.04037
300.10429
300.19104
300.29516
300.41131
300.53454
300.66043
300.78545
300.90681
301.02265
301.13225
301.23629
301.33731
301.44047
301.56697
301.79099
302.18859
300
300
300.00001
300.00001
300.00002
300.00003
300.00004
300.00006
300.00008
300.0001
300.00013
300.00017
300.00028
300.00108
300.00309
300.00668
300.01213
300.01959
300.0291
300.04063
300.05409
300.06934
300.08623
300.10475
300.12498
300.14733
300.17304
300.2187
300.30471
300.45676
300
300
300
300
300.00001
300.00001
300.00001
300.00001
300.00001
300.00002
300.00002
300.00003
300.00003
300.00006
300.00015
300.00033
300.00067
300.00121
300.00202
300.00315
300.00465
300.00657
300.00896
300.01189
300.01547
300.01992
300.02596
300.03724
300.05897
300.0975
300.00064
300.00132
300.00207
300.00294
300.00398
300.00525
300.0068
300.00868
300.01092
300.01353
300.01657
300.02248
300.09743
301.97127
303.63945
305.08501
306.29853
307.27832
308.02995
308.56558
308.89621
309.04648
309.04375
308.91605
308.69104
308.39508
308.05263
307.68509
307.30956
306.95341
300.00002
300.00006
300.00013
300.00022
300.00034
300.00049
300.00068
300.00091
300.00118
300.00151
300.00187
300.00239
300.00575
300.05053
300.13025
300.23833
300.36835
300.51418
300.67018
300.83162
301.00359
301.18246
301.36718
301.55635
301.75362
301.96723
302.21251
302.51677
302.92507
303.48298
300
300
300.00001
300.00001
300.00002
300.00003
300.00005
300.00006
300.00009
300.00012
300.00015
300.0002
300.00036
300.00153
300.00447
300.00976
300.0178
300.02885
300.04304
300.06037
300.08098
300.10494
300.13263
300.17012
300.22108
300.29325
300.4002
300.5657
300.82908
301.22561
300
300
300
300
300.00001
300.00001
300.00001
300.00001
300.00002
300.00002
300.00002
300.00003
300.00004
300.00009
300.00024
300.00057
300.00116
300.00213
300.00359
300.00563
300.00837
300.01191
300.01635
300.02206
300.03097
300.04566
300.07109
300.11717
300.20228
300.34585
)
;

boundaryField
{
    maxY
    {
        type            zeroGradient;
    }
    minX
    {
        type            fixedValue;
        value           uniform 300;
    }
    maxX
    {
        type            inletOutlet;
        inletValue      uniform 300;
        value           nonuniform List<scalar> 
40
(
306.95079
303.48122
301.22474
300.34553
306.91356
302.1878
300.45654
300.09745
307.46563
302.48368
300.62944
300.20718
308.71719
304.25278
301.65371
300.6622
310.19328
307.38834
303.93857
301.68173
310.19328
307.38834
303.93857
301.68173
308.71719
304.25278
301.65371
300.6622
307.46564
302.48368
300.62944
300.20718
306.91356
302.18781
300.45654
300.09745
306.9508
303.48123
301.22475
300.34553
)
;
    }
    minZ
    {
        type            zeroGradient;
    }
    maxZ
    {
        type            zeroGradient;
    }
    topAir_to_rightSolid
    {
        type            compressible::turbulentTemperatureRadCoupledMixed;
        refValue        nonuniform List<scalar> 
130
(
326.93074
324.1087
321.19683
318.34975
315.68133
313.26633
311.14753
309.34426
307.86025
306.69017
305.82462
305.25386
304.97035
329.28341
325.93057
322.55151
319.32786
316.3733
313.74934
311.48204
309.57528
308.02028
306.80242
305.90576
305.31624
305.02382
334.04111
329.46492
325.07842
321.09168
317.58642
314.57656
312.04382
309.95683
308.28087
306.98309
306.03522
305.41528
305.10862
341.14818
334.26396
328.24972
323.17373
318.95304
315.47577
312.63785
310.3516
308.54587
307.16435
306.16384
305.51312
305.19222
349.43457
338.7535
330.81271
324.69867
319.88883
316.0632
313.01306
310.59496
308.70645
307.27296
306.24048
305.57139
305.24215
349.43458
338.7535
330.81272
324.69867
319.88883
316.0632
313.01306
310.59496
308.70645
307.27296
306.24049
305.5714
305.24216
341.14819
334.26398
328.24975
323.17376
318.95306
315.47579
312.63786
310.3516
308.54587
307.16435
306.16385
305.51312
305.19224
334.04115
329.46496
325.07846
321.09171
317.58644
314.57657
312.04384
309.95684
308.28088
306.9831
306.03523
305.41529
305.10863
329.28345
325.93062
322.55155
319.3279
316.37332
313.74935
311.48206
309.57529
308.0203
306.80243
305.90577
305.31625
305.02383
326.9308
324.10876
321.19688
318.34979
315.68135
313.26634
311.14755
309.34427
307.86026
306.69018
305.82463
305.25387
304.97036
)
;
        refGradient     uniform 0;
        valueFraction   uniform 0.99967867;
        source          uniform 0;
        logInterval     -1;
        writePrecision  8;
        updateHeader    1;
        writeToFile     0;
        useUserTime     1;
        kappaMethod     fluidThermo;
        value           nonuniform List<scalar> 
130
(
326.92442
324.10353
321.19277
318.34671
315.6792
313.26497
311.14681
309.34405
307.86042
306.6906
305.82521
305.25452
304.97099
329.2762
325.92467
322.54684
319.32432
316.37074
313.74762
311.48102
309.5748
308.02023
306.80268
305.90624
305.31683
305.02443
334.03274
329.45825
325.0733
321.08792
317.58381
314.57489
312.0429
309.95649
308.28097
306.98351
306.03585
305.41602
305.10937
341.13821
334.25646
328.24431
323.17002
318.95069
315.47449
312.63739
310.35176
308.54647
307.16525
306.16492
305.51427
305.19335
349.42289
338.74549
330.80737
324.69532
319.88698
316.06247
313.01318
310.59571
308.70763
307.27443
306.2421
305.57304
305.24374
349.42289
338.74549
330.80738
324.69532
319.88698
316.06248
313.01319
310.59571
308.70764
307.27443
306.2421
305.57305
305.24375
341.13822
334.25648
328.24434
323.17005
318.9507
315.4745
312.6374
310.35176
308.54648
307.16526
306.16493
305.51428
305.19337
334.03277
329.45829
325.07334
321.08795
317.58383
314.5749
312.04292
309.9565
308.28098
306.98352
306.03586
305.41603
305.10938
329.27625
325.92472
322.54689
319.32436
316.37077
313.74763
311.48103
309.57481
308.02024
306.8027
305.90625
305.31684
305.02444
326.92448
324.10359
321.19282
318.34675
315.67922
313.26499
311.14683
309.34406
307.86043
306.69062
305.82522
305.25453
304.971
)
;
    }
    topAir_to_heater
    {
        type            compressible::turbulentTemperatureRadCoupledMixed;
        refValue        nonuniform List<scalar> 
40
(
333.79631
333.03999
331.56745
329.47765
337.55098
336.64951
334.88283
332.35862
345.45947
344.27597
341.89698
338.39039
358.27785
356.77237
353.54039
348.30909
376.87051
375.42436
371.8093
364.54208
376.87052
375.42437
371.80931
364.54209
358.27785
356.77237
353.5404
348.3091
345.45947
344.27597
341.897
338.39041
337.55098
336.64952
334.88285
332.35865
333.79628
333.04
331.56747
329.47771
)
;
        refGradient     uniform 0;
        valueFraction   uniform 0.99967867;
        source          uniform 0;
        logInterval     -1;
        writePrecision  8;
        updateHeader    1;
        writeToFile     0;
        useUserTime     1;
        kappaMethod     fluidThermo;
        value           nonuniform List<scalar> 
40
(
333.78608
333.03055
331.55894
329.4702
337.5395
336.63884
334.87317
332.35013
345.44556
344.26304
341.88533
338.38029
358.26002
356.75579
353.52551
348.29643
376.84699
375.40232
371.78929
364.52511
376.847
375.40233
371.7893
364.52512
358.26003
356.75579
353.52552
348.29644
345.44557
344.26305
341.88535
338.38031
337.5395
336.63884
334.87319
332.35017
333.78606
333.03055
331.55897
329.47026
)
;
    }
    topAir_to_leftSolid
    {
        type            compressible::turbulentTemperatureRadCoupledMixed;
        refValue        nonuniform List<scalar> 
130
(
300.01529
300.01636
300.01852
300.0218
300.02625
300.0319
300.03873
300.04666
300.05544
300.06465
300.0736
300.08132
300.08663
300.0156
300.01673
300.01901
300.02252
300.02733
300.03352
300.04116
300.05027
300.0607
300.07214
300.08388
300.09471
300.10267
300.01609
300.01732
300.01983
300.02371
300.02912
300.03626
300.04534
300.05659
300.07021
300.0862
300.10422
300.12305
300.1395
300.01659
300.01793
300.02066
300.02494
300.031
300.03916
300.04986
300.06368
300.08132
300.10366
300.1316
300.16565
300.203
300.01691
300.0183
300.02118
300.02572
300.0322
300.04105
300.05288
300.06855
300.08935
300.11721
300.15524
300.20855
300.28228
300.01691
300.0183
300.02118
300.02572
300.0322
300.04105
300.05288
300.06855
300.08935
300.11721
300.15524
300.20855
300.28228
300.01659
300.01793
300.02066
300.02494
300.031
300.03916
300.04986
300.06368
300.08132
300.10366
300.1316
300.16565
300.203
300.01609
300.01732
300.01983
300.02371
300.02912
300.03626
300.04534
300.05659
300.07021
300.0862
300.10422
300.12305
300.1395
300.0156
300.01673
300.01901
300.02252
300.02733
300.03352
300.04116
300.05026
300.0607
300.07214
300.08388
300.09471
300.10267
300.01529
300.01636
300.01852
300.0218
300.02625
300.0319
300.03873
300.04666
300.05544
300.06465
300.0736
300.08132
300.08662
)
;
        refGradient     uniform 0;
        valueFraction   uniform 0.99967867;
        source          uniform 0;
        logInterval     -1;
        writePrecision  8;
        updateHeader    1;
        writeToFile     0;
        useUserTime     1;
        kappaMethod     fluidThermo;
        value           nonuniform List<scalar> 
130
(
300.01529
300.01636
300.01851
300.02179
300.02624
300.03189
300.03872
300.04665
300.05543
300.06464
300.07358
300.0813
300.08663
300.01559
300.01672
300.01901
300.02251
300.02732
300.03351
300.04115
300.05025
300.06069
300.07212
300.08386
300.09469
300.10267
300.01609
300.01732
300.01982
300.0237
300.02912
300.03625
300.04533
300.05658
300.07019
300.08618
300.10419
300.12302
300.13948
300.01659
300.01792
300.02065
300.02493
300.03099
300.03915
300.04985
300.06366
300.0813
300.10363
300.13157
300.16561
300.20298
300.0169
300.0183
300.02118
300.02571
300.03219
300.04104
300.05286
300.06854
300.08933
300.11718
300.15519
300.20849
300.28224
300.0169
300.0183
300.02118
300.02571
300.03219
300.04104
300.05286
300.06854
300.08933
300.11718
300.15519
300.20849
300.28224
300.01659
300.01792
300.02065
300.02493
300.03099
300.03915
300.04985
300.06366
300.0813
300.10363
300.13157
300.16561
300.20298
300.01609
300.01732
300.01982
300.0237
300.02912
300.03625
300.04533
300.05658
300.07019
300.08618
300.10419
300.12302
300.13948
300.01559
300.01672
300.01901
300.02251
300.02732
300.03351
300.04115
300.05025
300.06069
300.07212
300.08386
300.09469
300.10267
300.01529
300.01636
300.01851
300.02179
300.02624
300.03189
300.03872
300.04665
300.05543
300.06464
300.07358
300.0813
300.08663
)
;
    }
}


// ************************************************************************* //
