/*--------------------------------*- C++ -*----------------------------------*\
| =========                 |                                                 |
| \\      /  F ield         | OpenFOAM: The Open Source CFD Toolbox           |
|  \\    /   O peration     | Version:  2412                                  |
|   \\  /    A nd           | Website:  www.openfoam.com                      |
|    \\/     M anipulation  |                                                 |
\*---------------------------------------------------------------------------*/
FoamFile
{
    version     2.0;
    format      ascii;
    arch        "LSB;label=32;scalar=64";
    class       volVectorField;
    location    "100/topAir";
    object      U;
}
// * * * * * * * * * * * * * * * * * * * * * * * * * * * * * * * * * * * * * //

dimensions      [0 1 -1 0 0 0 0];

internalField   nonuniform List<vector> 
1200
(
(0.0972377 0.00097060768 0.00080595802)
(0.096242245 0.0013046441 0.001207902)
(0.094394016 0.0013380413 0.0013627862)
(0.091917318 0.0013059068 0.0014258418)
(0.08938488 0.0012545041 0.0014471714)
(0.086992024 0.0011846489 0.0014363926)
(0.084733194 0.0011005392 0.0014005767)
(0.082590625 0.0010061514 0.0013481884)
(0.080577438 0.00089899972 0.0012859868)
(0.078729197 0.00076574956 0.0012184517)
(0.077108784 0.00056923031 0.001148403)
(0.075805099 0.00021916956 0.0010786036)
(0.075218427 -0.0003791762 0.0010168829)
(0.075244585 -0.00050481578 0.00096401559)
(0.075456727 -0.00049134911 0.0009279634)
(0.07552162 -0.00041852561 0.00090193064)
(0.07534681 -0.00030617572 0.00087669887)
(0.074934094 -0.00017309718 0.00084479097)
(0.074298876 -3.6344302e-05 0.00079955745)
(0.073459994 9.0007527e-05 0.00073367225)
(0.072447497 0.00019599738 0.00063924261)
(0.071267647 0.00029769632 0.0005156172)
(0.069936825 0.00041344762 0.00036056522)
(0.068448918 0.00057400933 0.00016866616)
(0.066756986 0.00081590917 -6.2640249e-05)
(0.064748127 0.0012094791 -0.00032743614)
(0.062178599 0.0018924805 -0.00059240547)
(0.058555323 0.0031733197 -0.00077891191)
(0.053002759 0.005747606 -0.0009018821)
(0.035767316 0.011841015 -0.0009184524)
(0.099370287 0.00098154653 0.00083171883)
(0.10013348 0.0013348045 0.001261427)
(0.10060685 0.0014031341 0.0014444143)
(0.10061416 0.0014102799 0.0015365272)
(0.10044382 0.0013931656 0.0015858773)
(0.10024958 0.001350308 0.0016021813)
(0.10004216 0.0012838339 0.0015929006)
(0.099807619 0.0011934377 0.0015662941)
(0.099549633 0.0010702083 0.0015285836)
(0.099278292 0.0008931637 0.0014835572)
(0.098988885 0.00062172432 0.0014339006)
(0.098654529 0.00018146658 0.0013826816)
(0.09810643 -0.00048525863 0.0013293153)
(0.097427418 -0.00069672766 0.0012821921)
(0.096855329 -0.00073159805 0.0012435523)
(0.096413646 -0.00068475574 0.0012108781)
(0.096066716 -0.00058458855 0.0011807574)
(0.095792944 -0.0004513032 0.0011513178)
(0.095578033 -0.00030157509 0.0011217245)
(0.095405452 -0.00014465817 0.001092311)
(0.095242372 2.5465959e-05 0.0010640026)
(0.095079695 0.00023585634 0.0010328381)
(0.094896139 0.00052632202 0.00099710097)
(0.094634587 0.0009358278 0.00094954176)
(0.094218538 0.0015498683 0.00089544147)
(0.093541732 0.0025229395 0.00084303423)
(0.092440162 0.0041223748 0.00080423825)
(0.090703006 0.0068308282 0.00083571216)
(0.088355257 0.011530643 0.0010287313)
(0.082309209 0.019460375 0.0016210647)
(0.099369941 -0.00098472594 0.00083173154)
(0.10013179 -0.0013418222 0.001261455)
(0.10060224 -0.0014159504 0.0014444631)
(0.10060405 -0.0014326491 0.0015366011)
(0.10042383 -0.001431673 0.0015859768)
(0.10021219 -0.00141629 0.0016022942)
(0.099974476 -0.0013965817 0.0015929869)
(0.099688086 -0.0013854456 0.001566265)
(0.099343579 -0.0013956082 0.0015282833)
(0.098934446 -0.0014407517 0.001482755)
(0.09844348 -0.0015332659 0.0014319402)
(0.097842183 -0.0016710755 0.00137772)
(0.097092684 -0.0018258 0.0013219065)
(0.096209097 -0.0018674346 0.0012654771)
(0.095286216 -0.0018232176 0.0012108769)
(0.094400273 -0.0017401464 0.0011597765)
(0.093577285 -0.0016379923 0.0011127304)
(0.092827824 -0.0015232889 0.0010699143)
(0.092162366 -0.0013989935 0.0010311555)
(0.091592139 -0.0012617515 0.00099599168)
(0.09113356 -0.0010936385 0.00096317981)
(0.0908083 -0.00087207061 0.00092805571)
(0.090627947 -0.00055161815 0.00088881464)
(0.090656291 -6.0658283e-05 0.00086227425)
(0.090840179 0.00070974647 0.0008651615)
(0.091247262 0.0019164942 0.00092197101)
(0.09199358 0.0038168705 0.0010626864)
(0.093293806 0.0068203689 0.0013220854)
(0.095654937 0.011535707 0.001802816)
(0.10054099 0.018356589 0.002547457)
(0.097236705 -0.00097183822 0.00080596799)
(0.096238027 -0.0013072941 0.0012079178)
(0.094383745 -0.001342792 0.0013628154)
(0.091896753 -0.0013140418 0.0014258906)
(0.089347008 -0.00126829 0.001447239)
(0.086925012 -0.0012080404 0.0014364557)
(0.084616993 -0.0011404007 0.001400556)
(0.082391145 -0.0010744816 0.0013478836)
(0.080236341 -0.0010172406 0.0012849432)
(0.078145089 -0.00097396201 0.0012157015)
(0.076101394 -0.00094837426 0.0011424215)
(0.074082247 -0.00093994305 0.0010663773)
(0.072067429 -0.00094089728 0.00098831617)
(0.07006134 -0.00092409471 0.00090877584)
(0.068111799 -0.00088037846 0.00082937188)
(0.066279711 -0.00082219733 0.00075208918)
(0.064598778 -0.00075809695 0.00067870182)
(0.063080694 -0.00069039529 0.00061058641)
(0.06173248 -0.0006199095 0.00054752366)
(0.060564819 -0.00054601309 0.00048760841)
(0.059596245 -0.00046413176 0.00042920782)
(0.058859513 -0.00036570251 0.00036503122)
(0.058424699 -0.00022732223 0.00027916944)
(0.058355559 1.3243936e-05 0.00017155907)
(0.058933444 0.00041516093 7.3633968e-05)
(0.060344198 0.0010469881 5.0766772e-05)
(0.062878129 0.002032862 0.00020520048)
(0.06698903 0.0035740666 0.00062456346)
(0.073466656 0.0059250804 0.0013866867)
(0.087629987 0.0094087856 0.0022313879)
(0.098510888 0.00099432253 0.0010642425)
(0.098439077 0.0013485298 0.0016312853)
(0.097927519 0.0013987698 0.0018724314)
(0.096989023 0.0013826155 0.0019877223)
(0.095972404 0.0013451474 0.0020450775)
(0.09501441 0.0012872465 0.0020577518)
(0.094113859 0.0012137166 0.0020350247)
(0.093256182 0.0011291017 0.0019882082)
(0.092449791 0.0010317445 0.0019262741)
(0.09172319 0.00091019662 0.0018550605)
(0.091128222 0.00073303756 0.0017788609)
(0.090746755 0.00042555533 0.0017015642)
(0.090901871 -0.00011158037 0.0016337798)
(0.091608388 -0.00030967162 0.0016196389)
(0.092502751 -0.00044001621 0.001693242)
(0.093274178 -0.00055682063 0.0018420884)
(0.09383338 -0.00066633324 0.0020388564)
(0.094180934 -0.00077740967 0.0022570473)
(0.09433071 -0.000898214 0.0024720601)
(0.094299263 -0.0010311868 0.0026622866)
(0.094106838 -0.0011727172 0.0028095764)
(0.093771707 -0.0013117362 0.0029046581)
(0.093303464 -0.0014298293 0.002937006)
(0.092692354 -0.0015001917 0.0028930395)
(0.091893461 -0.0014773966 0.0027590444)
(0.090809528 -0.0012931327 0.0025244173)
(0.089239175 -0.00085105792 0.0021950014)
(0.086855957 6.9066209e-05 0.0018018639)
(0.083117314 0.0020732916 0.0013560149)
(0.071756517 0.0071833294 0.00069525342)
(0.10070183 0.0010012397 0.0010961797)
(0.10244707 0.0013608354 0.0016852639)
(0.10432577 0.0014289023 0.0019458099)
(0.10595405 0.0014353621 0.0020836504)
(0.10740526 0.001418451 0.0021664924)
(0.10877916 0.001377004 0.0022070826)
(0.1100916 0.0013135187 0.0022143148)
(0.11133301 0.0012283738 0.0021987286)
(0.11250485 0.0011139756 0.0021682531)
(0.11361527 0.00095188226 0.0021272983)
(0.11466233 0.00070676383 0.0020779496)
(0.11562393 0.00031508514 0.0020210568)
(0.11639107 -0.00028530304 0.0019517929)
(0.11701182 -0.00055631931 0.0018631434)
(0.1176766 -0.00073421497 0.0017612413)
(0.11840446 -0.00088937332 0.0016521217)
(0.11916938 -0.001036348 0.0015389852)
(0.1199581 -0.0011863369 0.001425936)
(0.12076269 -0.0013488455 0.0013163668)
(0.12157319 -0.0015259589 0.0012121476)
(0.12237914 -0.0017108168 0.001113006)
(0.12317275 -0.0018869239 0.0010114827)
(0.12394569 -0.0020240537 0.00089975902)
(0.12469859 -0.0020727449 0.00076677362)
(0.12543181 -0.0019506872 0.00060700304)
(0.12614064 -0.0015264841 0.00041641087)
(0.12686737 -0.00059856428 0.00019450742)
(0.12760299 0.0011781925 -3.3450771e-05)
(0.12851585 0.0045349183 -0.00015842041)
(0.13036507 0.010713501 5.6199874e-05)
(0.10070149 -0.0010044325 0.0010961859)
(0.10244542 -0.0013678686 0.001685286)
(0.10432128 -0.0014416746 0.0019458583)
(0.10594427 -0.0014574847 0.0020837312)
(0.1073861 -0.001456193 0.0021666008)
(0.10874363 -0.0014410378 0.0022071839)
(0.11002791 -0.0014218151 0.0022143054)
(0.11122162 -0.0014108974 0.0021983652)
(0.11231468 -0.0014201483 0.0021670369)
(0.11330052 -0.0014619777 0.0021243164)
(0.1141653 -0.0015478225 0.0020715806)
(0.11488626 -0.0016779758 0.0020084514)
(0.11543622 -0.0018265285 0.0019329057)
(0.11583006 -0.0018947324 0.0018417278)
(0.1161451 -0.0019085104 0.0017333864)
(0.11644281 -0.0019066522 0.0016093532)
(0.11674336 -0.0019038911 0.0014712534)
(0.11705472 -0.0019050592 0.0013208721)
(0.11738463 -0.0019138211 0.0011590295)
(0.11774065 -0.0019311567 0.0009842541)
(0.11813404 -0.001950838 0.00079183064)
(0.11858639 -0.001961295 0.00057291912)
(0.11912561 -0.0019423742 0.00031931352)
(0.11980154 -0.0018482902 3.5486321e-05)
(0.12069883 -0.0016021511 -0.00027439599)
(0.12195248 -0.0010745923 -0.00060416083)
(0.12376684 -4.2903515e-05 -0.00093951542)
(0.1263435 0.0017849033 -0.0012433807)
(0.13039992 0.0047781575 -0.0014117971)
(0.1396511 0.0089769924 -0.0012972507)
(0.098509905 -0.0009955577 0.0010642417)
(0.098434931 -0.0013511854 0.0016312998)
(0.097917497 -0.0014035088 0.0018724739)
(0.096969127 -0.0013906792 0.0019877938)
(0.095936085 -0.0013587072 0.0020451508)
(0.094950728 -0.0013100476 0.0020577271)
(0.09400448 -0.0012521887 0.0020346319)
(0.093070292 -0.0011943594 0.0019868092)
(0.092135323 -0.0011434184 0.00192247)
(0.09119121 -0.0011044454 0.0018459288)
(0.09022472 -0.0010810496 0.0017586653)
(0.089218276 -0.001073349 0.0016601621)
(0.0881582 -0.0010751148 0.0015482427)
(0.087052647 -0.0010667671 0.0014196701)
(0.085945705 -0.0010420282 0.001271874)
(0.084891505 -0.0010114322 0.0011046855)
(0.083921477 -0.00098138689 0.00091965515)
(0.083047393 -0.00095304169 0.0007181584)
(0.08227811 -0.0009273795 0.0004999779)
(0.081630204 -0.00090542573 0.00026160556)
(0.081119126 -0.00088388469 -5.0505255e-06)
(0.080765156 -0.00085749863 -0.00031301226)
(0.080586112 -0.00081999774 -0.00067904138)
(0.080650207 -0.00074873798 -0.0011160204)
(0.081080792 -0.00060569046 -0.0016226459)
(0.082087831 -0.00032624034 -0.0021698059)
(0.08400192 0.00020732219 -0.0027029254)
(0.087649965 0.0011393806 -0.0031569736)
(0.093745844 0.0025035507 -0.0034840151)
(0.10728399 0.0042767868 -0.0036962178)
(0.098383903 0.00098940904 0.00041043058)
(0.098090148 0.0013377907 0.00070713912)
(0.097489508 0.0013818219 0.00088270206)
(0.096605815 0.0013610194 0.00099049189)
(0.095715786 0.0013204146 0.0010620484)
(0.094917965 0.0012602764 0.0011059939)
(0.094203759 0.0011851669 0.0011261361)
(0.093555652 0.0010994476 0.0011277274)
(0.092976634 0.0010009683 0.001116336)
(0.092490644 0.00087696758 0.0010973456)
(0.092148881 0.00069264309 0.0010779476)
(0.092033605 0.0003659349 0.0010712922)
(0.09253105 -0.0002052119 0.0010935707)
(0.093629199 -0.00036369553 0.0012417385)
(0.094907474 -0.00043651524 0.0015681765)
(0.096007276 -0.00049352754 0.0020481372)
(0.096832375 -0.00054914001 0.0026324422)
(0.097390537 -0.00061972677 0.0032756917)
(0.097705779 -0.0007162786 0.0039326713)
(0.097806918 -0.00084164075 0.0045699239)
(0.097723457 -0.00099236247 0.0051650505)
(0.097477298 -0.001158327 0.0057007981)
(0.097074556 -0.0013205479 0.006159227)
(0.096493007 -0.0014437951 0.0065198708)
(0.095669445 -0.0014761348 0.0067551301)
(0.094483917 -0.001339387 0.0068243935)
(0.092714838 -0.00092152489 0.0066602152)
(0.090012365 1.8955484e-06 0.0061180996)
(0.085891537 0.0020577901 0.0049368525)
(0.073894923 0.0073487563 0.0030296286)
(0.10057208 0.0010007124 0.00042267931)
(0.10209592 0.0013605157 0.00073382568)
(0.10388865 0.0014258436 0.00092501535)
(0.10557454 0.001428955 0.001050812)
(0.10715385 0.0014090506 0.0011424963)
(0.10868938 0.001364812 0.0012082553)
(0.11019056 0.0012985748 0.0012514919)
(0.11164534 0.0012105545 0.0012766418)
(0.1130499 0.001092693 0.0012877118)
(0.11440627 0.00092535655 0.0012867601)
(0.11570622 0.00067056331 0.0012728274)
(0.11692179 0.00025949765 0.0012394422)
(0.11791541 -0.0003710485 0.0011758561)
(0.11875995 -0.00059716933 0.0010435113)
(0.11967298 -0.00070592583 0.00085878044)
(0.12067121 -0.00078650913 0.0006438916)
(0.12172369 -0.00086397988 0.00041664108)
(0.12281285 -0.00095871631 0.00018794663)
(0.12392369 -0.0010856417 -2.941817e-05)
(0.12503767 -0.001250725 -0.00022899655)
(0.12613538 -0.001449848 -0.00041197424)
(0.12719881 -0.0016662048 -0.00058735599)
(0.12821507 -0.0018677692 -0.00077382238)
(0.12916781 -0.0019991392 -0.00099214599)
(0.13003839 -0.0019683721 -0.0012756861)
(0.13081016 -0.0016292814 -0.001670854)
(0.13150201 -0.00075281605 -0.0022353442)
(0.13210426 0.0010597137 -0.0030619498)
(0.13277121 0.0045983659 -0.0041917208)
(0.13409272 0.011166081 -0.0056119876)
(0.10057174 -0.0010039285 0.00042266506)
(0.10209425 -0.0013676063 0.000733793)
(0.10388409 -0.0014387284 0.00092494847)
(0.10556462 -0.0014512932 0.0010506703)
(0.1071344 -0.0014472154 0.0011421896)
(0.10865328 -0.0014296874 0.0012075949)
(0.11012574 -0.001408555 0.0012500962)
(0.11153181 -0.0013964412 0.0012737767)
(0.11285587 -0.0014055318 0.0012820578)
(0.11408513 -0.0014484848 0.0012762421)
(0.11520024 -0.0015365707 0.0012551501)
(0.11617387 -0.0016685919 0.0012147851)
(0.11697218 -0.0018165269 0.0011483476)
(0.11761015 -0.0018657977 0.0010407981)
(0.11817439 -0.0018493294 0.00088507772)
(0.11873115 -0.0018142221 0.00068362326)
(0.11930032 -0.0017804314 0.00043808896)
(0.11988647 -0.0017584524 0.00015188779)
(0.12049045 -0.0017553962 -0.00017368945)
(0.12111234 -0.0017737357 -0.00054101449)
(0.12175242 -0.0018108233 -0.00095573054)
(0.12241302 -0.0018543343 -0.0014251984)
(0.12311159 -0.0018773507 -0.0019622213)
(0.1238892 -0.0018323588 -0.00259513)
(0.12482013 -0.0016328088 -0.0033630751)
(0.12603867 -0.0011284885 -0.004317996)
(0.12773362 -6.5918462e-05 -0.0055193146)
(0.13013924 0.0019001997 -0.0069939732)
(0.13399925 0.0052091838 -0.0087701739)
(0.1429188 0.0099475551 -0.010719756)
(0.098382903 -0.0009906557 0.00041037758)
(0.09808592 -0.0013404708 0.00070701108)
(0.097479278 -0.0013866057 0.0008824428)
(0.096585486 -0.0013691663 0.00098998297)
(0.095678629 -0.0013341376 0.0010610483)
(0.094852684 -0.0012834103 0.0011040117)
(0.094091313 -0.0012243326 0.0011221759)
(0.093363821 -0.0011661794 0.0011197771)
(0.092650518 -0.0011158353 0.0011003403)
(0.091935516 -0.0010783233 0.0010650993)
(0.091199071 -0.0010570656 0.0010127112)
(0.090418003 -0.0010517327 0.00093920564)
(0.089573622 -0.00105553 0.00083792724)
(0.088671365 -0.001045189 0.00069980133)
(0.087756593 -0.0010139089 0.00051758837)
(0.086885644 -0.00097446074 0.00028863057)
(0.086088621 -0.00093470303 1.4370868e-05)
(0.085374958 -0.00089793715 -0.00030324805)
(0.084746604 -0.00086535568 -0.00066352666)
(0.084199487 -0.00083559472 -0.0010701691)
(0.083735599 -0.00080763402 -0.0015364852)
(0.083369622 -0.0007779396 -0.0020789978)
(0.083135017 -0.0007351198 -0.0027163789)
(0.083095372 -0.00065488611 -0.0034774907)
(0.083374508 -0.00049277443 -0.004413993)
(0.084193669 -0.0001650102 -0.005607921)
(0.08595479 0.00046764231 -0.0071720926)
(0.089509538 0.0015659315 -0.0091743328)
(0.095642391 0.0032323398 -0.011581248)
(0.10980441 0.0055035352 -0.014077523)
(0.098359979 0.00099178732 0.00022342551)
(0.097991643 0.0013433922 0.00042114175)
(0.097303824 0.0013897681 0.00056825243)
(0.096353337 0.0013703638 0.00066909165)
(0.095419247 0.0013304748 0.00073655207)
(0.094592302 0.001270324 0.00077938559)
(0.093860903 0.0011943606 0.00080258127)
(0.093207929 0.0011067438 0.00081040756)
(0.092637136 0.0010046348 0.00080733593)
(0.092174747 0.00087305698 0.00079845329)
(0.091879363 0.00067066108 0.00079145033)
(0.091841522 0.0003003507 0.00080114787)
(0.092563055 -0.0003442785 0.00084453506)
(0.093985961 -0.00041965942 0.001056592)
(0.095571724 -0.00033771283 0.0015103686)
(0.096873095 -0.00018689369 0.0021971691)
(0.097783397 7.6919283e-06 0.0030547766)
(0.098342027 0.000193525 0.0040003277)
(0.098584432 0.0003528776 0.0049733338)
(0.09855392 0.00048183615 0.0059437231)
(0.098285212 0.00058149206 0.0068956748)
(0.09779437 0.00065856141 0.0078144381)
(0.097077908 0.00072407699 0.0086788159)
(0.09610503 0.00080671303 0.0094547472)
(0.094802196 0.00095234163 0.010086933)
(0.093031818 0.0012356861 0.010482819)
(0.090549787 0.0017883801 0.010480751)
(0.086914133 0.0028832652 0.0098037044)
(0.081291488 0.0051448943 0.008053769)
(0.065210303 0.010663883 0.0050479137)
(0.1005485 0.0010009402 0.0002304045)
(0.10199812 0.0013620612 0.00043714124)
(0.10370432 0.0014282484 0.00059441491)
(0.10532418 0.0014314879 0.00070706755)
(0.10685931 0.0014112023 0.00078806337)
(0.10836439 0.0013660219 0.00084585361)
(0.10984559 0.0012980241 0.00088495981)
(0.11129054 0.001206944 0.0009088397)
(0.1126943 0.0010836933 0.00092033424)
(0.11405578 0.0009063024 0.00092067848)
(0.11536056 0.00063160657 0.00090741254)
(0.11657261 0.0001805011 0.00087004634)
(0.11750551 -0.00051058522 0.00079116686)
(0.11827106 -0.00063709463 0.00060854065)
(0.11914566 -0.00056031816 0.0003426575)
(0.1201472 -0.000389861 2.0018322e-05)
(0.12123114 -0.00016471695 -0.00032128134)
(0.12234636 7.0696668e-05 -0.00064107676)
(0.1234754 0.00029391707 -0.0009211051)
(0.12459043 0.00049691989 -0.0011566321)
(0.12566014 0.0006823299 -0.001349678)
(0.12664762 0.00086633442 -0.0015095939)
(0.12751262 0.0010826215 -0.0016560057)
(0.12820338 0.0013808613 -0.0018199168)
(0.12862936 0.0018514317 -0.0020452492)
(0.12865219 0.0026502442 -0.0023966057)
(0.12807695 0.0040474278 -0.0029680577)
(0.12667253 0.0065216345 -0.0039185716)
(0.12450251 0.01095379 -0.0055324415)
(0.11917323 0.018775996 -0.008157477)
(0.10054815 -0.0010041939 0.00023038771)
(0.10199642 -0.0013692413 0.0004371006)
(0.10369966 -0.0014413219 0.00059432954)
(0.10531399 -0.0014542185 0.00070688951)
(0.10683926 -0.0014501808 0.00078769151)
(0.10832701 -0.001432576 0.00084508215)
(0.10977817 -0.0014114337 0.00088338277)
(0.11117193 -0.0013997501 0.00090569082)
(0.1124908 -0.0014102871 0.00091427426)
(0.11371849 -0.0014562687 0.00090975216)
(0.11483083 -0.0015486437 0.00089015917)
(0.11579509 -0.0016828604 0.00084985342)
(0.11656684 -0.0018255647 0.00077851298)
(0.11716457 -0.0018270437 0.00065234825)
(0.11769782 -0.0017302006 0.00045768259)
(0.11824253 -0.0015954141 0.0001930352)
(0.11882225 -0.0014499742 -0.00013360686)
(0.11944597 -0.0013002107 -0.00051948861)
(0.12011266 -0.0011558332 -0.00096793373)
(0.12081574 -0.0010206331 -0.0014832065)
(0.12155011 -0.00088879845 -0.0020704857)
(0.1223187 -0.00073946698 -0.0027414261)
(0.12312311 -0.00052602845 -0.003513817)
(0.12398074 -0.00017344405 -0.004417174)
(0.12484046 0.00043615162 -0.0054955574)
(0.12571969 0.0014863977 -0.0068080803)
(0.12669749 0.003267915 -0.00842687)
(0.12796558 0.0062293564 -0.010439855)
(0.13010174 0.011034343 -0.012979779)
(0.13479069 0.018171895 -0.016056464)
(0.098358952 -0.00099305013 0.00022337199)
(0.097987298 -0.0013461083 0.00042100881)
(0.097293285 -0.0013946247 0.00056797674)
(0.096332321 -0.0013786581 0.00066854355)
(0.095380663 -0.0013445005 0.00073547071)
(0.094524142 -0.0012940869 0.00077724718)
(0.093742713 -0.001234845 0.00079833194)
(0.093004671 -0.001176273 0.00080191926)
(0.092288205 -0.0011255512 0.00079028427)
(0.091573683 -0.0010879422 0.0007639362)
(0.090836618 -0.0010668256 0.00072082056)
(0.090048553 -0.0010611369 0.00065560097)
(0.089185616 -0.001062541 0.00055897419)
(0.088252403 -0.0010390972 0.00041740021)
(0.087299156 -0.00098224606 0.00021933136)
(0.086388869 -0.00090952015 -3.612645e-05)
(0.085557006 -0.00082717151 -0.00034604035)
(0.084809915 -0.00073875943 -0.00070684307)
(0.084140533 -0.00064670362 -0.0011162633)
(0.083541516 -0.00055200918 -0.0015862782)
(0.083012743 -0.00045336189 -0.0021426905)
(0.082568874 -0.00034388413 -0.0028190299)
(0.082247646 -0.00020603628 -0.0036581706)
(0.082104117 1.580632e-05 -0.0047200805)
(0.08238796 0.00039543636 -0.0060864119)
(0.083358074 0.0010412083 -0.0078648991)
(0.085400312 0.0021186668 -0.010178244)
(0.089117483 0.003878649 -0.013088575)
(0.095496563 0.0066485212 -0.016519496)
(0.11044057 0.010751314 -0.01991235)
(0.098347286 0.00099181529 6.6321183e-05)
(0.097941843 0.001343405 0.00012456401)
(0.097206545 0.0013891895 0.00016617791)
(0.096215911 0.0013687265 0.0001915945)
(0.09525451 0.0013275939 0.00020535908)
(0.094409909 0.0012660787 0.00021136772)
(0.093667119 0.001188548 0.00021191312)
(0.093007911 0.0010989214 0.00020858814)
(0.092436473 0.00099366104 0.00020291963)
(0.091981517 0.00085561634 0.00019675522)
(0.091708937 0.00063681737 0.00019323709)
(0.091717238 0.00022471678 0.00019898734)
(0.092644611 -0.0004878158 0.00022140196)
(0.094378347 -0.00038281967 0.0003368048)
(0.096297934 1.0686418e-05 0.00059005313)
(0.097927409 0.00055297342 0.00098756495)
(0.09906371 0.0012225106 0.0014983117)
(0.099715289 0.0019003719 0.0020718485)
(0.099970907 0.0025599226 0.0026783417)
(0.099913592 0.0031950529 0.0033080017)
(0.099584989 0.003808146 0.0039574551)
(0.098990079 0.0044072207 0.0046216032)
(0.098101887 0.0050051347 0.005289458)
(0.09685306 0.0056225405 0.0059389405)
(0.095114389 0.0062932982 0.0065310339)
(0.092657181 0.007076809 0.0069984975)
(0.089086936 0.0080867066 0.0072253292)
(0.083729068 0.0095606453 0.0070134342)
(0.075555268 0.011943911 0.0060503322)
(0.053134233 0.01676618 0.0041418682)
(0.10053584 0.0010009531 6.8362792e-05)
(0.1019484 0.0013625269 0.00012926038)
(0.1036075 0.0014288734 0.00017388)
(0.10518793 0.001431805 0.00020284193)
(0.10669613 0.0014108572 0.00022071977)
(0.10818323 0.0013646719 0.00023126648)
(0.10965182 0.0012951713 0.0002365547)
(0.11108784 0.0012017003 0.00023782628)
(0.11248487 0.0010742917 0.00023588683)
(0.1138386 0.00088892514 0.00023076026)
(0.11512698 0.00059769001 0.00022052711)
(0.11630089 0.00011184317 0.00019878869)
(0.11711316 -0.00062772211 0.00015477992)
(0.11771724 -0.00054907914 5.0717545e-05)
(0.11846104 -0.00011146994 -0.00010349189)
(0.11929204 0.00054935854 -0.00028895228)
(0.12017987 0.0014091322 -0.00047200665)
(0.12107277 0.0023517163 -0.00061869899)
(0.12190799 0.0033472498 -0.00071755527)
(0.12263344 0.004393028 -0.00076517511)
(0.12319923 0.0055003524 -0.00076004735)
(0.12354761 0.0066889718 -0.00070334664)
(0.12360747 0.0079880143 -0.00059865778)
(0.12328208 0.0094398513 -0.00046023124)
(0.12242853 0.011112067 -0.00031261085)
(0.1208291 0.013120006 -0.0001976786)
(0.11814979 0.015670831 -0.00018902577)
(0.11388376 0.019149947 -0.00042573801)
(0.10753406 0.024272896 -0.0011980909)
(0.091023419 0.032197279 -0.0029989299)
(0.10053548 -0.0010042379 6.8355142e-05)
(0.10194667 -0.00136978 0.00012924185)
(0.10360275 -0.0014420985 0.00017384116)
(0.10517754 -0.0014548451 0.00020276133)
(0.10667563 -0.0014504672 0.00022055324)
(0.1081449 -0.001432513 0.00023092445)
(0.10958247 -0.001411195 0.00023586141)
(0.11096544 -0.001399781 0.00023645218)
(0.11227441 -0.0014114196 0.00023326456)
(0.11349001 -0.0014595945 0.00022611098)
(0.1145833 -0.0015543345 0.00021354089)
(0.1155146 -0.0016863374 0.00019213103)
(0.11622421 -0.0018135801 0.00015554023)
(0.11673144 -0.0017348783 8.9257255e-05)
(0.11717321 -0.0015006718 -1.6510105e-05)
(0.11766319 -0.0011563267 -0.00016492921)
(0.11824287 -0.00071978633 -0.00034763635)
(0.11892164 -0.00019339697 -0.00056502612)
(0.11967792 0.00043783487 -0.00082143166)
(0.12043382 0.001189892 -0.0011181153)
(0.12117753 0.0020774118 -0.0014534538)
(0.12188396 0.003125234 -0.0018283966)
(0.1225163 0.0043745062 -0.0022492195)
(0.12302302 0.0058880539 -0.0027199515)
(0.1233332 0.0077629793 -0.0032537524)
(0.1233521 0.010156331 -0.0038754409)
(0.12296144 0.013332205 -0.0046280293)
(0.12202662 0.017745093 -0.0055859838)
(0.12064592 0.024186333 -0.0069009715)
(0.1155523 0.033657276 -0.0087829533)
(0.098346241 -0.000993091 6.6298042e-05)
(0.097937416 -0.0013461498 0.00012450651)
(0.097195783 -0.0013941037 0.00016605813)
(0.096194399 -0.0013771359 0.00019135562)
(0.095214886 -0.0013418534 0.00020488694)
(0.094339629 -0.0012903237 0.00021043337)
(0.093544637 -0.0012300426 0.00021005403)
(0.092795939 -0.0011706121 0.00020486266)
(0.092069672 -0.0011193516 0.00019538957)
(0.091343177 -0.0010815814 0.00018135737)
(0.090587528 -0.0010603886 0.00016125726)
(0.089768135 -0.0010535768 0.00013183257)
(0.08885337 -0.0010500731 8.746458e-05)
(0.087844609 -0.0010054979 1.9720404e-05)
(0.086806016 -0.00090526947 -7.9088435e-05)
(0.085815097 -0.00075966111 -0.0002078629)
(0.084907411 -0.00058430753 -0.00036588578)
(0.084093256 -0.00037513402 -0.00055311133)
(0.083406393 -0.00011256019 -0.0007676793)
(0.082946058 0.00021629124 -0.0010180545)
(0.082712498 0.00061328961 -0.0013244545)
(0.082724876 0.0010904652 -0.0017116144)
(0.083007949 0.0016768166 -0.0022104609)
(0.083591574 0.0024233145 -0.0028650126)
(0.084524021 0.0034091867 -0.0037253956)
(0.085899702 0.0047591992 -0.0048454818)
(0.087913891 0.0066773377 -0.0062801568)
(0.090979937 0.0095060305 -0.0080688546)
(0.096225544 0.013827453 -0.010197948)
(0.10844391 0.020523847 -0.01235207)
(0.098347286 0.00099181532 -6.6320966e-05)
(0.097941843 0.0013434051 -0.00012456393)
(0.097206545 0.0013891895 -0.00016617784)
(0.096215911 0.0013687265 -0.00019159451)
(0.09525451 0.0013275939 -0.0002053591)
(0.094409909 0.0012660787 -0.00021136783)
(0.093667119 0.001188548 -0.00021191329)
(0.093007911 0.0010989213 -0.00020858844)
(0.092436473 0.00099366107 -0.00020292013)
(0.091981517 0.00085561639 -0.00019675602)
(0.091708937 0.00063681748 -0.00019323827)
(0.091717238 0.00022471684 -0.00019898874)
(0.092644611 -0.00048781576 -0.00022140354)
(0.094378347 -0.00038281961 -0.00033680635)
(0.096297935 1.0686525e-05 -0.00059005461)
(0.097927409 0.00055297371 -0.00098756626)
(0.09906371 0.0012225108 -0.0014983128)
(0.099715289 0.001900372 -0.0020718493)
(0.099970907 0.0025599226 -0.0026783419)
(0.099913592 0.0031950533 -0.0033080016)
(0.099584987 0.0038081469 -0.0039574546)
(0.098990077 0.0044072166 -0.0046216059)
(0.098101886 0.0050051331 -0.0052894618)
(0.096853058 0.00562254 -0.0059389467)
(0.095114389 0.0062932969 -0.006531041)
(0.09265718 0.0070768072 -0.0069985064)
(0.089086937 0.0080867039 -0.0072253392)
(0.08372907 0.0095606418 -0.007013445)
(0.075555272 0.011943906 -0.0060503424)
(0.053134242 0.016766175 -0.0041418759)
(0.10053584 0.0010009531 -6.8362562e-05)
(0.1019484 0.0013625269 -0.00012926028)
(0.1036075 0.0014288734 -0.00017387998)
(0.10518793 0.001431805 -0.00020284191)
(0.10669613 0.0014108572 -0.00022071985)
(0.10818323 0.0013646719 -0.00023126664)
(0.10965182 0.0012951713 -0.00023655484)
(0.11108784 0.0012017004 -0.00023782658)
(0.11248487 0.0010742918 -0.00023588721)
(0.1138386 0.00088892524 -0.00023076082)
(0.11512698 0.00059769011 -0.00022052783)
(0.11630089 0.00011184328 -0.00019878946)
(0.11711316 -0.00062772197 -0.00015478074)
(0.11771724 -0.00054907905 -5.0718362e-05)
(0.11846104 -0.00011146965 0.00010349081)
(0.11929204 0.00054935891 0.00028895096)
(0.12017987 0.0014091325 0.00047200493)
(0.12107277 0.0023517167 0.00061869685)
(0.12190799 0.0033472501 0.00071755257)
(0.12263344 0.0043930285 0.00076517192)
(0.12319923 0.0055003532 0.00076004385)
(0.12354761 0.0066889669 0.00070334426)
(0.12360747 0.0079880115 0.00059865466)
(0.12328208 0.00943985 0.00046022807)
(0.12242854 0.011112065 0.00031260773)
(0.1208291 0.013120004 0.00019767567)
(0.1181498 0.015670829 0.00018902347)
(0.11388376 0.019149944 0.00042573639)
(0.10753407 0.024272893 0.0011980913)
(0.091023429 0.032197275 0.002998933)
(0.10053548 -0.0010042379 -6.8354936e-05)
(0.10194667 -0.00136978 -0.00012924175)
(0.10360275 -0.0014420985 -0.00017384109)
(0.10517754 -0.0014548452 -0.00020276137)
(0.10667563 -0.0014504672 -0.00022055332)
(0.1081449 -0.0014325131 -0.00023092452)
(0.10958247 -0.001411195 -0.00023586163)
(0.11096544 -0.001399781 -0.00023645244)
(0.11227441 -0.0014114196 -0.00023326503)
(0.11349001 -0.0014595946 -0.00022611151)
(0.1145833 -0.0015543345 -0.00021354158)
(0.1155146 -0.0016863373 -0.00019213175)
(0.11622421 -0.00181358 -0.00015554095)
(0.11673144 -0.0017348782 -8.9258153e-05)
(0.11717321 -0.0015006717 1.6508933e-05)
(0.11766319 -0.0011563267 0.0001649276)
(0.11824287 -0.00071978616 0.00034763426)
(0.11892164 -0.00019339688 0.00056502355)
(0.11967792 0.00043783488 0.00082142838)
(0.12043382 0.001189892 0.001118111)
(0.12117753 0.0020774118 0.0014534492)
(0.12188396 0.0031252315 0.0018283922)
(0.1225163 0.004374504 0.0022492154)
(0.12302302 0.0058880522 0.0027199483)
(0.1233332 0.0077629775 0.0032537486)
(0.1233521 0.010156329 0.0038754384)
(0.12296144 0.013332203 0.0046280273)
(0.12202663 0.01774509 0.0055859843)
(0.12064593 0.024186329 0.0069009747)
(0.11555231 0.033657271 0.0087829602)
(0.098346241 -0.00099309099 -6.6297867e-05)
(0.097937415 -0.0013461498 -0.00012450642)
(0.097195783 -0.0013941037 -0.00016605809)
(0.096194399 -0.0013771359 -0.00019135562)
(0.095214886 -0.0013418534 -0.00020488698)
(0.094339629 -0.0012903236 -0.00021043346)
(0.093544637 -0.0012300426 -0.00021005418)
(0.092795939 -0.0011706121 -0.00020486289)
(0.092069672 -0.0011193516 -0.00019539001)
(0.091343177 -0.0010815814 -0.00018135798)
(0.090587528 -0.0010603885 -0.00016125802)
(0.089768135 -0.0010535767 -0.00013183355)
(0.08885337 -0.0010500731 -8.7465794e-05)
(0.087844609 -0.0010054978 -1.9721933e-05)
(0.086806015 -0.00090526937 7.9086488e-05)
(0.085815096 -0.00075966104 0.00020786042)
(0.08490741 -0.00058430751 0.00036588264)
(0.084093255 -0.00037513411 0.00055310743)
(0.083406392 -0.00011256029 0.00076767431)
(0.082946057 0.00021629108 0.0010180483)
(0.082712497 0.00061328954 0.0013244472)
(0.082724875 0.0010904645 0.0017116062)
(0.083007947 0.0016768163 0.0022104523)