/*--------------------------------*- C++ -*----------------------------------*\
| =========                 |                                                 |
| \\      /  F ield         | OpenFOAM: The Open Source CFD Toolbox           |
|  \\    /   O peration     | Version:  2412                                  |
|   \\  /    A nd           | Website:  www.openfoam.com                      |
|    \\/     M anipulation  |                                                 |
\*---------------------------------------------------------------------------*/
FoamFile
{
    version     2.0;
    format      ascii;
    arch        "LSB;label=32;scalar=64";
    class       volScalarField;
    location    "30/rightSolid";
    object      T;
}
// * * * * * * * * * * * * * * * * * * * * * * * * * * * * * * * * * * * * * //

dimensions      [0 0 0 1 0 0 0];

internalField   nonuniform List<scalar> 
130
(
302.93564
302.29507
301.70912
301.2169
300.83142
300.54687
300.3473
300.21359
300.12766
300.07466
300.04348
300.0265
300.0191
304.36625
303.32917
302.41296
301.67287
301.1149
300.71702
300.44638
300.26976
300.15881
300.09168
300.0528
300.0319
300.02285
307.53412
305.51246
303.83295
302.55718
301.64694
301.02801
300.62365
300.36861
300.21293
300.12096
300.06875
300.04109
300.02924
312.87499
308.82958
305.81009
303.70597
302.30184
301.39529
300.82651
300.47909
300.27238
300.15278
300.08597
300.05102
300.03616
319.91193
312.32093
307.60004
304.64443
302.80025
301.66136
300.96849
300.5546
300.3124
300.17402
300.09746
300.05769
300.04085
319.91197
312.32095
307.60007
304.64443
302.80025
301.66136
300.9685
300.5546
300.3124
300.17402
300.09746
300.05769
300.04085
312.87503
308.82961
305.81012
303.70599
302.30186
301.3953
300.82653
300.4791
300.27239
300.15278
300.08597
300.05102
300.03616
307.53422
305.51253
303.83301
302.55722
301.64696
301.02802
300.62367
300.36862
300.21293
300.12097
300.06875
300.04109
300.02924
304.36636
303.32925
302.41302
301.67292
301.11493
300.71704
300.4464
300.26977
300.15881
300.09168
300.0528
300.0319
300.02285
302.93575
302.29515
301.70918
301.21695
300.83145
300.54689
300.34733
300.2136
300.12766
300.07466
300.04348
300.0265
300.0191
)
;

boundaryField
{
    maxX
    {
        type            zeroGradient;
    }
    minZ
    {
        type            zeroGradient;
    }
    maxZ
    {
        type            zeroGradient;
    }
    rightSolid_to_bottomWater
    {
        type            compressible::turbulentTemperatureRadCoupledMixed;
        refValue        nonuniform List<scalar> 
130
(
300.09541
300.07547
300.05593
300.03902
300.02579
300.01625
300.00982
300.00572
300.00323
300.00178
300.00097
300.00054
300.00034
300.17057
300.13542
300.09992
300.06898
300.04488
300.02773
300.0164
300.00934
300.00516
300.00278
300.00148
300.0008
300.00049
300.38609
300.29404
300.20688
300.13578
300.08401
300.04947
300.028
300.01534
300.00819
300.00428
300.00222
300.00118
300.0007
301.82836
301.07372
300.59488
300.31842
300.16787
300.08793
300.04577
300.02363
300.01207
300.00611
300.00309
300.00161
300.00094
304.87867
301.22465
300.53619
300.28016
300.1541
300.08552
300.04703
300.0254
300.01342
300.00696
300.00358
300.00188
300.00111
304.87873
301.22468
300.53621
300.28017
300.15411
300.08553
300.04703
300.0254
300.01342
300.00696
300.00358
300.00188
300.00111
301.82839
301.07374
300.59489
300.31844
300.16788
300.08793
300.04578
300.02363
300.01207
300.00611
300.00309
300.00161
300.00094
300.3861
300.29405
300.20689
300.13579
300.08401
300.04948
300.028
300.01534
300.00819
300.00428
300.00222
300.00118
300.0007
300.17058
300.13543
300.09992
300.06898
300.04488
300.02774
300.0164
300.00935
300.00516
300.00278
300.00148
300.0008
300.00049
300.09542
300.07547
300.05593
300.03903
300.02579
300.01625
300.00982
300.00572
300.00323
300.00178
300.00097
300.00054
300.00034
)
;
        refGradient     uniform 0;
        valueFraction   uniform 0.0075140686;
        source          uniform 0;
        logInterval     -1;
        writePrecision  8;
        updateHeader    1;
        writeToFile     0;
        useUserTime     1;
        kappaMethod     solidThermo;
        value           nonuniform List<scalar> 
130
(
302.90581
302.27139
301.69114
301.20382
300.82225
300.54067
300.34325
300.21102
300.12607
300.0737
300.0429
300.02614
300.01883
304.32431
303.29664
302.38887
301.65575
301.10315
300.70924
300.44137
300.26663
300.1569
300.09054
300.05212
300.03147
300.02254
307.46645
305.46197
303.79696
302.53246
301.63049
301.01738
300.61696
300.36451
300.21047
300.11951
300.06789
300.04056
300.02885
312.77359
308.75675
305.75981
303.67236
302.28001
301.38147
300.81798
300.47394
300.26933
300.151
300.08493
300.05038
300.03569
319.77662
312.22043
307.53418
304.60237
302.77384
301.64505
300.9586
300.5487
300.30895
300.17202
300.0963
300.05698
300.04033
319.77666
312.22044
307.53422
304.60237
302.77384
301.64505
300.95861
300.5487
300.30895
300.17202
300.0963
300.05698
300.04033
312.77363
308.75677
305.75985
303.67238
302.28002
301.38148
300.818
300.47394
300.26934
300.151
300.08493
300.05038
300.03569
307.46655
305.46204
303.79702
302.5325
301.63051
301.01739
300.61698
300.36452
300.21047
300.11952
300.06789
300.04056
300.02885
304.32441
303.29672
302.38893
301.65579
301.10318
300.70925
300.44139
300.26664
300.15691
300.09054
300.05212
300.03147
300.02254
302.90592
302.27147
301.69121
301.20386
300.82228
300.54068
300.34327
300.21103
300.12608
300.0737
300.0429
300.02614
300.01883
)
;
    }
    rightSolid_to_topAir
    {
        type            compressible::turbulentTemperatureRadCoupledMixed;
        refValue        nonuniform List<scalar> 
130
(
300.96109
301.00833
301.01338
300.98576
300.93546
300.8715
300.80122
300.73007
300.66173
300.59847
300.54153
300.49149
300.44988
301.2489
301.31606
301.3306
301.30502
301.25163
301.18104
301.10162
301.01952
300.93905
300.86304
300.79336
300.7313
300.67908
302.15579
302.2431
302.23987
302.17268
302.06478
301.9344
301.79482
301.65519
301.52153
301.3977
301.28615
301.18845
301.10482
303.87124
303.97083
303.9161
303.76281
303.55262
303.31457
303.06797
302.82511
302.59353
302.37766
302.18018
302.00314
301.8524
306.60095
306.60677
306.39249
306.05769
305.66407
305.24979
304.83797
304.44213
304.06971
303.72446
303.40808
303.12179
302.87363
306.60096
306.60679
306.39251
306.05771
305.66409
305.2498
304.83798
304.44214
304.06972
303.72447
303.40809
303.1218
302.87364
303.87125
303.97084
303.91611
303.76282
303.55263
303.31458
303.06798
302.82513
302.59354
302.37767
302.1802
302.00315
301.85241
302.15581
302.24312
302.23989
302.1727
302.0648
301.93442
301.79484
301.65521
301.52155
301.39771
301.28616
301.18847
301.10484
301.24891
301.31607
301.33062
301.30504
301.25165
301.18106
301.10164
301.01954
300.93906
300.86306
300.79338
300.73131
300.67909
300.9611
301.00835
301.01341
300.98579
300.93548
300.87152
300.80124
300.73009
300.66175
300.59849
300.54154
300.49151
300.44989
)
;
        refGradient     uniform 0;
        valueFraction   uniform 0.00032132529;
        source          uniform 0;
        logInterval     -1;
        writePrecision  8;
        updateHeader    1;
        writeToFile     0;
        useUserTime     1;
        kappaMethod     solidThermo;
        value           nonuniform List<scalar> 
130
(
302.92646
302.2876
301.7033
301.21256
300.82831
300.54474
300.34592
300.21274
300.12717
300.07441
300.04337
300.02648
300.01911
304.35476
303.31993
302.40586
301.66764
301.11121
300.71454
300.44479
300.26882
300.1583
300.09145
300.05274
300.03193
300.02291
307.51833
305.50005
303.82363
302.55048
301.64233
301.025
300.62179
300.36757
300.21242
300.1208
300.06878
300.04123
300.02941
312.85356
308.81336
305.79831
303.69777
302.2964
301.39189
300.82454
300.4781
300.27203
300.15281
300.08622
300.05138
300.03654
319.88514
312.30185
307.58678
304.63555
302.7946
301.65801
300.96675
300.55392
300.31239
300.17441
300.09807
300.05838
300.04153
319.88518
312.30186
307.58681
304.63555
302.7946
301.65801
300.96676
300.55392
300.31239
300.17441
300.09807
300.05838
300.04153
312.85361
308.81338
305.79835
303.6978
302.29642
301.39189
300.82456
300.47811
300.27203
300.15281
300.08622
300.05138
300.03654
307.51843
305.50012
303.82369
302.55052
301.64236
301.02501
300.62182
300.36757
300.21242
300.1208
300.06878
300.04123
300.02941
304.35486
303.32001
302.40592
301.66769
301.11124
300.71456
300.44482
300.26883
300.15831
300.09145
300.05274
300.03193
300.02292
302.92657
302.28769
301.70337
301.21261
300.82835
300.54476
300.34594
300.21275
300.12718
300.07442
300.04338
300.02648
300.01911
)
;
    }
    rightSolid_to_heater
    {
        type            compressible::turbulentTemperatureRadCoupledMixed;
        refValue        nonuniform List<scalar> 10(303.56569 305.40627 309.6451 317.5749 332.35922 332.35935 317.57502 309.64523 305.4064 303.56583);
        refGradient     uniform 0;
        valueFraction   uniform 0.50000003;
        source          uniform 0;
        logInterval     -1;
        writePrecision  8;
        updateHeader    1;
        writeToFile     0;
        useUserTime     1;
        kappaMethod     solidThermo;
        value           nonuniform List<scalar> 10(303.24639 304.88101 308.58257 315.21567 326.12432 326.1244 315.21576 308.58269 304.88113 303.24652);
    }
}


// ************************************************************************* //
