/*--------------------------------*- C++ -*----------------------------------*\
| =========                 |                                                 |
| \\      /  F ield         | OpenFOAM: The Open Source CFD Toolbox           |
|  \\    /   O peration     | Version:  2412                                  |
|   \\  /    A nd           | Website:  www.openfoam.com                      |
|    \\/     M anipulation  |                                                 |
\*---------------------------------------------------------------------------*/
FoamFile
{
    version     2.0;
    format      ascii;
    arch        "LSB;label=32;scalar=64";
    class       volScalarField;
    location    "70/topAir";
    object      rho;
}
// * * * * * * * * * * * * * * * * * * * * * * * * * * * * * * * * * * * * * //

dimensions      [1 -3 0 0 0 0 0];

internalField   nonuniform List<scalar> 
1200
(
1.1586206
1.1586199
1.1586191
1.1586181
1.1586167
1.1586149
1.1586125
1.1586094
1.1586055
1.1586007
1.1585948
1.1585809
1.158376
1.1532724
1.1487721
1.1449478
1.1418413
1.139461
1.137784
1.1367575
1.1363058
1.1363382
1.1367572
1.1374634
1.1383605
1.1394085
1.1405434
1.1417083
1.1428583
1.1439158
1.1586201
1.1586201
1.15862
1.1586199
1.1586198
1.1586196
1.1586193
1.158619
1.1586186
1.1586181
1.1586174
1.1586163
1.1586075
1.1584851
1.1582675
1.1579738
1.1576237
1.1572364
1.1568299
1.15642
1.1560201
1.15564
1.1552861
1.1549606
1.1546612
1.1543589
1.1540304
1.1536389
1.1531209
1.1523959
1.1586191
1.1586191
1.158619
1.158619
1.158619
1.158619
1.158619
1.158619
1.1586189
1.1586189
1.1586188
1.1586187
1.1586184
1.1586152
1.1586072
1.158593
1.1585713
1.1585418
1.1585042
1.1584589
1.1584065
1.1583475
1.158283
1.1582136
1.1581396
1.1580445
1.1579121
1.157718
1.1574226
1.1569919
1.158618
1.158618
1.158618
1.158618
1.158618
1.158618
1.158618
1.158618
1.1586179
1.1586179
1.1586179
1.1586179
1.1586179
1.1586177
1.1586174
1.1586165
1.1586149
1.1586123
1.1586085
1.1586032
1.1585961
1.1585872
1.1585763
1.1585634
1.1585486
1.15853
1.1585018
1.1584567
1.1583817
1.1582658
1.1586206
1.1586199
1.158619
1.158618
1.1586166
1.1586147
1.1586123
1.158609
1.1586049
1.1585997
1.1585933
1.1585806
1.158406
1.1534059
1.148953
1.1451448
1.1420465
1.1396807
1.1380231
1.137011
1.1365586
1.1365691
1.1369442
1.1375878
1.1384091
1.1393239
1.1402514
1.1411172
1.1419961
1.1428295
1.1586201
1.1586201
1.15862
1.1586199
1.1586198
1.1586196
1.1586193
1.158619
1.1586186
1.1586181
1.1586175
1.1586166
1.1586099
1.1585083
1.1583263
1.1580801
1.1577865
1.1574619
1.1571218
1.1567795
1.156446
1.1561296
1.1558354
1.1555658
1.1553203
1.1550939
1.1548765
1.1546566
1.154306
1.1537184
1.1586191
1.1586191
1.158619
1.158619
1.158619
1.158619
1.158619
1.158619
1.1586189
1.1586189
1.1586188
1.1586188
1.1586185
1.1586163
1.1586106
1.1586005
1.1585852
1.1585643
1.1585378
1.1585059
1.158469
1.1584276
1.1583823
1.1583335
1.1582812
1.158225
1.1581629
1.1580826
1.1579398
1.1577062
1.158618
1.158618
1.158618
1.158618
1.158618
1.158618
1.158618
1.158618
1.1586179
1.1586179
1.1586179
1.1586179
1.1586179
1.1586178
1.1586176
1.1586171
1.1586161
1.1586146
1.1586124
1.1586093
1.1586052
1.1585999
1.1585934
1.1585855
1.1585758
1.1585641
1.1585491
1.1585268
1.1584869
1.1584212
1.1586205
1.1586198
1.1586189
1.1586177
1.1586161
1.158614
1.1586111
1.1586072
1.158602
1.1585952
1.1585864
1.1585692
1.1583509
1.1520269
1.1464488
1.1417412
1.1380016
1.1352702
1.1334831
1.1325171
1.1322288
1.1324749
1.1331219
1.1340486
1.1351457
1.1363135
1.1374596
1.1385131
1.1395573
1.1405245
1.1586201
1.15862
1.15862
1.1586199
1.1586197
1.1586195
1.1586193
1.1586189
1.1586184
1.1586179
1.1586171
1.1586159
1.1586078
1.1584818
1.1582576
1.1579564
1.1575995
1.1572073
1.1567982
1.1563875
1.1559872
1.1556063
1.1552502
1.1549203
1.1546131
1.1543189
1.15402
1.1536911
1.1531728
1.1523395
1.1586191
1.158619
1.158619
1.158619
1.158619
1.158619
1.158619
1.158619
1.1586189
1.1586189
1.1586188
1.1586187
1.1586184
1.1586158
1.158609
1.1585969
1.1585787
1.1585541
1.1585227
1.1584848
1.1584403
1.1583892
1.1583311
1.1582651
1.1581887
1.1580976
1.1579831
1.1578137
1.1575245
1.1570665
1.158618
1.158618
1.158618
1.158618
1.158618
1.158618
1.158618
1.158618
1.1586179
1.1586179
1.1586179
1.1586179
1.1586179
1.1586178
1.1586175
1.158617
1.1586159
1.1586142
1.1586117
1.1586081
1.1586032
1.1585967
1.1585882
1.1585766
1.1585605
1.1585365
1.1584985
1.15843
1.1583057
1.1581056
1.1586205
1.1586197
1.1586187
1.1586174
1.1586156
1.1586132
1.1586097
1.158605
1.1585984
1.1585895
1.1585771
1.158552
1.1582499
1.1496059
1.1419978
1.1355892
1.1306047
1.1272164
1.1252082
1.1242965
1.124222
1.1247695
1.125765
1.1270694
1.1285708
1.130178
1.1318149
1.1334167
1.1349346
1.1362901
1.1586201
1.15862
1.15862
1.1586199
1.1586197
1.1586195
1.1586192
1.1586188
1.1586182
1.1586175
1.1586165
1.158615
1.1586038
1.1584304
1.1581207
1.157699
1.1571557
1.1565134
1.1558016
1.1550492
1.1542859
1.153533
1.1528028
1.1520993
1.1514165
1.150737
1.1500287
1.1492381
1.1482757
1.1470247
1.1586191
1.158619
1.158619
1.158619
1.158619
1.158619
1.158619
1.1586189
1.1586189
1.1586189
1.1586188
1.1586187
1.1586183
1.1586146
1.1586052
1.1585882
1.1585615
1.1585229
1.1584705
1.1584022
1.1583125
1.1581964
1.1580477
1.157857
1.1576106
1.1572857
1.1568465
1.1562383
1.1553797
1.154204
1.158618
1.158618
1.158618
1.158618
1.158618
1.158618
1.158618
1.158618
1.1586179
1.1586179
1.1586179
1.1586179
1.1586179
1.1586178
1.1586174
1.1586166
1.158615
1.1586124
1.1586083
1.1586019
1.1585921
1.1585772
1.1585544
1.158519
1.1584606
1.1583642
1.1582052
1.1579443
1.1575252
1.1569118
1.1586204
1.1586196
1.1586186
1.1586172
1.1586153
1.1586126
1.1586089
1.1586035
1.1585959
1.1585852
1.1585696
1.158535
1.1581148
1.1461392
1.1356005
1.1267175
1.1199153
1.1161609
1.114392
1.1139641
1.1144592
1.1155904
1.1171527
1.1189953
1.1210057
1.1230984
1.1252073
1.1272803
1.129275
1.1311121
1.1586201
1.15862
1.15862
1.1586198
1.1586197
1.1586194
1.1586191
1.1586187
1.158618
1.1586172
1.1586161
1.1586142
1.1585987
1.1583563
1.1578728
1.1570664
1.1559073
1.1544758
1.1528543
1.1511226
1.1493522
1.1476027
1.1459219
1.1443451
1.1428962
1.141588
1.1404223
1.13939
1.1384739
1.1376579
1.1586191
1.158619
1.158619
1.158619
1.158619
1.158619
1.158619
1.1586189
1.1586189
1.1586188
1.1586188
1.1586187
1.1586181
1.158613
1.1585988
1.1585698
1.1585093
1.1583989
1.1582203
1.1579554
1.1575877
1.1571032
1.1564911
1.1557424
1.1548493
1.1538018
1.1525836
1.1511668
1.1495083
1.1476085
1.158618
1.158618
1.158618
1.158618
1.158618
1.158618
1.158618
1.158618
1.1586179
1.1586179
1.1586179
1.1586179
1.1586179
1.1586177
1.1586172
1.1586159
1.158613
1.1586071
1.1585952
1.1585722
1.1585311
1.1584624
1.1583534
1.1581876
1.1579435
1.1575924
1.157095
1.1563953
1.1554149
1.1541093
1.1586204
1.1586196
1.1586186
1.1586172
1.1586153
1.1586126
1.1586089
1.1586035
1.1585959
1.1585852
1.1585696
1.158535
1.1581148
1.1461392
1.1356005
1.1267175
1.1199153
1.1161609
1.114392
1.1139641
1.1144592
1.1155904
1.1171527
1.1189953
1.1210057
1.1230983
1.1252073
1.1272803
1.129275
1.1311121
1.1586201
1.15862
1.15862
1.1586198
1.1586197
1.1586194
1.1586191
1.1586187
1.158618
1.1586172
1.1586161
1.1586142
1.1585987
1.1583563
1.1578728
1.1570664
1.1559073
1.1544758
1.1528543
1.1511226
1.1493522
1.1476027
1.1459219
1.144345
1.1428962
1.141588
1.1404223
1.13939
1.1384739
1.1376579
1.1586191
1.158619
1.158619
1.158619
1.158619
1.158619
1.158619
1.1586189
1.1586189
1.1586188
1.1586188
1.1586187
1.1586181
1.158613
1.1585988
1.1585698
1.1585093
1.1583989
1.1582203
1.1579554
1.1575877
1.1571032
1.1564911
1.1557424
1.1548493
1.1538018
1.1525836
1.1511668
1.1495083
1.1476084
1.158618
1.158618
1.158618
1.158618
1.158618
1.158618
1.158618
1.158618
1.1586179
1.1586179
1.1586179
1.1586179
1.1586179
1.1586177
1.1586172
1.1586159
1.158613
1.1586071
1.1585952
1.1585722
1.1585311
1.1584624
1.1583534
1.1581876
1.1579435
1.1575924
1.157095
1.1563953
1.1554149
1.1541093
1.1586205
1.1586197
1.1586187
1.1586174
1.1586156
1.1586132
1.1586097
1.158605
1.1585984
1.1585895
1.1585771
1.158552
1.1582499
1.1496059
1.1419978
1.1355892
1.1306047
1.1272164
1.1252082
1.1242965
1.124222
1.1247695
1.125765
1.1270694
1.1285708
1.130178
1.1318149
1.1334167
1.1349346
1.1362901
1.1586201
1.15862
1.15862
1.1586199
1.1586197
1.1586195
1.1586192
1.1586188
1.1586182
1.1586175
1.1586165
1.158615
1.1586038
1.1584304
1.1581207
1.157699
1.1571557
1.1565134
1.1558016
1.1550492
1.1542859
1.153533
1.1528028
1.1520993
1.1514165
1.150737
1.1500287
1.1492381
1.1482757
1.1470247
1.1586191
1.158619
1.158619
1.158619
1.158619
1.158619
1.158619
1.1586189
1.1586189
1.1586189
1.1586188
1.1586187
1.1586183
1.1586146
1.1586052
1.1585882
1.1585615
1.1585229
1.1584705
1.1584022
1.1583125
1.1581964
1.1580477
1.157857
1.1576106
1.1572857
1.1568465
1.1562383
1.1553797
1.154204
1.158618
1.158618
1.158618
1.158618
1.158618
1.158618
1.158618
1.158618
1.1586179
1.1586179
1.1586179
1.1586179
1.1586179
1.1586178
1.1586174
1.1586166
1.158615
1.1586124
1.1586083
1.1586019
1.1585921
1.1585772
1.1585544
1.158519
1.1584606
1.1583642
1.1582052
1.1579443
1.1575252
1.1569118
1.1586205
1.1586198
1.1586189
1.1586177
1.1586161
1.158614
1.1586111
1.1586072
1.158602
1.1585952
1.1585864
1.1585692
1.1583509
1.1520269
1.1464488
1.1417412
1.1380016
1.1352702
1.1334831
1.1325171
1.1322287
1.1324749
1.1331219
1.1340486
1.1351457
1.1363135
1.1374596
1.1385131
1.1395572
1.1405245
1.1586201
1.15862
1.15862
1.1586199
1.1586197
1.1586195
1.1586193
1.1586189
1.1586184
1.1586179
1.1586171
1.1586159
1.1586078
1.1584818
1.1582576
1.1579564
1.1575995
1.1572073
1.1567982
1.1563875
1.1559872
1.1556063
1.1552502
1.1549203
1.1546131
1.1543189
1.15402
1.1536911
1.1531727
1.1523395
1.1586191
1.158619
1.158619
1.158619
1.158619
1.158619
1.158619
1.158619
1.1586189
1.1586189
1.1586188
1.1586187
1.1586184
1.1586158
1.158609
1.1585969
1.1585787
1.1585541
1.1585227
1.1584848
1.1584403
1.1583892
1.1583311
1.1582651
1.1581887
1.1580976
1.1579831
1.1578137
1.1575245
1.1570665
1.158618
1.158618
1.158618
1.158618
1.158618
1.158618
1.158618
1.158618
1.1586179
1.1586179
1.1586179
1.1586179
1.1586179
1.1586178
1.1586175
1.158617
1.1586159
1.1586142
1.1586117
1.1586081
1.1586032
1.1585967
1.1585882
1.1585766
1.1585605
1.1585365
1.1584985
1.15843
1.1583057
1.1581056
1.1586206
1.1586199
1.158619
1.158618
1.1586166
1.1586147
1.1586123
1.158609
1.1586049
1.1585997
1.1585933
1.1585806
1.158406
1.1534059
1.148953
1.1451448
1.1420465
1.1396807
1.1380231
1.137011
1.1365586
1.1365691
1.1369442
1.1375877
1.1384091
1.1393238
1.1402514
1.1411171
1.1419961
1.1428295
1.1586201
1.1586201
1.15862
1.1586199
1.1586198
1.1586196
1.1586193
1.158619
1.1586186
1.1586181
1.1586175
1.1586166
1.1586099
1.1585083
1.1583263
1.1580801
1.1577865
1.1574619
1.1571218
1.1567795
1.156446
1.1561296
1.1558354
1.1555658
1.1553203
1.1550939
1.1548765
1.1546566
1.1543059
1.1537184
1.1586191
1.1586191
1.158619
1.158619
1.158619
1.158619
1.158619
1.158619
1.1586189
1.1586189
1.1586188
1.1586188
1.1586185
1.1586163
1.1586106
1.1586005
1.1585852
1.1585643
1.1585378
1.1585059
1.158469
1.1584276
1.1583823
1.1583335
1.1582812
1.158225
1.1581629
1.1580826
1.1579398
1.1577062
1.158618
1.158618
1.158618
1.158618
1.158618
1.158618
1.158618
1.158618
1.1586179
1.1586179
1.1586179
1.1586179
1.1586179
1.1586178
1.1586176
1.1586171
1.1586161
1.1586146
1.1586124
1.1586093
1.1586052
1.1585999
1.1585934
1.1585855
1.1585758
1.1585641
1.1585491
1.1585268
1.1584869
1.1584212
1.1586206
1.1586199
1.1586191
1.1586181
1.1586167
1.1586149
1.1586125
1.1586094
1.1586055
1.1586007
1.1585948
1.1585809
1.158376
1.1532724
1.1487722
1.1449478
1.1418413
1.139461
1.137784
1.1367575
1.1363057
1.1363382
1.1367571
1.1374634
1.1383604
1.1394084
1.1405434
1.1417083
1.1428583
1.1439158
1.1586201
1.1586201
1.15862
1.1586199
1.1586198
1.1586196
1.1586193
1.158619
1.1586186
1.1586181
1.1586174
1.1586163
1.1586075
1.1584851
1.1582675
1.1579738
1.1576237
1.1572364
1.1568299
1.15642
1.1560201
1.15564
1.1552861
1.1549606
1.1546612
1.1543589
1.1540303
1.1536389
1.1531208
1.1523959
1.1586191
1.1586191
1.158619
1.158619
1.158619
1.158619
1.158619
1.158619
1.1586189
1.1586189
1.1586188
1.1586187
1.1586184
1.1586152
1.1586072
1.158593
1.1585713
1.1585418
1.1585042
1.1584589
1.1584065
1.1583475
1.158283
1.1582136
1.1581396
1.1580445
1.1579121
1.157718
1.1574226
1.1569919
1.158618
1.158618
1.158618
1.158618
1.158618
1.158618
1.158618
1.158618
1.1586179
1.1586179
1.1586179
1.1586179
1.1586179
1.1586177
1.1586174
1.1586165
1.1586149
1.1586123
1.1586085
1.1586032
1.1585961
1.1585872
1.1585763
1.1585634
1.1585486
1.15853
1.1585018
1.1584567
1.1583817
1.1582658
)
;

boundaryField
{
    maxY
    {
        type            calculated;
        value           nonuniform List<scalar> 
300
(
1.1586175
1.1586175
1.1586175
1.1586175
1.1586175
1.1586175
1.1586175
1.1586175
1.1586175
1.1586175
1.1586175
1.1586175
1.1586175
1.1586175
1.1586175
1.1586175
1.1586175
1.1586175
1.1586175
1.1586175
1.1586175
1.1586175
1.1586175
1.1586175
1.1586175
1.1586175
1.1586175
1.1586175
1.1586175
1.1586175
1.1586175
1.1586175
1.1586175
1.1586175
1.1586175
1.1586175
1.1586175
1.1586175
1.1586175
1.1586175
1.1586174
1.1586174
1.1586174
1.1586174
1.1586174
1.1586174
1.1586174
1.1586174
1.1586174
1.1586174
1.1586174
1.1586174
1.1586174
1.1586174
1.1586174
1.1586174
1.1586174
1.1586174
1.1586174
1.1586174
1.1586174
1.1586174
1.1586174
1.1586174
1.1586174
1.1586174
1.1586174
1.1586174
1.1586174
1.1586174
1.1586174
1.1586174
1.1586174
1.1586174
1.1586174
1.1586174
1.1586174
1.1586174
1.1586174
1.1586174
1.1586174
1.1586174
1.1586174
1.1586174
1.1586174
1.1586174
1.1586174
1.1586174
1.1586174
1.1586174
1.1586174
1.1586174
1.1586174
1.1586174
1.1586174
1.1586174
1.1586174
1.1586174
1.1586174
1.1586174
1.1586174
1.1586174
1.1586174
1.1586174
1.1586174
1.1586174
1.1586174
1.1586174
1.1586174
1.1586174
1.1586174
1.1586174
1.1586174
1.1586174
1.1586174
1.1586174
1.1586174
1.1586174
1.1586174
1.1586174
1.1586174
1.1586174
1.1586174
1.1586174
1.1586174
1.1586174
1.1586174
1.1586174
1.1586174
1.1586174
1.1586172
1.1586173
1.1586173
1.1586172
1.1586172
1.1586172
1.1586172
1.1586173
1.1586173
1.1586172
1.1586168
1.1586171
1.158617
1.1586169
1.1586166
1.1586166
1.1586169
1.158617
1.1586171
1.1586168
1.158616
1.1586165
1.1586164
1.158616
1.1586153
1.1586153
1.158616
1.1586164
1.1586165
1.158616
1.1586144
1.1586156
1.1586154
1.1586145
1.1586124
1.1586124
1.1586145
1.1586154
1.1586156
1.1586144
1.1586118
1.1586141
1.1586137
1.1586119
1.1586066
1.1586066
1.1586119
1.1586137
1.1586141
1.1586118
1.158608
1.1586119
1.1586111
1.1586078
1.1585947
1.1585947
1.1586078
1.1586111
1.1586119
1.158608
1.1586027
1.1586088
1.1586075
1.1586014
1.1585717
1.1585717
1.1586014
1.1586075
1.1586088
1.1586027
1.1585956
1.1586047
1.1586027
1.1585916
1.1585306
1.1585306
1.1585916
1.1586027
1.1586047
1.1585956
1.1585867
1.1585994
1.1585962
1.1585767
1.1584619
1.1584619
1.1585767
1.1585962
1.1585994
1.1585867
1.1585758
1.1585929
1.1585876
1.1585539
1.1583529
1.1583529
1.1585539
1.1585876
1.1585929
1.1585758
1.1585629
1.1585849
1.1585761
1.1585184
1.1581871
1.1581871
1.1585184
1.1585761
1.1585849
1.1585629
1.158548
1.1585753
1.1585599
1.15846
1.157943
1.157943
1.15846
1.1585599
1.1585753
1.158548
1.1585294
1.1585636
1.158536
1.1583637
1.1575919
1.1575919
1.1583637
1.158536
1.1585636
1.1585294
1.1585013
1.1585486
1.158498
1.1582046
1.1570945
1.1570945
1.1582046
1.158498
1.1585486
1.1585013
1.1584561
1.1585263
1.1584294
1.1579438
1.1563947
1.1563947
1.1579438
1.1584294
1.1585263
1.1584561
1.1583812
1.1584863
1.1583052
1.1575247
1.1554144
1.1554144
1.1575247
1.1583052
1.1584863
1.1583812
1.1582653
1.1584207
1.1581051
1.1569113
1.1541088
1.1541088
1.1569113
1.1581051
1.1584207
1.1582653
)
;
    }
    minX
    {
        type            calculated;
        value           nonuniform List<scalar> 
40
(
1.1586212
1.1586201
1.1586191
1.158618
1.1586212
1.1586201
1.1586191
1.158618
1.1586212
1.1586201
1.1586191
1.158618
1.1586212
1.1586201
1.1586191
1.158618
1.1586212
1.1586201
1.1586191
1.158618
1.1586212
1.1586201
1.1586191
1.158618
1.1586212
1.1586201
1.1586191
1.158618
1.1586212
1.1586201
1.1586191
1.158618
1.1586212
1.1586201
1.1586191
1.158618
1.1586212
1.1586201
1.1586191
1.158618
)
;
    }
    maxX
    {
        type            calculated;
        value           nonuniform List<scalar> 
40
(
1.1439263
1.1524013
1.1569938
1.1582663
1.1428392
1.1537214
1.1577069
1.1584213
1.1405339
1.1523426
1.1570674
1.1581059
1.1362999
1.1470292
1.1542059
1.1569127
1.131122
1.1376646
1.1476124
1.1541113
1.131122
1.1376646
1.1476124
1.1541113
1.1362999
1.1470292
1.1542059
1.1569127
1.1405339
1.1523426
1.1570674
1.1581059
1.1428392
1.1537214
1.1577069
1.1584213
1.1439262
1.1524013
1.1569938
1.1582663
)
;
    }
    minZ
    {
        type            calculated;
        value           nonuniform List<scalar> 
120
(
1.1586206
1.1586201
1.1586191
1.158618
1.1586199
1.1586201
1.1586191
1.158618
1.1586191
1.15862
1.158619
1.158618
1.1586181
1.1586199
1.158619
1.158618
1.1586167
1.1586198
1.158619
1.158618
1.1586149
1.1586196
1.158619
1.158618
1.1586125
1.1586193
1.158619
1.158618
1.1586094
1.158619
1.158619
1.158618
1.1586055
1.1586186
1.1586189
1.1586179
1.1586007
1.1586181
1.1586189
1.1586179
1.1585948
1.1586174
1.1586188
1.1586179
1.1585809
1.1586163
1.1586187
1.1586179
1.158376
1.1586075
1.1586184
1.1586179
1.1532724
1.1584851
1.1586152
1.1586177
1.1487721
1.1582675
1.1586072
1.1586174
1.1449478
1.1579738
1.158593
1.1586165
1.1418413
1.1576237
1.1585713
1.1586149
1.139461
1.1572364
1.1585418
1.1586123
1.137784
1.1568299
1.1585042
1.1586085
1.1367575
1.15642
1.1584589
1.1586032
1.1363058
1.1560201
1.1584065
1.1585961
1.1363382
1.15564
1.1583475
1.1585872
1.1367572
1.1552861
1.158283
1.1585763
1.1374634
1.1549606
1.1582136
1.1585634
1.1383605
1.1546612
1.1581396
1.1585486
1.1394085
1.1543589
1.1580445
1.15853
1.1405434
1.1540304
1.1579121
1.1585018
1.1417083
1.1536389
1.157718
1.1584567
1.1428583
1.1531209
1.1574226
1.1583817
1.1439158
1.1523959
1.1569919
1.1582658
)
;
    }
    maxZ
    {
        type            calculated;
        value           nonuniform List<scalar> 
120
(
1.1586206
1.1586201
1.1586191
1.158618
1.1586199
1.1586201
1.1586191
1.158618
1.1586191
1.15862
1.158619
1.158618
1.1586181
1.1586199
1.158619
1.158618
1.1586167
1.1586198
1.158619
1.158618
1.1586149
1.1586196
1.158619
1.158618
1.1586125
1.1586193
1.158619
1.158618
1.1586094
1.158619
1.158619
1.158618
1.1586055
1.1586186
1.1586189
1.1586179
1.1586007
1.1586181
1.1586189
1.1586179
1.1585948
1.1586174
1.1586188
1.1586179
1.1585809
1.1586163
1.1586187
1.1586179
1.158376
1.1586075
1.1586184
1.1586179
1.1532724
1.1584851
1.1586152
1.1586177
1.1487722
1.1582675
1.1586072
1.1586174
1.1449478
1.1579738
1.158593
1.1586165
1.1418413
1.1576237
1.1585713
1.1586149
1.139461
1.1572364
1.1585418
1.1586123
1.137784
1.1568299
1.1585042
1.1586085
1.1367575
1.15642
1.1584589
1.1586032
1.1363057
1.1560201
1.1584065
1.1585961
1.1363382
1.15564
1.1583475
1.1585872
1.1367571
1.1552861
1.158283
1.1585763
1.1374634
1.1549606
1.1582136
1.1585634
1.1383604
1.1546612
1.1581396
1.1585486
1.1394084
1.1543589
1.1580445
1.15853
1.1405434
1.1540303
1.1579121
1.1585018
1.1417083
1.1536389
1.157718
1.1584567
1.1428583
1.1531208
1.1574226
1.1583817
1.1439158
1.1523959
1.1569919
1.1582658
)
;
    }
    topAir_to_rightSolid
    {
        type            calculated;
        value           nonuniform List<scalar> 
130
(
1.0937516
1.101809
1.1100549
1.1180112
1.1253325
1.1318075
1.1373377
1.1419078
1.1455564
1.1483504
1.1503641
1.1516649
1.1523024
1.0855829
1.0954211
1.1052692
1.114543
1.1228827
1.1301108
1.1361798
1.1411257
1.1450305
1.1479946
1.1501171
1.151482
1.1521492
1.069402
1.0832221
1.0964435
1.1083369
1.1186059
1.1272063
1.1342279
1.1398226
1.1441618
1.1474107
1.1497136
1.1511842
1.1519002
1.0460169
1.067036
1.0855396
1.1010867
1.1138179
1.1240565
1.1321602
1.1384653
1.1432675
1.1468144
1.1493035
1.1508824
1.1516482
1.0198563
1.0522327
1.0768206
1.0957864
1.1105203
1.1219713
1.1308262
1.1376039
1.1427055
1.1464415
1.1490476
1.1506939
1.1514906
1.0198563
1.0522327
1.0768206
1.0957865
1.1105203
1.1219713
1.1308261
1.1376039
1.1427055
1.1464415
1.1490476
1.1506939
1.1514906
1.0460169
1.067036
1.0855396
1.1010867
1.1138178
1.1240565
1.1321601
1.1384653
1.1432675
1.1468143
1.1493035
1.1508824
1.1516482
1.0694019
1.0832221
1.0964435
1.1083369
1.1186059
1.1272063
1.1342279
1.1398226
1.1441617
1.1474107
1.1497136
1.1511842
1.1519002
1.0855828
1.095421
1.1052691
1.114543
1.1228826
1.1301107
1.1361797
1.1411257
1.1450304
1.1479946
1.1501171
1.151482
1.1521492
1.0937514
1.1018089
1.1100548
1.1180111
1.1253324
1.1318075
1.1373376
1.1419077
1.1455564
1.1483503
1.1503641
1.1516648
1.1523024
)
;
    }
    topAir_to_heater
    {
        type            calculated;
        value           nonuniform List<scalar> 
40
(
1.0740553
1.0762248
1.0804506
1.0864528
1.061401
1.0640166
1.0691616
1.0765525
1.0356083
1.0390318
1.0459742
1.0563508
0.99613017
1.0003196
1.0094399
1.0245799
0.94353792
0.9472537
0.95665761
0.97622204
0.94353788
0.94725365
0.95665757
0.97622201
0.99613013
1.0003195
1.0094399
1.0245799
1.0356083
1.0390318
1.0459742
1.0563507
1.0614011
1.0640166
1.0691615
1.0765525
1.0740555
1.0762249
1.0804505
1.0864526
)
;
    }
    topAir_to_leftSolid
    {
        type            calculated;
        value           nonuniform List<scalar> 
130
(
1.1586075
1.1586058
1.1586022
1.1585965
1.1585886
1.1585781
1.1585647
1.1585485
1.1585297
1.1585092
1.1584884
1.1584699
1.1584568
1.1586069
1.158605
1.1586011
1.1585949
1.158586
1.1585739
1.1585583
1.1585388
1.1585152
1.1584881
1.158459
1.1584311
1.1584098
1.1586059
1.1586037
1.1585993
1.158592
1.1585815
1.1585669
1.1585473
1.1585215
1.1584886
1.1584477
1.1583995
1.1583469
1.1582992
1.1586049
1.1586025
1.1585974
1.1585891
1.1585769
1.1585594
1.1585351
1.1585018
1.1584568
1.1583965
1.1583172
1.1582163
1.1581011
1.1586042
1.1586016
1.1585962
1.1585873
1.1585738
1.1585544
1.1585269
1.1584881
1.1584334
1.1583558
1.1582442
1.1580803
1.1578439
1.1586042
1.1586016
1.1585962
1.1585873
1.1585738
1.1585544
1.1585269
1.1584881
1.1584334
1.1583558
1.1582442
1.1580803
1.1578439
1.1586049
1.1586025
1.1585974
1.1585891
1.1585769
1.1585594
1.1585351
1.1585018
1.1584568
1.1583965
1.1583172
1.1582163
1.1581011
1.1586059
1.1586037
1.1585993
1.158592
1.1585815
1.1585669
1.1585473
1.1585215
1.1584886
1.1584477
1.1583995
1.1583469
1.1582992
1.1586069
1.158605
1.1586011
1.1585949
1.158586
1.1585739
1.1585583
1.1585388
1.1585152
1.1584881
1.158459
1.1584311
1.1584098
1.1586075
1.1586058
1.1586022
1.1585965
1.1585886
1.1585781
1.1585647
1.1585485
1.1585297
1.1585092
1.1584884
1.1584699
1.1584568
)
;
    }
}


// ************************************************************************* //
