/*--------------------------------*- C++ -*----------------------------------*\
| =========                 |                                                 |
| \\      /  F ield         | OpenFOAM: The Open Source CFD Toolbox           |
|  \\    /   O peration     | Version:  2412                                  |
|   \\  /    A nd           | Website:  www.openfoam.com                      |
|    \\/     M anipulation  |                                                 |
\*---------------------------------------------------------------------------*/
FoamFile
{
    version     2.0;
    format      ascii;
    arch        "LSB;label=32;scalar=64";
    class       volScalarField;
    location    "70/topAir";
    object      T;
}
// * * * * * * * * * * * * * * * * * * * * * * * * * * * * * * * * * * * * * //

dimensions      [0 0 0 1 0 0 0];

internalField   nonuniform List<scalar> 
1200
(
300.00015
300.00032
300.00053
300.0008
300.00115
300.00162
300.00223
300.00303
300.00405
300.00529
300.00683
300.01042
300.06348
301.39137
302.57205
303.58269
304.40862
305.04452
305.49412
305.76998
305.89155
305.88281
305.77008
305.58022
305.33942
305.05858
304.75502
304.44406
304.13772
303.85656
300
300.00001
300.00003
300.00005
300.00009
300.00014
300.0002
300.00028
300.00039
300.00052
300.00068
300.00097
300.00327
300.03494
300.09132
300.16744
300.25822
300.3587
300.46425
300.57073
300.67472
300.77362
300.86575
300.95053
301.02856
301.1074
301.19313
301.29532
301.43069
301.6203
300
300
300
300.00001
300.00001
300.00001
300.00002
300.00002
300.00003
300.00004
300.00006
300.00008
300.00017
300.00099
300.00305
300.00675
300.01235
300.02
300.02972
300.04145
300.05504
300.07031
300.08703
300.10501
300.12419
300.14882
300.18316
300.23348
300.31009
300.4219
300
300
300
300
300.00001
300.00001
300.00001
300.00001
300.00001
300.00001
300.00001
300.00002
300.00002
300.00006
300.00016
300.00038
300.00079
300.00146
300.00245
300.00383
300.00565
300.00797
300.01078
300.01411
300.01797
300.02278
300.03007
300.04176
300.06117
300.09119
300.00016
300.00034
300.00055
300.00082
300.00118
300.00166
300.0023
300.00314
300.00421
300.00555
300.00721
300.0105
300.05571
301.35647
302.52442
303.53047
304.35392
304.98572
305.42995
305.70181
305.8235
305.82066
305.71978
305.54682
305.32637
305.08123
304.83306
304.60178
304.36734
304.14539
300
300.00002
300.00003
300.00005
300.00009
300.00013
300.00019
300.00027
300.00038
300.0005
300.00066
300.00091
300.00263
300.02895
300.07609
300.13987
300.21599
300.30017
300.38844
300.47733
300.56398
300.64624
300.72277
300.79292
300.85684
300.91582
300.97246
301.02978
301.12122
301.27457
300
300
300
300
300.00001
300.00001
300.00001
300.00002
300.00003
300.00004
300.00005
300.00007
300.00013
300.00071
300.00217
300.0048
300.00877
300.01418
300.02103
300.02929
300.03884
300.04956
300.0613
300.07394
300.08748
300.10206
300.11815
300.13896
300.17597
300.23652
300
300
300
300
300
300.00001
300.00001
300.00001
300.00001
300.00001
300.00001
300.00002
300.00002
300.00004
300.0001
300.00023
300.00047
300.00086
300.00144
300.00224
300.0033
300.00466
300.00635
300.00841
300.0109
300.01394
300.01781
300.0236
300.03394
300.05095
300.00017
300.00036
300.00059
300.0009
300.0013
300.00186
300.00261
300.00362
300.00497
300.00672
300.009
300.01344
300.06998
301.7172
303.18521
304.4353
305.43571
306.17058
306.65331
306.91486
306.99302
306.92629
306.75104
306.50037
306.20414
305.88946
305.58124
305.29848
305.01875
304.76007
300.00001
300.00002
300.00003
300.00006
300.0001
300.00015
300.00021
300.00031
300.00042
300.00058
300.00077
300.00107
300.00318
300.03582
300.09389
300.17195
300.26448
300.36625
300.47248
300.5792
300.68327
300.78239
300.87509
300.96104
301.04112
301.11784
301.19583
301.28171
301.41712
301.63507
300
300
300
300
300.00001
300.00001
300.00002
300.00002
300.00003
300.00004
300.00005
300.00008
300.00015
300.00085
300.0026
300.00573
300.01043
300.01682
300.02494
300.03477
300.04629
300.05952
300.07455
300.09167
300.11145
300.13505
300.16474
300.20865
300.28366
300.40251
300
300
300
300
300
300.00001
300.00001
300.00001
300.00001
300.00001
300.00001
300.00002
300.00002
300.00004
300.00011
300.00026
300.00054
300.00098
300.00163
300.00256
300.00382
300.00549
300.00772
300.0107
300.01488
300.02108
300.03093
300.04868
300.08087
300.1327
300.00018
300.00039
300.00064
300.00097
300.00143
300.00207
300.00295
300.00418
300.00588
300.00819
300.0114
300.01791
300.09614
302.35259
304.36689
306.08457
307.43402
308.35811
308.90845
309.15896
309.17943
309.02895
308.75567
308.39833
307.98804
307.55006
307.10527
306.67125
306.2611
305.89575
300.00001
300.00002
300.00004
300.00007
300.00011
300.00016
300.00024
300.00035
300.00049
300.00068
300.00092
300.00132
300.00422
300.04912
300.12935
300.23869
300.37965
300.54647
300.73157
300.92746
301.12644
301.32299
301.51385
301.69797
301.87688
302.05514
302.24118
302.44908
302.70256
303.03271
300
300
300
300.00001
300.00001
300.00001
300.00002
300.00002
300.00003
300.00005
300.00006
300.00009
300.00019
300.00115
300.00358
300.00797
300.0149
300.02489
300.03845
300.05614
300.07938
300.10947
300.14801
300.19744
300.26132
300.34564
300.45966
300.61769
300.84109
301.14753
300
300
300
300
300
300.00001
300.00001
300.00001
300.00001
300.00001
300.00001
300.00002
300.00002
300.00005
300.00015
300.00036
300.00076
300.00143
300.0025
300.00415
300.00668
300.01054
300.01645
300.02563
300.04076
300.06572
300.10692
300.17452
300.28321
300.44241
300.00019
300.0004
300.00067
300.00102
300.00151
300.00221
300.00318
300.00457
300.00652
300.0093
300.01336
300.0223
300.13115
303.26714
306.08154
308.49466
310.36842
311.41238
311.90671
312.02651
311.88788
311.57163
311.13592
310.62358
310.06651
309.48877
308.9087
308.34063
307.79599
307.2961
300.00001
300.00002
300.00004
300.00007
300.00011
300.00017
300.00026
300.00037
300.00053
300.00074
300.00103
300.00153
300.00553
300.06831
300.1936
300.40284
300.70405
301.07694
301.5004
301.95395
302.41908
302.88009
303.32436
303.74232
304.12738
304.47589
304.7871
305.06324
305.30871
305.52772
300
300
300
300.00001
300.00001
300.00001
300.00002
300.00003
300.00004
300.00005
300.00007
300.0001
300.00023
300.00157
300.00523
300.01275
300.0284
300.057
300.10328
300.17193
300.26728
300.39299
300.552
300.74669
300.97927
301.25253
301.57092
301.94207
302.37771
302.8783
300
300
300
300
300
300.00001
300.00001
300.00001
300.00001
300.00001
300.00001
300.00002
300.00002
300.00007
300.00021
300.00055
300.0013
300.00281
300.00588
300.01184
300.02249
300.04028
300.06852
300.11147
300.17474
300.26577
300.39484
300.57662
300.83166
301.17197
300.00019
300.0004
300.00067
300.00102
300.00151
300.00221
300.00318
300.00457
300.00652
300.0093
300.01336
300.0223
300.13115
303.26714
306.08154
308.49466
310.36842
311.41238
311.90671
312.02651
311.88788
311.57162
311.13592
310.62358
310.06651
309.48877
308.90871
308.34064
307.79599
307.29611
300.00001
300.00002
300.00004
300.00007
300.00011
300.00017
300.00026
300.00037
300.00053
300.00074
300.00103
300.00153
300.00553
300.06831
300.1936
300.40284
300.70405
301.07694
301.5004
301.95395
302.41908
302.88009
303.32436
303.74232
304.12738
304.47589
304.7871
305.06324
305.30872
305.52772
300
300
300
300.00001
300.00001
300.00001
300.00002
300.00003
300.00004
300.00005
300.00007
300.0001
300.00023
300.00157
300.00523
300.01275
300.0284
300.057
300.10328
300.17193
300.26728
300.39299
300.552
300.74669
300.97927
301.25253
301.57092
301.94207
302.37771
302.8783
300
300
300
300
300
300.00001
300.00001
300.00001
300.00001
300.00001
300.00001
300.00002
300.00002
300.00007
300.00021
300.00055
300.0013
300.00281
300.00588
300.01184
300.02249
300.04028
300.06852
300.11147
300.17474
300.26577
300.39484
300.57662
300.83166
301.17197
300.00018
300.00039
300.00064
300.00097
300.00143
300.00207
300.00295
300.00418
300.00588
300.00819
300.0114
300.01791
300.09614
302.35259
304.3669
306.08457
307.43402
308.35811
308.90845
309.15896
309.17943
309.02895
308.75567
308.39832
307.98804
307.55006
307.10527
306.67125
306.2611
305.89575
300.00001
300.00002
300.00004
300.00007
300.00011
300.00016
300.00024
300.00035
300.00049
300.00068
300.00092
300.00132
300.00422
300.04912
300.12935
300.23869
300.37965
300.54647
300.73157
300.92746
301.12644
301.32299
301.51385
301.69797
301.87688
302.05514
302.24118
302.44908
302.70257
303.03271
300
300
300
300.00001
300.00001
300.00001
300.00002
300.00002
300.00003
300.00005
300.00006
300.00009
300.00019
300.00115
300.00358
300.00797
300.0149
300.02489
300.03845
300.05614
300.07938
300.10947
300.14801
300.19744
300.26132
300.34564
300.45966
300.61769
300.84109
301.14753
300
300
300
300
300
300.00001
300.00001
300.00001
300.00001
300.00001
300.00001
300.00002
300.00002
300.00005
300.00015
300.00036
300.00076
300.00143
300.0025
300.00415
300.00668
300.01054
300.01645
300.02563
300.04076
300.06572
300.10692
300.17452
300.28321
300.44241
300.00017
300.00036
300.00059
300.0009
300.0013
300.00186
300.00261
300.00362
300.00497
300.00672
300.009
300.01344
300.06998
301.7172
303.18521
304.4353
305.43571
306.17058
306.65331
306.91486
306.99303
306.92629
306.75104
306.50037
306.20414
305.88946
305.58125
305.29848
305.01875
304.76008
300.00001
300.00002
300.00003
300.00006
300.0001
300.00015
300.00021
300.00031
300.00042
300.00058
300.00077
300.00107
300.00318
300.03582
300.09389
300.17195
300.26448
300.36625
300.47248
300.5792
300.68327
300.78239
300.87509
300.96104
301.04112
301.11784
301.19583
301.28171
301.41712
301.63507
300
300
300
300
300.00001
300.00001
300.00002
300.00002
300.00003
300.00004
300.00005
300.00008
300.00015
300.00085
300.0026
300.00573
300.01043
300.01682
300.02494
300.03477
300.04629
300.05952
300.07455
300.09167
300.11145
300.13505
300.16474
300.20865
300.28366
300.40251
300
300
300
300
300
300.00001
300.00001
300.00001
300.00001
300.00001
300.00001
300.00002
300.00002
300.00004
300.00011
300.00026
300.00054
300.00098
300.00163
300.00256
300.00382
300.00549
300.00772
300.0107
300.01488
300.02108
300.03093
300.04868
300.08087
300.1327
300.00016
300.00034
300.00055
300.00082
300.00118
300.00166
300.0023
300.00314
300.00421
300.00555
300.00721
300.0105
300.05571
301.35647
302.52442
303.53047
304.35393
304.98572
305.42995
305.70181
305.82351
305.82067
305.71978
305.54683
305.32637
305.08124
304.83306
304.60179
304.36735
304.14539
300
300.00002
300.00003
300.00005
300.00009
300.00013
300.00019
300.00027
300.00038
300.0005
300.00066
300.00091
300.00263
300.02895
300.07609
300.13987
300.21599
300.30017
300.38844
300.47733
300.56398
300.64624
300.72277
300.79292
300.85684
300.91582
300.97246
301.02978
301.12122
301.27458
300
300
300
300
300.00001
300.00001
300.00001
300.00002
300.00003
300.00004
300.00005
300.00007
300.00013
300.00071
300.00217
300.0048
300.00877
300.01418
300.02103
300.02929
300.03884
300.04956
300.0613
300.07394
300.08748
300.10206
300.11815
300.13896
300.17597
300.23652
300
300
300
300
300
300.00001
300.00001
300.00001
300.00001
300.00001
300.00001
300.00002
300.00002
300.00004
300.0001
300.00023
300.00047
300.00086
300.00144
300.00224
300.0033
300.00466
300.00635
300.00841
300.0109
300.01394
300.01781
300.0236
300.03394
300.05095
300.00015
300.00032
300.00053
300.0008
300.00115
300.00162
300.00223
300.00303
300.00405
300.00529
300.00683
300.01042
300.06348
301.39136
302.57204
303.58269
304.40862
305.04453
305.49413
305.76999
305.89156
305.88282
305.77009
305.58023
305.33943
305.05859
304.75503
304.44407
304.13773
303.85657
300
300.00001
300.00003
300.00005
300.00009
300.00014
300.0002
300.00028
300.00039
300.00052
300.00068
300.00097
300.00327
300.03494
300.09132
300.16744
300.25822
300.3587
300.46425
300.57073
300.67472
300.77362
300.86575
300.95053
301.02856
301.1074
301.19313
301.29532
301.43069
301.62031
300
300
300
300.00001
300.00001
300.00001
300.00002
300.00002
300.00003
300.00004
300.00006
300.00008
300.00017
300.00099
300.00305
300.00675
300.01235
300.02
300.02972
300.04145
300.05504
300.07031
300.08703
300.10501
300.12419
300.14882
300.18316
300.23349
300.31009
300.4219
300
300
300
300
300.00001
300.00001
300.00001
300.00001
300.00001
300.00001
300.00001
300.00002
300.00002
300.00006
300.00016
300.00038
300.00079
300.00146
300.00245
300.00383
300.00565
300.00797
300.01078
300.01411
300.01797
300.02278
300.03007
300.04176
300.06117
300.09119
)
;

boundaryField
{
    maxY
    {
        type            zeroGradient;
    }
    minX
    {
        type            fixedValue;
        value           uniform 300;
    }
    maxX
    {
        type            inletOutlet;
        inletValue      uniform 300;
        value           nonuniform List<scalar> 
40
(
303.85378
301.6189
300.4214
300.09107
304.14281
301.27379
300.23635
300.05091
304.75755
301.63427
300.40229
300.13263
305.89312
303.03154
301.14704
300.44219
307.2934
305.52591
302.87725
301.17146
307.2934
305.52591
302.87725
301.17147
305.89313
303.03154
301.14704
300.44219
304.75756
301.63427
300.40229
300.13263
304.14281
301.27379
300.23635
300.05091
303.85379
301.6189
300.4214
300.09107
)
;
    }
    minZ
    {
        type            zeroGradient;
    }
    maxZ
    {
        type            zeroGradient;
    }
    topAir_to_rightSolid
    {
        type            compressible::turbulentTemperatureRadCoupledMixed;
        refValue        nonuniform List<scalar> 
130
(
317.79701
315.47212
313.12785
310.89876
308.87544
307.10784
305.61415
304.39072
303.421
302.68264
302.15272
301.81143
301.64448
320.18908
317.31238
314.48411
311.86651
309.54954
307.5691
305.92571
304.59941
303.56041
302.77645
302.21758
301.85931
301.6845
325.03491
320.88658
317.01591
313.61297
310.73308
308.36153
306.45204
304.94747
303.79071
302.93034
302.32346
301.93721
301.74954
332.30299
325.75497
320.20051
315.67794
312.06859
309.22524
307.01131
305.31058
304.02787
303.08742
302.43091
302.01601
301.81523
340.82854
330.33827
322.79305
317.20446
312.99471
309.79938
307.37288
305.54117
304.17681
303.18543
302.49775
302.06501
301.85609
340.82852
330.33825
322.79304
317.20446
312.99471
309.79938
307.37289
305.54117
304.17681
303.18543
302.49776
302.06501
301.8561
332.30297
325.75495
320.20051
315.67794
312.0686
309.22525
307.01132
305.31058
304.02788
303.08742
302.43091
302.01602
301.81524
325.03492
320.88659
317.01593
313.61298
310.73309
308.36155
306.45206
304.94747
303.79072
302.93034
302.32346
301.93722
301.74954
320.1891
317.3124
314.48413
311.86653
309.54956
307.56912
305.92573
304.59942
303.56042
302.77645
302.21759
301.85931
301.68451
317.79705
315.47215
313.12788
310.89879
308.87546
307.10786
305.61417
304.39073
303.42101
302.68265
302.15273
301.81144
301.64448
)
;
        refGradient     uniform 0;
        valueFraction   uniform 0.99967867;
        source          uniform 0;
        logInterval     -1;
        writePrecision  8;
        updateHeader    1;
        writeToFile     0;
        useUserTime     1;
        kappaMethod     fluidThermo;
        value           nonuniform List<scalar> 
130
(
317.79291
315.46891
313.12548
310.89715
308.87448
307.10741
305.61414
304.39103
303.42152
302.6833
302.15345
301.81218
301.64519
320.18419
317.30856
314.48129
311.86457
309.54834
307.56851
305.92559
304.59964
303.5609
302.77711
302.21835
301.86011
301.68529
325.02885
320.88201
317.01267
313.61084
310.73185
308.36102
306.45205
304.94787
303.79138
302.93119
302.32441
301.9382
301.7505
332.2953
325.74955
320.19696
315.67585
312.06762
309.22509
307.01175
305.31144
304.029
303.08871
302.43227
302.01738
301.81654
340.81909
330.33234
322.78959
317.20276
312.99425
309.79981
307.37392
305.54262
304.17852
303.18727
302.49963
302.06685
301.85784
340.81907
330.33233
322.78958
317.20275
312.99425
309.79981
307.37393
305.54262
304.17852
303.18727
302.49963
302.06685
301.85785
332.29528
325.74953
320.19696
315.67585
312.06762
309.2251
307.01177
305.31144
304.02901
303.08871
302.43227
302.01738
301.81655
325.02885
320.88202
317.01268
313.61086
310.73187
308.36103
306.45207
304.94788
303.79139
302.93119
302.32442
301.93821
301.75051
320.18422
317.30858
314.48131
311.86459
309.54836
307.56852
305.92561
304.59965
303.56091
302.77711
302.21835
301.86012
301.6853
317.79295
315.46894
313.12551
310.89718
308.8745
307.10743
305.61416
304.39104
303.42153
302.68331
302.15346
301.81219
301.64519
)
;
    }
    topAir_to_heater
    {
        type            compressible::turbulentTemperatureRadCoupledMixed;
        refValue        nonuniform List<scalar> 
40
(
323.62782
322.97484
321.71095
319.93283
327.48735
326.68169
325.10886
322.87592
335.646
334.53929
332.3178
329.05217
348.95179
347.48931
344.34828
339.25804
368.40729
366.96085
363.35189
356.06738
368.4073
366.96087
363.35191
356.06739
348.95181
347.48932
344.34829
339.25804
335.646
334.5393
332.31781
329.05218
327.48734
326.68169
325.10888
322.87595
323.62777
322.97483
321.71098
319.93289
)
;
        refGradient     uniform 0;
        valueFraction   uniform 0.99967867;
        source          uniform 0;
        logInterval     -1;
        writePrecision  8;
        updateHeader    1;
        writeToFile     0;
        useUserTime     1;
        kappaMethod     fluidThermo;
        value           nonuniform List<scalar> 
40
(
323.62067
322.96828
321.70512
319.92785
327.47895
326.67393
325.10193
322.86997
335.6351
334.52922
332.30884
329.04458
348.93682
347.47545
344.33599
339.24781
368.38636
366.94129
363.33426
356.05269
368.38637
366.9413
363.33428
356.0527
348.93683
347.47546
344.336
339.24781
335.6351
334.52922
332.30885
329.04459
327.47894
326.67393
325.10195
322.87
323.62062
322.96828
321.70515
319.9279
)
;
    }
    topAir_to_leftSolid
    {
        type            compressible::turbulentTemperatureRadCoupledMixed;
        refValue        nonuniform List<scalar> 
130
(
300.00367
300.00412
300.00505
300.00651
300.00857
300.0113
300.01476
300.01895
300.02382
300.02914
300.03451
300.0393
300.04269
300.00383
300.00432
300.00534
300.00695
300.00925
300.01237
300.01641
300.02147
300.02758
300.03461
300.04215
300.04938
300.05486
300.00409
300.00465
300.00581
300.00768
300.0104
300.01418
300.01927
300.02595
300.03448
300.04505
300.05755
300.07117
300.08351
300.00436
300.00498
300.0063
300.00844
300.01161
300.01613
300.02242
300.03104
300.04271
300.05833
300.07887
300.10503
300.13486
300.00453
300.00519
300.0066
300.00892
300.01239
300.01742
300.02455
300.0346
300.04878
300.06889
300.0978
300.14027
300.20154
300.00453
300.00519
300.0066
300.00892
300.01239
300.01742
300.02455
300.0346
300.04878
300.06889
300.0978
300.14027
300.20154
300.00436
300.00498
300.0063
300.00844
300.01161
300.01613
300.02242
300.03104
300.04271
300.05833
300.07887
300.10503
300.13486
300.00409
300.00465
300.00581
300.00768
300.0104
300.01418
300.01927
300.02595
300.03448
300.04505
300.05755
300.07117
300.08351
300.00383
300.00432
300.00534
300.00695
300.00925
300.01237
300.01641
300.02147
300.02758
300.03461
300.04215
300.04938
300.05486
300.00367
300.00412
300.00505
300.00651
300.00857
300.0113
300.01476
300.01895
300.02382
300.02914
300.03451
300.0393
300.04269
)
;
        refGradient     uniform 0;
        valueFraction   uniform 0.99967867;
        source          uniform 0;
        logInterval     -1;
        writePrecision  8;
        updateHeader    1;
        writeToFile     0;
        useUserTime     1;
        kappaMethod     fluidThermo;
        value           nonuniform List<scalar> 
130
(
300.00366
300.00412
300.00505
300.00651
300.00857
300.0113
300.01475
300.01895
300.02381
300.02913
300.0345
300.03929
300.04269
300.00383
300.00432
300.00534
300.00695
300.00925
300.01236
300.0164
300.02147
300.02757
300.0346
300.04213
300.04936
300.05486
300.00409
300.00465
300.00581
300.00768
300.0104
300.01418
300.01927
300.02594
300.03447
300.04504
300.05753
300.07115
300.0835
300.00436
300.00498
300.0063
300.00843
300.01161
300.01613
300.02242
300.03103
300.0427
300.05831
300.07885
300.105
300.13485
300.00452
300.00519
300.0066
300.00892
300.01239
300.01741
300.02454
300.0346
300.04877
300.06887
300.09777
300.14023
300.20152
300.00452
300.00519
300.0066
300.00892
300.01239
300.01741
300.02454
300.0346
300.04877
300.06887
300.09777
300.14023
300.20152
300.00436
300.00498
300.0063
300.00843
300.01161
300.01613
300.02242
300.03103
300.0427
300.05831
300.07885
300.105
300.13485
300.00409
300.00465
300.00581
300.00768
300.0104
300.01418
300.01927
300.02594
300.03447
300.04504
300.05753
300.07115
300.0835
300.00383
300.00432
300.00534
300.00695
300.00925
300.01236
300.0164
300.02147
300.02757
300.0346
300.04213
300.04936
300.05486
300.00366
300.00412
300.00505
300.00651
300.00857
300.0113
300.01475
300.01895
300.02381
300.02913
300.0345
300.03929
300.04269
)
;
    }
}


// ************************************************************************* //
