/*--------------------------------*- C++ -*----------------------------------*\
| =========                 |                                                 |
| \\      /  F ield         | OpenFOAM: The Open Source CFD Toolbox           |
|  \\    /   O peration     | Version:  2412                                  |
|   \\  /    A nd           | Website:  www.openfoam.com                      |
|    \\/     M anipulation  |                                                 |
\*---------------------------------------------------------------------------*/
FoamFile
{
    version     2.0;
    format      ascii;
    arch        "LSB;label=32;scalar=64";
    class       volVectorField;
    location    "70/topAir";
    object      U;
}
// * * * * * * * * * * * * * * * * * * * * * * * * * * * * * * * * * * * * * //

dimensions      [0 1 -1 0 0 0 0];

internalField   nonuniform List<vector> 
1200
(
(0.097235207 0.00096862221 0.00080437527)
(0.096236123 0.0013029432 0.001205983)
(0.094386487 0.0013374687 0.0013611204)
(0.091908791 0.0013063419 0.0014244716)
(0.089374266 0.0012559234 0.00144604)
(0.08697754 0.0011874361 0.0014354951)
(0.084712082 0.0011055905 0.0013999513)
(0.082558077 0.0010152747 0.0013479138)
(0.080524562 0.0009159893 0.0012862124)
(0.078638574 0.00079918544 0.0012194675)
(0.076945342 0.0006404705 0.0011511246)
(0.075524471 0.00037778357 0.0010845506)
(0.074603918 -8.1279299e-05 0.0010268472)
(0.074171606 -0.00021220279 0.00098679241)
(0.073912941 -0.00025145249 0.00097540049)
(0.0735758 -0.00025771537 0.00098711894)
(0.073080352 -0.00024637774 0.0010116587)
(0.072420734 -0.00023015797 0.0010405992)
(0.0716062 -0.00021888513 0.0010672501)
(0.070651357 -0.00021624748 0.0010861661)
(0.069576439 -0.0002201534 0.0010928072)
(0.068402832 -0.00022339787 0.0010827759)
(0.067146757 -0.00021402231 0.0010505546)
(0.065814109 -0.00017630818 0.00098753643)
(0.06436732 -9.5492356e-05 0.00087823089)
(0.062814912 8.3330408e-05 0.00070893111)
(0.061047849 0.00044306306 0.00047282027)
(0.058812964 0.0011572336 0.00019150865)
(0.055515462 0.0026256892 -0.00016857681)
(0.046424893 0.0061037834 -0.0005776077)
(0.099370601 0.00097986137 0.00083021927)
(0.10013412 0.0013337297 0.001259619)
(0.10060723 0.0014036121 0.0014428688)
(0.10061376 0.0014124896 0.0015352584)
(0.10044222 0.0013976279 0.0015848033)
(0.10024605 0.0013583119 0.0016012656)
(0.1000354 0.0012977812 0.0015921365)
(0.09979561 0.0012175909 0.001565692)
(0.099529801 0.001112153 0.0015281755)
(0.099249152 0.00096658922 0.0014833535)
(0.098954734 0.00075193687 0.0014334129)
(0.098623451 0.00041483333 0.0013803474)
(0.09817379 -0.00010002774 0.0013237526)
(0.097626724 -0.00030417924 0.001267484)
(0.097145638 -0.00039249519 0.0012135118)
(0.096752145 -0.00043242162 0.0011612461)
(0.096425246 -0.0004447278 0.0011097074)
(0.096152248 -0.00044356315 0.0010581485)
(0.095925285 -0.00043963795 0.0010057357)
(0.095735652 -0.00043633391 0.00095105123)
(0.095574507 -0.00042896686 0.00089159706)
(0.095433993 -0.00040396298 0.00082448776)
(0.09530661 -0.00033808044 0.00074550691)
(0.095181293 -0.00019107716 0.00065301592)
(0.095062925 9.6900863e-05 0.00054868022)
(0.094868309 0.00060217374 0.00042519144)
(0.094521437 0.0014719454 0.00028010293)
(0.093989009 0.0029736727 0.00011030447)
(0.093343716 0.0055883091 -4.2928056e-05)
(0.092004598 0.01003687 -6.9404731e-05)
(0.099370336 -0.00098204295 0.00083022462)
(0.10013286 -0.0013386889 0.00125963)
(0.10060379 -0.0014128921 0.0014428858)
(0.10060623 -0.0014289948 0.0015352762)
(0.10042729 -0.0014264248 0.0015848063)
(0.100218 -0.0014080862 0.0016012137)
(0.09998442 -0.0013832581 0.0015919422)
(0.099705258 -0.0013634806 0.0015651829)
(0.099373401 -0.001359475 0.0015270484)
(0.098986363 -0.0013824567 0.0014811512)
(0.098533231 -0.0014434704 0.0014294639)
(0.097992211 -0.0015440785 0.0013732634)
(0.097339411 -0.0016572702 0.0013137243)
(0.096587006 -0.0016956247 0.0012507067)
(0.095801536 -0.0016761281 0.0011853048)
(0.095040183 -0.0016310959 0.0011189309)
(0.094324906 -0.0015747028 0.0010524614)
(0.093665615 -0.0015126262 0.00098599611)
(0.093071437 -0.0014483292 0.00091849503)
(0.09255154 -0.0013811121 0.00084856631)
(0.092117387 -0.0013033327 0.00077013398)
(0.091785888 -0.0011987759 0.0006797363)
(0.091582686 -0.0010492027 0.00057499303)
(0.091550555 -0.00081800007 0.00044991535)
(0.091778582 -0.00043795653 0.00029422068)
(0.092332253 0.0001904864 0.00012986351)
(0.093246829 0.0012171798 -2.6350151e-05)
(0.094703122 0.002846359 -0.00015877161)
(0.097047557 0.0053347291 -0.00022703777)
(0.10219811 0.0087368201 -0.00021235311)
(0.097234601 -0.00096942891 0.00080437705)
(0.096233444 -0.0013047567 0.0012059802)
(0.094379684 -0.0013408291 0.0013611081)
(0.091894711 -0.0013122468 0.0014244343)
(0.089347659 -0.0012661193 0.0014459384)
(0.086929537 -0.0012049466 0.0014352391)
(0.084627676 -0.0011356232 0.0013993456)
(0.082411859 -0.0010668392 0.0013465552)
(0.080273394 -0.0010049566 0.0012832922)
(0.078208452 -0.00095456865 0.0012133867)
(0.076206051 -0.00091897622 0.0011388686)
(0.074248952 -0.00089816861 0.0010606607)
(0.072322326 -0.0008850375 0.00097894482)
(0.070429718 -0.0008623511 0.00089352932)
(0.068605928 -0.00082318858 0.0008051878)
(0.066896086 -0.00077608613 0.00071549078)
(0.065326559 -0.00072739581 0.0006262335)
(0.063907544 -0.00067934579 0.0005386904)
(0.062646739 -0.00063319462 0.00044910338)
(0.061555815 -0.0005882146 0.00035537583)
(0.060652247 -0.00053950116 0.00024851213)
(0.059986349 -0.00047799253 0.00011187981)
(0.059582541 -0.00040036563 -5.1181754e-05)
(0.059502005 -0.00029764266 -0.000241017)
(0.059831212 -0.00014461032 -0.00046305241)
(0.060728782 0.00013530472 -0.00071070508)
(0.062509354 0.00061801564 -0.00094415921)
(0.065416424 0.001375056 -0.0011002983)
(0.069845128 0.0024505315 -0.0011126467)
(0.079048328 0.0038978505 -0.0010897116)
(0.098510079 0.00099242175 0.0010636616)
(0.098437057 0.0013469489 0.0016307528)
(0.097924708 0.0013983561 0.0018721414)
(0.09698496 0.0013832227 0.0019876304)
(0.095966032 0.0013467165 0.0020451391)
(0.095004229 0.0012901034 0.0020579988)
(0.094097496 0.0012186487 0.0020355724)
(0.093229528 0.0011376872 0.0019892921)
(0.092405396 0.0010472387 0.0019283613)
(0.091646905 0.00093977509 0.0018590898)
(0.090992655 0.00079373199 0.0017868962)
(0.090516756 0.00055559331 0.0017184466)
(0.090396751 0.00013179221 0.0016661421)
(0.090706916 -4.4335534e-05 0.0016794865)
(0.091170868 -0.00017561619 0.0017954083)
(0.091544086 -0.00030397354 0.0020013846)
(0.091749292 -0.00043204948 0.0022676854)
(0.091782382 -0.00056355901 0.0025645364)
(0.091654311 -0.00070159902 0.0028661345)
(0.091381453 -0.00084487497 0.0031517437)
(0.090985138 -0.00098828895 0.0034049395)
(0.090486821 -0.0011225327 0.0036114311)
(0.089901868 -0.0012351229 0.0037563081)
(0.089230399 -0.0013050968 0.0038205143)
(0.088446943 -0.0013019446 0.0037767501)
(0.087487164 -0.0011760625 0.0035981276)
(0.086231763 -0.00085740681 0.0032618081)
(0.084376355 -0.00024166054 0.0027644868)
(0.081715123 0.001020914 0.0020458241)
(0.074523172 0.0041091232 0.0010241991)
(0.10070387 0.00099960877 0.0010956589)
(0.10245187 0.0013598117 0.0016847634)
(0.10433095 0.0014294496 0.0019455658)
(0.10595818 0.001437623 0.0020836063)
(0.1074079 0.0014228672 0.002166566)
(0.10877975 0.0013847182 0.0022072502)
(0.11008906 0.0013266568 0.0022145982)
(0.1113256 0.0012506645 0.0021991864)
(0.11249036 0.0011519555 0.0021689751)
(0.11359214 0.0010171423 0.0021283288)
(0.11463308 0.00082020944 0.0020788067)
(0.11559284 0.00051403999 0.0020194048)
(0.11643567 4.1082339e-05 0.0019439657)
(0.11715863 -0.00019584003 0.0018416393)
(0.117897 -0.00037054819 0.0017180094)
(0.1186713 -0.00053491086 0.0015813213)
(0.11946724 -0.00069807893 0.0014380546)
(0.12027673 -0.00086635909 0.0012945885)
(0.12109436 -0.0010449717 0.0011543621)
(0.12191278 -0.0012329135 0.0010173555)
(0.12272508 -0.0014264753 0.00088011622)
(0.1235261 -0.0016115981 0.00073561858)
(0.12431789 -0.0017648226 0.00057446211)
(0.12510359 -0.0018521305 0.00038463903)
(0.12588856 -0.0018225394 0.00015459876)
(0.12668261 -0.001586642 -0.000137613)
(0.12748859 -0.001007962 -0.00051194058)
(0.12839041 0.00012226887 -0.00099026048)
(0.12935844 0.0022035357 -0.001530178)
(0.13111704 0.0059561653 -0.0019737489)
(0.10070361 -0.0010018125 0.0010956531)
(0.10245062 -0.0013648136 0.001684755)
(0.10432758 -0.0014387593 0.001945551)
(0.10595083 -0.0014540607 0.0020835664)
(0.10739345 -0.0014513064 0.0021664531)
(0.10875283 -0.0014334331 0.0022069543)
(0.11004058 -0.0014095491 0.0022138851)
(0.11124046 -0.0013908672 0.0021975902)
(0.11234434 -0.0013875523 0.002165631)
(0.11334894 -0.0014099203 0.0021217843)
(0.11424548 -0.0014680018 0.0020669807)
(0.11501686 -0.001564198 0.0019999913)
(0.11564669 -0.0016736972 0.0019177403)
(0.11614865 -0.0017288542 0.0018149887)
(0.11658045 -0.0017459977 0.0016886364)
(0.11699173 -0.0017521315 0.0015400404)
(0.11740136 -0.0017581898 0.0013716462)
(0.11781745 -0.0017680904 0.0011857563)
(0.11824707 -0.0017872111 0.00098266992)
(0.11869369 -0.0018154968 0.00075920942)
(0.11917374 -0.0018507233 0.00050969603)
(0.11970298 -0.00188806 0.00022542018)
(0.12030286 -0.0019063846 -0.00010301175)
(0.12100994 -0.0018751803 -0.00048879603)
(0.12184575 -0.0017434261 -0.00094445702)
(0.12291317 -0.0014301095 -0.001467102)
(0.12436861 -0.00080000342 -0.0020591484)
(0.12640254 0.00034998269 -0.0027157092)
(0.12933206 0.0022184994 -0.0033879093)
(0.13565049 0.0047621292 -0.0039497059)
(0.098509478 -0.00099323606 0.001063642)
(0.098434409 -0.0013487776 0.0016307154)
(0.097918027 -0.0014017296 0.0018720709)
(0.096971233 -0.0013891141 0.0019874769)
(0.095940293 -0.0013568148 0.0020447839)
(0.09495816 -0.0013073053 0.0020571775)
(0.094017158 -0.0012478998 0.0020337205)
(0.093091569 -0.001187472 0.0019852427)
(0.092170598 -0.0011323766 0.0019197601)
(0.091248925 -0.0010871016 0.0018412623)
(0.090317448 -0.0010548254 0.0017507048)
(0.089363344 -0.0010358703 0.0016467856)
(0.088377313 -0.0010244894 0.00152627)
(0.08736721 -0.0010079416 0.0013846168)
(0.086367958 -0.00098093259 0.0012182181)
(0.085422795 -0.00095078305 0.0010264965)
(0.084558357 -0.00092227674 0.00081138941)
(0.083781896 -0.00089627814 0.00057435396)
(0.083107009 -0.0008763153 0.00031554937)
(0.082544704 -0.00086217043 2.8735596e-05)
(0.082101471 -0.0008504308 -0.000296801)
(0.081761277 -0.0008432839 -0.00067474014)
(0.081561073 -0.0008304925 -0.0011131991)
(0.08154189 -0.00079470052 -0.0016238621)
(0.081778423 -0.00070708934 -0.0022235738)
(0.082400642 -0.00053166736 -0.0029234801)
(0.083602254 -0.0002020172 -0.0037061904)
(0.085762802 0.00036984853 -0.0045318676)
(0.089510166 0.0012166455 -0.0053455618)
(0.097943142 0.0022938154 -0.0060749094)
(0.098382272 0.00098748303 0.00041122565)
(0.09808604 0.0013361273 0.00070809911)
(0.09748415 0.0013812844 0.00088346257)
(0.096599281 0.0013614629 0.00099103565)
(0.09570717 0.0013217651 0.0010624502)
(0.094905851 0.0012628314 0.0011063293)
(0.094185938 0.0011896586 0.0011265061)
(0.093528337 0.0011073434 0.0011283092)
(0.092933014 0.0010152832 0.0011174615)
(0.092417887 0.00090432468 0.0010996449)
(0.092022513 0.00074867046 0.001082646)
(0.091824667 0.00048501881 0.001081015)
(0.092074138 1.3041067e-05 0.0011140649)
(0.09281558 -0.00013070179 0.0012840082)
(0.093708329 -0.0002089276 0.0016453973)
(0.094454058 -0.00027984517 0.0021717098)
(0.094965272 -0.00035369113 0.0028140783)
(0.095245359 -0.00044026745 0.0035151832)
(0.095318962 -0.00054756911 0.0042265554)
(0.095216479 -0.00067745571 0.0049141811)
(0.094968777 -0.0008257889 0.0055538398)
(0.094599823 -0.00098288239 0.006125826)
(0.094117619 -0.0011304148 0.0066105341)
(0.09350733 -0.0012426887 0.0069840865)
(0.09272096 -0.0012796874 0.0072152326)
(0.091664693 -0.0011819658 0.0072616318)
(0.090182624 -0.00086791308 0.0070601271)
(0.087976392 -0.00021522563 0.0064933759)
(0.084837964 0.0011413489 0.0053038448)
(0.07664228 0.0044792398 0.0034094166)
(0.10057325 0.00099907074 0.00042350297)
(0.10209859 0.001359442 0.00073480844)
(0.10389128 0.0014262948 0.00092582054)
(0.10557619 0.0014310507 0.0010514311)
(0.10715419 0.0014131852 0.0011429944)
(0.10868793 0.0013720437 0.0012086868)
(0.1101863 0.0013108748 0.0012519124)
(0.1116367 0.0012313663 0.0012771304)
(0.1130349 0.0011280195 0.0012883815)
(0.11438356 0.00098578545 0.0012877546)
(0.11567799 0.00077508324 0.001274213)
(0.11689087 0.00044171667 0.0012404274)
(0.11795096 -7.5109831e-05 0.001172559)
(0.11888441 -0.00027463631 0.0010289161)
(0.11985585 -0.00038375033 0.00082656404)
(0.12088651 -0.00047389632 0.00058798181)
(0.12195772 -0.00056467209 0.00033169874)
(0.12305477 -0.00067074298 7.7180787e-05)
(0.12416257 -0.00080415968 -0.00016155215)
(0.12526447 -0.00097038381 -0.00037897852)
(0.12634358 -0.0011626007 -0.00057813537)
(0.12738534 -0.0013682041 -0.00076687285)
(0.1283728 -0.0015614779 -0.00095823827)
(0.1292916 -0.0016991676 -0.0011764293)
(0.13013076 -0.0017121284 -0.001455189)
(0.13087731 -0.0014923803 -0.0018418339)
(0.13152433 -0.00088032504 -0.0023965823)
(0.1321143 0.00037763461 -0.0031981443)
(0.13260979 0.0027629273 -0.0042910204)
(0.13343775 0.0070987318 -0.0056652216)
(0.10057298 -0.0010013178 0.00042347947)
(0.10209731 -0.0013645516 0.00073475255)
(0.10388779 -0.001435824 0.00092570509)
(0.1055686 -0.0014479176 0.0010511943)
(0.10713921 -0.001442457 0.001142508)
(0.10865994 -0.0014223691 0.0012076934)
(0.11013572 -0.0013968739 0.0012499087)
(0.11154755 -0.0013775401 0.0012731681)
(0.11288154 -0.0013750204 0.0012807708)
(0.11412774 -0.0014001153 0.0012737975)
(0.11527116 -0.001462904 0.0012506513)
(0.11628907 -0.0015639966 0.0012065216)
(0.1171576 -0.0016750428 0.0011333278)
(0.11789008 -0.0017117276 0.0010147067)
(0.11855435 -0.0016964916 0.00084280747)
(0.11920643 -0.0016655096 0.00061944604)
(0.11986546 -0.0016360898 0.00034775873)
(0.1205347 -0.0016188104 3.2736908e-05)
(0.12121355 -0.0016180661 -0.0003229419)
(0.12190399 -0.0016378573 -0.00072104307)
(0.12259851 -0.0016762789 -0.0011592834)
(0.12329694 -0.0017234983 -0.0016458614)
(0.12401205 -0.0017594477 -0.0021954525)
(0.12477119 -0.0017459857 -0.002830719)
(0.1256258 -0.0016212996 -0.0035784328)
(0.12666269 -0.0012821866 -0.0044828247)
(0.12804597 -0.00055298027 -0.0055947092)
(0.12988398 0.00082027848 -0.0069531368)
(0.1326139 0.0031190641 -0.0085511894)
(0.13871083 0.0063590697 -0.010258711)
(0.098381651 -0.00098831466 0.00041116397)
(0.098083294 -0.0013379972 0.00070794873)
(0.097477205 -0.0013847406 0.00088315183)
(0.096584972 -0.0013675148 0.00099041233)
(0.095680247 -0.0013321758 0.001061206)
(0.094857446 -0.0012806445 0.001103846)
(0.094101044 -0.0012201165 0.0011215503)
(0.09338152 -0.001159544 0.0011184324)
(0.092680968 -0.0011053526 0.0010978153)
(0.091986119 -0.0010620259 0.0010605975)
(0.091280737 -0.0010325808 0.0010049011)
(0.090545581 -0.0010167914 0.00092595233)
(0.089765534 -0.0010080468 0.00081604195)
(0.088945284 -0.00098962991 0.00066500944)
(0.088121198 -0.00095537222 0.00046490207)
(0.087339677 -0.00091518609 0.00021207911)
(0.086626001 -0.00087582643 -9.0603189e-05)
(0.085991039 -0.00084093585 -0.00043944387)
(0.085429469 -0.00080850964 -0.0008291162)
(0.084934097 -0.00077887325 -0.0012650024)
(0.084506942 -0.00075516217 -0.0017547652)
(0.084157204 -0.00073247551 -0.0023082866)
(0.083905996 -0.00070103551 -0.0029470146)
(0.08379165 -0.00064260517 -0.0036938631)
(0.083895171 -0.00052752816 -0.0045874101)
(0.084372059 -0.00030238322 -0.0056853917)
(0.085449171 0.0001368253 -0.0070612631)
(0.087728833 0.00090867417 -0.0087657557)
(0.091807637 0.0020809487 -0.010759755)
(0.10136635 0.0036447446 -0.012769994)
(0.098358278 0.0009898539 0.00022325098)
(0.097987379 0.0013417142 0.00042082626)
(0.09729836 0.0013892158 0.00056781649)
(0.096346851 0.0013707903 0.00066858534)
(0.095410812 0.0013317925 0.00073602797)
(0.094580463 0.0012728057 0.00077888018)
(0.09384347 0.0011986979 0.00080213346)
(0.093181219 0.0011143362 0.000810092)
(0.092594563 0.0010183802 0.0008073083)
(0.092103912 0.00089938398 0.00079902339)
(0.091756813 0.00072485831 0.00079323116)
(0.09164161 0.00041561822 0.00080568796)
(0.092137746 -0.00013668038 0.00085757031)
(0.093230552 -0.00020178677 0.0010930353)
(0.09445446 -0.00012619157 0.0015877239)
(0.095427653 1.0272571e-05 0.0023193638)
(0.096065122 0.00017726774 0.0032196495)
(0.096369953 0.0003439867 0.0042039183)
(0.096385886 0.00049328187 0.0052065421)
(0.096161135 0.00061631656 0.0061921766)
(0.09573231 0.00070881467 0.0071411539)
(0.095120671 0.00077633417 0.0080360137)
(0.094328291 0.00083263168 0.0088543862)
(0.093333212 0.00089960038 0.0095640951)
(0.092080362 0.0010123944 0.010115757)
(0.090465109 0.0012262739 0.010430307)
(0.088306919 0.0016331021 0.010374756)
(0.085289669 0.0024085215 0.0097165104)
(0.080807473 0.0039366286 0.0081100792)
(0.069145566 0.0075111884 0.0053409728)
(0.1005496 0.00099929377 0.00023023107)
(0.10200066 0.0013609738 0.00043682195)
(0.10370689 0.0014286715 0.00059398277)
(0.10532593 0.0014335234 0.00070657878)
(0.10685988 0.0014152097 0.00078757044)
(0.10836325 0.0013729983 0.00084538843)
(0.10984174 0.0013098339 0.00088454681)
(0.1112825 0.0012268452 0.00090851591)
(0.11268025 0.0011173613 0.00092016782)
(0.11403473 0.00096374772 0.00092079809)
(0.11533497 0.00073078814 0.00090801189)
(0.11654468 0.00035302318 0.00087064869)
(0.11753473 -0.00023236284 0.00078662106)
(0.11837797 -0.00033558402 0.00058727797)
(0.11930012 -0.00025806073 0.00029409859)
(0.12031916 -9.3082977e-05 -5.3933092e-05)
(0.12138206 0.00012468649 -0.00041684053)
(0.12247158 0.00035945603 -0.00075549671)
(0.12356061 0.00058834875 -0.00105073)
(0.12461738 0.00079978663 -0.0012963297)
(0.12561283 0.0009943112 -0.0014950527)
(0.1265215 0.001182706 -0.0016567932)
(0.12730841 0.0013882935 -0.0018001242)
(0.12792511 0.0016496237 -0.0019514497)
(0.12829943 0.0020359786 -0.0021502623)
(0.1283209 0.0026596736 -0.0024548813)
(0.12783179 0.0037091536 -0.0029502294)
(0.12664208 0.0055095866 -0.0037655855)
(0.12471702 0.0086466467 -0.0051404444)
(0.12019815 0.014086409 -0.0073909585)
(0.10054932 -0.0010015927 0.00023020846)
(0.10199932 -0.0013662114 0.00043676666)
(0.10370326 -0.0014384719 0.00059386676)
(0.10531798 -0.0014509451 0.00070634055)
(0.10684414 -0.0014456016 0.00078708387)
(0.10833367 -0.0014255652 0.00084440261)
(0.10978796 -0.0014002812 0.00088257401)
(0.11118712 -0.0013817633 0.00090464159)
(0.11251525 -0.0013813624 0.00091278195)
(0.11375868 -0.0014106541 0.00090744192)
(0.11489707 -0.0014797202 0.00088630569)
(0.11590159 -0.0015858977 0.00084292389)
(0.11673722 -0.0016938347 0.0007655854)
(0.11742166 -0.0016809259 0.00062867192)
(0.11804612 -0.0015810973 0.00041817269)
(0.11867808 -0.001443156 0.00013579434)
(0.11934341 -0.0012853688 -0.00021127395)
(0.12005107 -0.0011234367 -0.00062088893)
(0.12079663 -0.00096813174 -0.0010926651)
(0.12157578 -0.00082344119 -0.0016238367)
(0.12238331 -0.00068090633 -0.002217034)
(0.12321086 -0.00052416143 -0.0028769889)
(0.12405507 -0.00032084028 -0.0036158499)
(0.12492058 -1.1294971e-05 -0.0044542179)
(0.12574979 0.00049108541 -0.0054243388)
(0.12655142 0.0013190417 -0.0065724671)
(0.12736584 0.0026808832 -0.0079545603)
(0.12830766 0.0048930525 -0.0096420034)
(0.12975744 0.0084086081 -0.011732661)
(0.13296059 0.013558552 -0.014238664)
(0.09835763 -0.00099070573 0.00022319372)
(0.09798451 -0.0013436327 0.00042068387)
(0.097291078 -0.0013927732 0.00056751796)
(0.096331781 -0.0013770471 0.00066798225)
(0.09538229 -0.0013426154 0.000734821)
(0.094528808 -0.00129145 0.00077646935)
(0.09375208 -0.0012308392 0.00079731872)
(0.093021506 -0.0011699812 0.0008004705)
(0.092316921 -0.0011156297 0.00078804734)
(0.091621078 -0.001072551 0.00076029727)
(0.090912654 -0.0010437429 0.00071472344)
(0.090166752 -0.0010281102 0.00064527272)
(0.089362854 -0.0010171286 0.00054162401)
(0.088505064 -0.00098486372 0.00038908001)
(0.087634053 -0.00092337743 0.00017562405)
(0.086804718 -0.00084729049 -9.7485095e-05)
(0.086051566 -0.00076164068 -0.00042637811)
(0.085378481 -0.00067080914 -0.00080359148)
(0.084777029 -0.00057697635 -0.0012285032)
(0.084239723 -0.00048166238 -0.0017125208)
(0.08376636 -0.00038696397 -0.002275995)
(0.08336733 -0.00028628652 -0.0029433805)
(0.083071608 -0.00015990852 -0.0037464525)
(0.082927287 3.5306828e-05 -0.0047271262)
(0.083131748 0.00034968287 -0.0059397766)
(0.083856089 0.00086133028 -0.0074550808)
(0.085382594 0.0016903308 -0.0093587195)
(0.088143167 0.0030113874 -0.011701246)
(0.092845786 0.0050340095 -0.014419336)
(0.1038123 0.0079555992 -0.017083885)
(0.098345669 0.00098988702 6.6340678e-05)
(0.097937759 0.0013417358 0.00012465486)
(0.09720125 0.0013886474 0.00016635093)
(0.096209533 0.0013691579 0.00019182925)
(0.09524612 0.0013289016 0.00020563097)
(0.094398071 0.0012685213 0.00021165754)
(0.093649678 0.0011927955 0.00021221091)
(0.092981251 0.0011063366 0.00020890148)
(0.09239413 0.0010070788 0.00020328748)
(0.091911342 0.00088135932 0.00019727476)
(0.091588329 0.00068995197 0.00019412781)
(0.09152537 0.00033704315 0.0002009432)
(0.092251034 -0.00029315364 0.00022788861)
(0.093688163 -0.00018292918 0.000356401)
(0.095302153 0.00019799954 0.00063246866)
(0.09662468 0.0007497512 0.0010513399)
(0.097477329 0.0014368699 0.0015786784)
(0.097859937 0.0021285806 0.0021701154)
(0.097861481 0.0027950151 0.0027919259)
(0.097571367 0.0034273202 0.003428743)
(0.097038063 0.0040237854 0.0040735806)
(0.096274707 0.0045886511 0.0047184015)
(0.095265703 0.0051313171 0.005349897)
(0.093961799 0.005667092 0.0059464265)
(0.092264611 0.0062210012 0.0064728035)
(0.089998129 0.006836001 0.0068712825)
(0.086859779 0.0075911912 0.0070454775)
(0.08233687 0.0086425336 0.0068316313)
(0.075583839 0.010255222 0.0059669399)
(0.058342167 0.013364142 0.00424569)
(0.10053703 0.00099930299 6.8384474e-05)
(0.10195114 0.0013614287 0.00012935449)
(0.10361026 0.0014292762 0.00017406198)
(0.10518983 0.0014338001 0.00020309521)
(0.1066968 0.0014147837 0.00022102294)
(0.10818215 0.001371492 0.00023160189)
(0.10964805 0.001306689 0.00023691111)
(0.11107994 0.001221065 0.00023820229)
(0.11247114 0.0011069798 0.00023629649)
(0.11381823 0.00094457407 0.00023124375)
(0.11510219 0.00069351882 0.00022114038)
(0.11627109 0.00027772002 0.00019913823)
(0.11712441 -0.00036378053 0.0001513865)
(0.11778305 -0.00025946106 3.6318071e-05)
(0.11852599 0.00019296958 -0.00013519217)
(0.11933999 0.00088544897 -0.00033093872)
(0.12017781 0.0017812909 -0.00051874107)
(0.12099983 0.0027519985 -0.00067094727)
(0.12174246 0.0037620658 -0.00077512058)
(0.12235429 0.0048054066 -0.0008263076)
(0.12279032 0.0058854232 -0.00082179604)
(0.12300317 0.0070118436 -0.00076441282)
(0.12293617 0.0082014982 -0.00066189686)
(0.12251394 0.009481411 -0.00052733351)
(0.12162719 0.010897046 -0.00038321243)
(0.12010935 0.012527913 -0.00026688874)
(0.11770227 0.014518265 -0.00024154651)
(0.11400594 0.017135336 -0.00042246787)
(0.10851935 0.020871722 -0.0010457114)
(0.094835124 0.026542674 -0.0025243607)
(0.10053674 -0.0010016404 6.8374787e-05)
(0.10194977 -0.0013667598 0.00012933083)
(0.10360653 -0.0014392726 0.00017401247)
(0.10518164 -0.0014516199 0.00020299358)
(0.10668052 -0.001445976 0.00022081593)
(0.10815145 -0.0014256602 0.00023118342)
(0.10959199 -0.0014003256 0.00023607483)
(0.1109801 -0.0013823022 0.00023656169)
(0.11229787 -0.0013834097 0.00023317631)
(0.11352832 -0.0014156313 0.000225655)
(0.11464577 -0.00148836 0.00021237537)
(0.11561359 -0.0015939794 0.00018948337)
(0.11638052 -0.0016851936 0.0001498494)
(0.11696664 -0.0015831504 7.7831901e-05)
(0.1174985 -0.0013236465 -3.6473119e-05)
(0.11807941 -0.00095516512 -0.00019219224)
(0.11874713 -0.000485165 -0.00038337312)
(0.11951502 7.8690691e-05 -0.00061241537)
(0.12031668 0.00074220001 -0.00088034446)
(0.12111678 0.0015092296 -0.0011827055)
(0.12189642 0.0023863705 -0.0015172674)
(0.12262824 0.0033882116 -0.0018821284)
(0.12327638 0.0045404167 -0.0022771709)
(0.12379345 0.0058842964 -0.0027040022)
(0.12411592 0.0074856505 -0.003173023)
(0.12416054 0.0094540578 -0.0037029671)
(0.12382246 0.01197782 -0.0043274826)
(0.12297787 0.015384619 -0.0051068556)
(0.12163451 0.020247829 -0.0061600677)
(0.11729557 0.027331341 -0.0076512137)
(0.098345003 -0.00099075369 6.6316555e-05)
(0.097934804 -0.0013436893 0.00012459507)
(0.097193735 -0.0013922773 0.00016622523)
(0.096193932 -0.0013755607 0.00019157468)
(0.095216472 -0.0013400178 0.00020512055)
(0.094344105 -0.0012877586 0.00021063554)
(0.093553597 -0.0012261483 0.0002101628)
(0.09281202 -0.0011645032 0.0002047847)
(0.092097038 -0.0011097362 0.00019497249)
(0.091388164 -0.0010666947 0.00018033645)
(0.090659262 -0.0010380797 0.00015916181)
(0.089878761 -0.0010214602 0.00012782798)
(0.089017841 -0.0010050712 8.0149783e-05)
(0.088077818 -0.0009497457 6.97195e-06)
(0.087118737 -0.00084154035 -9.9637065e-05)
(0.086209818 -0.00069043378 -0.00023562873)
(0.085384837 -0.00050760132 -0.00040109822)
(0.084653977 -0.00028294196 -0.00059320774)
(0.084108539 -1.4330022e-06 -0.00081065772)
(0.083780603 0.00033572595 -0.0010642378)
(0.083672837 0.00072664212 -0.0013706615)
(0.083796219 0.0011800258 -0.0017480072)
(0.084162192 0.0017172839 -0.0022184897)
(0.084784198 0.0023749158 -0.0028136171)
(0.085689096 0.0032086865 -0.0035654163)
(0.086939154 0.0043070074 -0.0045084985)
(0.088671681 0.0058152969 -0.0056796009)
(0.091182627 0.0079776475 -0.0071054904)
(0.095278308 0.011202472 -0.0087733362)
(0.10468436 0.016127913 -0.010451616)
(0.098345669 0.00098988699 -6.6340056e-05)
(0.097937759 0.0013417358 -0.00012465447)
(0.09720125 0.0013886473 -0.00016635058)
(0.096209533 0.0013691579 -0.00019182899)
(0.09524612 0.0013289016 -0.00020563077)
(0.094398071 0.0012685213 -0.00021165727)
(0.093649678 0.0011927955 -0.0002122106)
(0.092981251 0.0011063365 -0.0002089011)
(0.09239413 0.0010070789 -0.00020328735)
(0.091911341 0.0008813593 -0.0001972746)
(0.091588329 0.0006899521 -0.00019412804)
(0.09152537 0.0003370431 -0.0002009435)
(0.092251034 -0.00029315397 -0.00022788862)
(0.093688163 -0.00018292902 -0.00035640111)
(0.095302154 0.00019799925 -0.0006324684)
(0.096624681 0.00074975179 -0.0010513398)
(0.09747733 0.0014368705 -0.0015786774)
(0.097859937 0.0021285816 -0.0021701145)
(0.09786148 0.0027950165 -0.0027919243)
(0.097571367 0.0034273225 -0.0034287423)
(0.097038063 0.0040237873 -0.0040735782)
(0.096274707 0.0045886538 -0.0047183995)
(0.095265703 0.0051313171 -0.0053498929)
(0.093961801 0.0056670955 -0.0059464232)
(0.092264616 0.0062210032 -0.0064727949)
(0.089998132 0.0068360035 -0.0068712716)
(0.086859783 0.0075911942 -0.007045464)
(0.082336873 0.0086425371 -0.0068316151)
(0.07558384 0.010255226 -0.0059669215)
(0.058342161 0.013364147 -0.004245671)
(0.10053703 0.00099930293 -6.8383848e-05)
(0.10195114 0.0013614287 -0.00012935408)
(0.10361026 0.0014292762 -0.00017406165)
(0.10518983 0.0014338 -0.00020309501)
(0.1066968 0.0014147837 -0.00022102279)
(0.10818215 0.001371492 -0.00023160182)
(0.10964805 0.001306689 -0.00023691095)
(0.11107994 0.001221065 -0.00023820208)
(0.11247114 0.0011069799 -0.00023629635)
(0.11381823 0.00094457405 -0.00023124361)
(0.11510219 0.00069351889 -0.00022114013)
(0.11627109 0.00027771997 -0.00019913749)
(0.11712441 -0.00036378093 -0.00015138534)
(0.11778305 -0.00025946141 -3.6316273e-05)
(0.11852599 0.00019296903 0.00013519351)
(0.11933999 0.00088544895 0.00033094013)
(0.12017781 0.0017812912 0.00051874238)
(0.12099983 0.0027519994 0.00067094881)
(0.12174246 0.003762067 0.00077512228)
(0.12235429 0.0048054087 0.00082630977)
(0.12279032 0.0058854259 0.00082179834)
(0.12300317 0.0070118463 0.0007644178)
(0.12293617 0.008201499 0.00066190333)
(0.12251394 0.0094814147 0.00052734153)
(0.12162719 0.01089705 0.00038322154)
(0.12010935 0.012527918 0.00026689953)
(0.11770227 0.01451827 0.00024155976)
(0.11400594 0.017135341 0.00042248368)
(0.10851934 0.020871727 0.0010457298)
(0.094835113 0.026542682 0.0025243791)
(0.10053674 -0.0010016404 -6.8374268e-05)
(0.10194977 -0.0013667598 -0.00012933056)
(0.10360653 -0.0014392726 -0.00017401219)
(0.10518164 -0.0014516199 -0.00020299345)
(0.10668052 -0.001445976 -0.00022081582)
(0.10815145 -0.0014256602 -0.00023118329)
(0.10959199 -0.0014003256 -0.00023607467)
(0.1109801 -0.0013823024 -0.00023656136)
(0.11229787 -0.0013834096 -0.00023317615)
(0.11352832 -0.0014156315 -0.0002256547)
(0.11464577 -0.00148836 -0.00021237516)
(0.11561359 -0.0015939796 -0.00018948267)
(0.11638052 -0.0016851936 -0.00014984819)
(0.11696664 -0.0015831508 -7.7830547e-05)
(0.1174985 -0.0013236465 3.6474258e-05)
(0.11807941 -0.00095516526 0.00019219315)
(0.11874713 -0.00048516484 0.00038337411)
(0.11951502 7.8691012e-05 0.0006124167)
(0.12031668 0.00074220038 0.000880346)
(0.12111678 0.0015092304 0.001182707)
(0.12189642 0.0023863722 0.0015172705)
(0.12262824 0.0033882125 0.0018821333)
(0.12327639 0.0045404178 0.0022771778)
(0.12379345 0.0058842984 0.0027040108)
(0.12411592 0.0074856529 0.0031730301)
(0.12416054 0.0094540611 0.0037029759)
(0.12382246 0.011977825 0.0043274928)
(0.12297787 0.015384624 0.0051068691)
(0.12163451 0.020247835 0.0061600828)
(0.11729556 0.027331349 0.0076512293)
(0.098345003 -0.00099075368 -6.6316028e-05)
(0.097934804 -0.0013436893 -0.00012459478)
(0.097193735 -0.0013922773 -0.00016622498)
(0.096193932 -0.0013755608 -0.00019157453)
(0.095216472 -0.0013400178 -0.00020512038)
(0.094344105 -0.0012877586 -0.00021063539)
(0.093553597 -0.0012261483 -0.00021016248)
(0.09281202 -0.0011645032 -0.00020478453)
(0.092097038 -0.001109736 -0.00019497217)
(0.091388164 -0.0010666949 -0.00018033636)
(0.090659262 -0.0010380797 -0.00015916169)
(0.089878761 -0.0010214604 -0.00012782784)
(0.089017841 -0.0010050713 -8.0149511e-05)
(0.088077818 -0.0009497456 -6.9717588e-06)
(0.087118737 -0.00084154032 9.9637111e-05)
(0.086209818 -0.00069043355 0.0002356286)
(0.085384836 -0.00050760142 0.00040109781)
(0.084653977 -0.00028294192 0.00059320708)
(0.084108539 -1.4330595e-06 0.00081065626)
(0.083780603 0.0003357261 0.0010642358)
(0.083672837 0.00072664225 0.001370659)