/*--------------------------------*- C++ -*----------------------------------*\
| =========                 |                                                 |
| \\      /  F ield         | OpenFOAM: The Open Source CFD Toolbox           |
|  \\    /   O peration     | Version:  2412                                  |
|   \\  /    A nd           | Website:  www.openfoam.com                      |
|    \\/     M anipulation  |                                                 |
\*---------------------------------------------------------------------------*/
FoamFile
{
    version     2.0;
    format      ascii;
    arch        "LSB;label=32;scalar=64";
    class       volScalarField;
    location    "0/dbc_cu_bot";
    object      faceWeight;
}
// * * * * * * * * * * * * * * * * * * * * * * * * * * * * * * * * * * * * * //

dimensions      [0 0 0 0 0 0 0];

internalField   nonuniform List<scalar> 
146032
(
0.334089
0.334048
0.334054
0.334067
0.334046
0.334057
0.334054
0.334073
0.33405
0.334078
0.334057
0.334057
0.334058
0.33406
0.334062
0.334077
0.334048
0.334054
0.334053
0.334138
0.334051
0.333825
0.333824
0.333824
0.333824
0.333824
0.333824
0.333824
0.333824
0.333824
0.333824
0.333824
0.333824
0.333824
0.333824
0.333824
0.333824
0.333824
0.333828
0.33394
0.334047
0.333824
0.333824
0.333824
0.333824
0.333824
0.333824
0.333824
0.333824
0.333824
0.333824
0.333824
0.333824
0.333824
0.333824
0.333824
0.333824
0.333824
0.333827
0.334124
0.334048
0.333824
0.333824
0.333824
0.333824
0.333824
0.333824
0.333824
0.333824
0.333824
0.333824
0.333824
0.333824
0.333824
0.333824
0.333824
0.333824
0.333824
0.333829
0.333946
0.334053
0.333824
0.333824
0.333824
0.333824
0.333824
0.333824
0.333824
0.333824
0.333824
0.333824
0.333824
0.333824
0.333824
0.333824
0.333824
0.333824
0.333824
0.333831
0.333938
0.334056
0.333824
0.333824
0.333824
0.333824
0.333824
0.333824
0.333824
0.333824
0.333824
0.333824
0.333824
0.333824
0.333824
0.333824
0.333824
0.333824
0.333824
0.333829
0.333945
0.334057
0.333824
0.333824
0.333824
0.333824
0.333824
0.333824
0.333824
0.333824
0.333824
0.333824
0.333824
0.333824
0.333824
0.333824
0.333824
0.333824
0.333824
0.333829
0.33394
0.334054
0.333824
0.333824
0.333824
0.333824
0.333824
0.333824
0.333824
0.333824
0.333824
0.333824
0.333824
0.333824
0.333824
0.333824
0.333824
0.333824
0.333824
0.333827
0.333971
0.33405
0.333824
0.333824
0.333824
0.333824
0.333824
0.333824
0.333824
0.333824
0.333824
0.333824
0.333824
0.333824
0.333824
0.333824
0.333824
0.333824
0.333824
0.33383
0.333938
0.33405
0.333824
0.333824
0.333824
0.333824
0.333824
0.333824
0.333824
0.333824
0.333824
0.333824
0.333824
0.333824
0.333824
0.333824
0.333824
0.333824
0.333824
0.33383
0.33411
0.334068
0.333824
0.333824
0.333824
0.333824
0.333824
0.333824
0.333824
0.333824
0.333824
0.333824
0.333824
0.333824
0.333824
0.333824
0.333824
0.333824
0.333824
0.333828
0.333939
0.334057
0.333824
0.333824
0.333824
0.333824
0.333824
0.333824
0.333824
0.333824
0.333824
0.333824
0.333824
0.333824
0.333824
0.333824
0.333824
0.333824
0.333824
0.333827
0.333961
0.334074
0.333824
0.333824
0.333824
0.333824
0.333824
0.333824
0.333824
0.333824
0.333824
0.333824
0.333824
0.333824
0.333824
0.333824
0.333824
0.333824
0.333824
0.333827
0.333962
0.334053
0.333824
0.333824
0.333824
0.333824
0.333824
0.333824
0.333824
0.333824
0.333824
0.333824
0.333824
0.333824
0.333824
0.333824
0.333824
0.333824
0.333824
0.333828
0.33394
0.334053
0.333824
0.333824
0.333824
0.333824
0.333824
0.333824
0.333824
0.333824
0.333824
0.333824
0.333824
0.333824
0.333824
0.333824
0.333824
0.333824
0.333824
0.333828
0.33394
0.334055
0.333824
0.333824
0.333824
0.333824
0.333824
0.333824
0.333824
0.333824
0.333824
0.333824
0.333824
0.333824
0.333824
0.333824
0.333824
0.333824
0.333824
0.33383
0.333968
0.334049
0.333824
0.333824
0.333824
0.333824
0.333824
0.333824
0.333824
0.333824
0.333824
0.333824
0.333824
0.333824
0.333824
0.333824
0.333824
0.333824
0.333824
0.33383
0.333937
0.33408
0.333824
0.333824
0.333824
0.333824
0.333824
0.333824
0.333824
0.333824
0.333824
0.333824
0.333824
0.333824
0.333824
0.333824
0.333824
0.333824
0.333824
0.333827
0.334132
0.33405
0.333828
0.333827
0.333828
0.33383
0.333827
0.333828
0.33383
0.333827
0.333831
0.333827
0.333827
0.333831
0.33383
0.33383
0.333827
0.333829
0.333827
0.333836
0.33414
0.334145
0.333961
0.333963
0.333944
0.333935
0.333978
0.33394
0.333938
0.333942
0.33397
0.334121
0.333937
0.33397
0.33396
0.333943
0.333982
0.333942
0.334129
0.333941
0.33374
0.499945
0.499959
0.499958
0.499956
0.499955
0.499963
0.499957
0.499959
0.499955
0.499955
0.499953
0.499956
0.499956
0.499955
0.499958
0.499955
0.49996
0.499962
0.499961
0.499932
0.499959
0.5
0.5
0.5
0.5
0.5
0.5
0.5
0.5
0.5
0.5
0.5
0.5
0.5
0.5
0.5
0.5
0.5
0.499999
0.499928
0.499958
0.5
0.5
0.5
0.5
0.5
0.5
0.5
0.5
0.5
0.5
0.5
0.5
0.5
0.5
0.5
0.5
0.5
0.5
0.499978
0.499957
0.5
0.5
0.5
0.5
0.5
0.5
0.5
0.5
0.5
0.5
0.5
0.5
0.5
0.5
0.5
0.5
0.5
0.5
0.499978
0.499961
0.5
0.5
0.5
0.5
0.5
0.5
0.5
0.5
0.5
0.5
0.5
0.5
0.5
0.5
0.5
0.5
0.5
0.5
0.499981
0.499956
0.5
0.5
0.5
0.5
0.5
0.5
0.5
0.5
0.5
0.5
0.5
0.5
0.5
0.5
0.5
0.5
0.5
0.5
0.499978
0.499958
0.5
0.5
0.5
0.5
0.5
0.5
0.5
0.5
0.5
0.5
0.5
0.5
0.5
0.5
0.5
0.5
0.5
0.5
0.49998
0.499961
0.5
0.5
0.5
0.5
0.5
0.5
0.5
0.5
0.5
0.5
0.5
0.5
0.5
0.5
0.5
0.5
0.5
0.5
0.499928
0.49996
0.5
0.5
0.5
0.5
0.5
0.5
0.5
0.5
0.5
0.5
0.5
0.5
0.5
0.5
0.5
0.5
0.5
0.5
0.499979
0.49996
0.5
0.5
0.5
0.5
0.5
0.5
0.5
0.5
0.5
0.5
0.5
0.5
0.5
0.5
0.5
0.5
0.5
0.5
0.499978
0.49996
0.5
0.5
0.5
0.5
0.5
0.5
0.5
0.5
0.5
0.5
0.5
0.5
0.5
0.5
0.5
0.5
0.5
0.5
0.499925
0.499961
0.5
0.5
0.5
0.5
0.5
0.5
0.5
0.5
0.5
0.5
0.5
0.5
0.5
0.5
0.5
0.5
0.5
0.5
0.499977
0.499956
0.5
0.5
0.5
0.5
0.5
0.5
0.5
0.5
0.5
0.5
0.5
0.5
0.5
0.5
0.5
0.5
0.5
0.5
0.499953
0.499956
0.5
0.5
0.5
0.5
0.5
0.5
0.5
0.5
0.5
0.5
0.5
0.5
0.5
0.5
0.5
0.5
0.5
0.5
0.499979
0.499958
0.5
0.5
0.5
0.5
0.5
0.5
0.5
0.5
0.5
0.5
0.5
0.5
0.5
0.5
0.5
0.5
0.5
0.5
0.499927
0.499956
0.5
0.5
0.5
0.5
0.5
0.5
0.5
0.5
0.5
0.5
0.5
0.5
0.5
0.5
0.5
0.5
0.5
0.5
0.499978
0.499957
0.5
0.5
0.5
0.5
0.5
0.5
0.5
0.5
0.5
0.5
0.5
0.5
0.5
0.5
0.5
0.5
0.5
0.5
0.499957
0.499956
0.5
0.5
0.5
0.5
0.5
0.5
0.5
0.5
0.5
0.5
0.5
0.5
0.5
0.5
0.5
0.5
0.5
0.5
0.499953
0.499963
0.499999
0.5
0.5
0.5
0.5
0.5
0.5
0.5
0.5
0.5
0.5
0.5
0.5
0.5
0.5
0.5
0.5
0.500001
0.499928
0.499933
0.499953
0.499977
0.499978
0.499927
0.499977
0.499953
0.499978
0.499979
0.499926
0.499978
0.499953
0.499978
0.499978
0.499956
0.499953
0.499977
0.499977
0.499978
0.500006
0.482597
0.480604
0.48005
0.48186
0.483071
0.481909
0.481217
0.480941
0.482023
0.4816
0.48195
0.480986
0.480596
0.480827
0.479966
0.480541
0.480984
0.482668
0.482801
0.481568
0.480879
0.481823
0.480741
0.47953
0.481213
0.48219
0.481845
0.481145
0.482706
0.482386
0.482956
0.480839
0.481418
0.480071
0.480566
0.4804
0.481514
0.482095
0.481176
0.482782
0.481012
0.48354
0.334089
0.47893
0.480205
0.478776
0.334059
0.47927
0.480359
0.48083
0.334058
0.479529
0.479092
0.479831
0.334067
0.479887
0.480974
0.479297
0.334053
0.479858
0.478152
0.478227
0.334061
0.479019
0.479655
0.478328
0.334054
0.47952
0.478866
0.479163
0.334073
0.478921
0.478829
0.479641
0.33405
0.480643
0.480189
0.478477
0.334078
0.478611
0.478997
0.478759
0.334057
0.478062
0.480064
0.479943
0.334057
0.479646
0.478888
0.478687
0.33406
0.479647
0.479593
0.480042
0.33406
0.480073
0.479935
0.478036
0.334064
0.480544
0.479372
0.478505
0.334077
0.480575
0.478903
0.478396
0.334055
0.478789
0.478794
0.477924
0.334058
0.479357
0.478391
0.479438
0.334055
0.479584
0.479217
0.478474
0.334615
0.480883
0.481136
0.481835
0.33406
0.479114
0.478804
0.479687
0.333825
0.480369
0.479511
0.478155
0.333824
0.478709
0.479524
0.479917
0.333824
0.479607
0.480084
0.478487
0.333824
0.478014
0.478931
0.479877
0.333824
0.478289
0.478803
0.478806
0.333824
0.479634
0.478196
0.479996
0.333824
0.478727
0.479555
0.479217
0.333824
0.477896
0.47999
0.479921
0.333824
0.479571
0.478902
0.479439
0.333824
0.478831
0.47974
0.478565
0.333824
0.478613
0.478845
0.480269
0.333824
0.480578
0.479106
0.47898
0.333824
0.480602
0.47972
0.478482
0.333824
0.478627
0.478379
0.479732
0.333824
0.479176
0.478839
0.478293
0.333824
0.479481
0.478436
0.477986
0.333824
0.479965
0.479125
0.478215
0.333832
0.479112
0.478941
0.478646
0.334374
0.48059
0.481253
0.481664
0.334047
0.479599
0.479377
0.477418
0.333824
0.478185
0.478381
0.479832
0.333824
0.478871
0.479259
0.479088
0.333824
0.479114
0.478084
0.478153
0.333824
0.47828
0.47805
0.479709
0.333824
0.479223
0.478567
0.478368
0.333824
0.478844
0.480015
0.478174
0.333824
0.48128
0.478813
0.479282
0.333824
0.478782
0.47875
0.479999
0.333824
0.478411
0.479921
0.479374
0.333824
0.479456
0.477959
0.47886
0.333824
0.478815
0.482369
0.479605
0.333824
0.479347
0.479906
0.478177
0.333824
0.479301
0.479036
0.479423
0.333824
0.479389
0.479166
0.478363
0.333824
0.478316
0.479425
0.480572
0.333824
0.478945
0.48116
0.477623
0.333824
0.478496
0.478803
0.478501
0.333831
0.479684
0.478947
0.480161
0.33455
0.48134
0.481742
0.480501
0.334055
0.47842
0.478676
0.47964
0.333824
0.47897
0.480172
0.478605
0.333824
0.478462
0.479103
0.478161
0.333824
0.479014
0.479838
0.477617
0.333824
0.479284
0.479673
0.480407
0.333824
0.479089
0.481124
0.478423
0.333824
0.478152
0.47943
0.480139
0.333824
0.478994
0.479704
0.479345
0.333824
0.480214
0.481167
0.479398
0.333824
0.478674
0.479086
0.477989
0.333824
0.478098
0.4786
0.480598
0.333824
0.480245
0.479524
0.479762
0.333824
0.479081
0.478502
0.480487
0.333824
0.478319
0.480161
0.478671
0.333824
0.478515
0.479885
0.479185
0.333824
0.479427
0.479581
0.479583
0.333824
0.478296
0.479299
0.47918
0.333824
0.480111
0.481314
0.479632
0.333829
0.479859
0.48038
0.480322
0.334395
0.481402
0.482455
0.481361
0.334062
0.480089
0.479244
0.478886
0.333824
0.479136
0.479158
0.47998
0.333824
0.47803
0.479362
0.478896
0.333824
0.478834
0.479541
0.478951
0.333824
0.479399
0.479214
0.478976
0.333824
0.477931
0.479389
0.480546
0.333824
0.479006
0.480762
0.47922
0.333824
0.478883
0.481341
0.478417
0.333824
0.479364
0.478986
0.478868
0.333824
0.479119
0.479199
0.480568
0.333824
0.479131
0.478519
0.479946
0.333824
0.479001
0.479491
0.478719
0.333824
0.478826
0.479021
0.478149
0.333824
0.479004
0.479447
0.478153
0.333824
0.479225
0.478593
0.477972
0.333824
0.479449
0.478949
0.478136
0.333824
0.47863
0.479657
0.480054
0.333824
0.478886
0.48066
0.478892
0.333831
0.480925
0.478818
0.479269
0.334377
0.481955
0.480883
0.481685
0.334056
0.480272
0.47949
0.479665
0.333824
0.478338
0.479601
0.477511
0.333824
0.479355
0.478186
0.480794
0.333824
0.478978
0.48039
0.477587
0.333824
0.478596
0.479351
0.47877
0.333824
0.48046
0.479443
0.478722
0.333824
0.478107
0.480451
0.479815
0.333824
0.478115
0.480063
0.481221
0.333824
0.478924
0.48032
0.480325
0.333824
0.479437
0.480664
0.479822
0.333824
0.478585
0.480563
0.479357
0.333824
0.478826
0.480805
0.480076
0.333824
0.479325
0.479335
0.478411
0.333824
0.479419
0.480053
0.480982
0.333824
0.479052
0.480244
0.480223
0.333824
0.477956
0.479957
0.478471
0.333824
0.479926
0.478272
0.478696
0.333824
0.479006
0.47964
0.47846
0.333829
0.481265
0.478374
0.479944
0.334386
0.482065
0.481772
0.481525
0.334057
0.478743
0.479258
0.47872
0.333824
0.478396
0.479556
0.479033
0.333824
0.479632
0.479886
0.479649
0.333824
0.478696
0.47976
0.47885
0.333824
0.479698
0.478453
0.478578
0.333824
0.47833
0.478831
0.480259
0.333824
0.479944
0.478994
0.479499
0.333824
0.479332
0.479313
0.478932
0.333824
0.482025
0.479273
0.480068
0.333824
0.478409
0.479683
0.478788
0.333824
0.478265
0.47883
0.479669
0.333824
0.480768
0.478494
0.478818
0.333824
0.478823
0.479359
0.478014
0.333824
0.47972
0.479386
0.477765
0.333824
0.480129
0.479812
0.479399
0.333824
0.478874
0.479041
0.480019
0.333824
0.477956
0.480086
0.479371
0.333824
0.478164
0.480497
0.478941
0.333829
0.479084
0.478841
0.479617
0.334385
0.480387
0.480618
0.482221
0.334059
0.479094
0.481092
0.478815
0.333824
0.479886
0.479897
0.478543
0.333824
0.479816
0.478637
0.479089
0.333824
0.478674
0.478865
0.47833
0.333824
0.478321
0.478961
0.479794
0.333824
0.479356
0.479383
0.478317
0.333824
0.479378
0.478314
0.479261
0.333824
0.47918
0.478216
0.478449
0.333824
0.480338
0.478237
0.478747
0.333824
0.479347
0.478158
0.47928
0.333824
0.479983
0.478152
0.478977
0.333824
0.479858
0.477677
0.478714
0.333824
0.48003
0.478411
0.478139
0.333824
0.477609
0.478093
0.478687
0.333824
0.481122
0.478182
0.480368
0.333824
0.479115
0.479593
0.478899
0.333824
0.479405
0.478625
0.479253
0.333824
0.478928
0.479714
0.479051
0.333831
0.480697
0.479679
0.480379
0.334419
0.482311
0.482358
0.481632
0.334054
0.478804
0.4797
0.47849
0.333824
0.478416
0.478842
0.479662
0.333824
0.480069
0.479057
0.479214
0.333824
0.478507
0.479371
0.4796
0.333824
0.479439
0.478937
0.4802
0.333824
0.47806
0.480435
0.479945
0.333824
0.47968
0.478535
0.479496
0.333824
0.478958
0.479408
0.479198
0.333824
0.479057
0.479121
0.479762
0.333824
0.478619
0.479171
0.478838
0.333824
0.478882
0.480101
0.47917
0.333824
0.478804
0.47921
0.478829
0.333824
0.478382
0.479143
0.47827
0.333824
0.478712
0.479437
0.479163
0.333824
0.479352
0.478972
0.478512
0.333824
0.479694
0.478518
0.479916
0.333824
0.48087
0.47991
0.479439
0.333824
0.47969
0.47956
0.478739
0.33383
0.480625
0.479677
0.48066
0.33439
0.482054
0.48076
0.480335
0.33405
0.479116
0.479613
0.478898
0.333824
0.479229
0.479732
0.478016
0.333824
0.479353
0.47811
0.479482
0.333824
0.479782
0.479288
0.47896
0.333824
0.48024
0.478941
0.480399
0.333824
0.479298
0.480521
0.478926
0.333824
0.479296
0.479504
0.479255
0.333824
0.479163
0.479041
0.478931
0.333824
0.479949
0.479715
0.478472
0.333824
0.479468
0.47968
0.479375
0.333824
0.480296
0.479495
0.478531
0.333824
0.478625
0.478878
0.480128
0.333824
0.479103
0.479674
0.479163
0.333824
0.480203
0.480145
0.47882
0.333824
0.479489
0.477989
0.479815
0.333824
0.481153
0.478798
0.479073
0.333824
0.479929
0.47861
0.478848
0.333824
0.479109
0.479828
0.479236
0.33383
0.479985
0.480367
0.480183
0.33452
0.481622
0.480775
0.480145
0.334068
0.479281
0.478347
0.480284
0.333824
0.479255
0.48037
0.480079
0.333824
0.480431
0.478643
0.479842
0.333824
0.47939
0.479195
0.479802
0.333824
0.479954
0.479229
0.479385
0.333824
0.478172
0.478972
0.478576
0.333824
0.480284
0.48008
0.478951
0.333824
0.480159
0.47996
0.479206
0.333824
0.479478
0.478751
0.478516
0.333824
0.480207
0.479538
0.480213
0.333824
0.478288
0.479484
0.478781
0.333824
0.479631
0.479436
0.479153
0.333824
0.479332
0.480317
0.479028
0.333824
0.47845
0.479204
0.478837
0.333824
0.47964
0.47875
0.478897
0.333824
0.479696
0.479968
0.478795
0.333824
0.479309
0.479757
0.480573
0.333824
0.479019
0.478972
0.479825
0.333828
0.479833
0.478793
0.479793
0.33438
0.481492
0.480878
0.481465
0.334061
0.479363
0.480322
0.478163
0.333824
0.480828
0.478496
0.479001
0.333824
0.478622
0.479966
0.478409
0.333824
0.479082
0.478005
0.479333
0.333824
0.478942
0.478801
0.477735
0.333824
0.479169
0.47788
0.478774
0.333824
0.478422
0.479453
0.478535
0.333824
0.479733
0.478822
0.480643
0.333824
0.479111
0.479165
0.478352
0.333824
0.480807
0.478278
0.478891
0.333824
0.479381
0.478554
0.478872
0.333824
0.478893
0.47797
0.481149
0.333824
0.478872
0.481008
0.479335
0.333824
0.477765
0.478848
0.48035
0.333824
0.479744
0.479577
0.478595
0.333824
0.478868
0.480012
0.481504
0.333824
0.480274
0.479748
0.47966
0.333824
0.479408
0.48017
0.478213
0.333831
0.47965
0.479749
0.478573
0.334402
0.481348
0.481146
0.481136
0.334074
0.478952
0.480412
0.479039
0.333824
0.480499
0.478183
0.479804
0.333824
0.480418
0.478963
0.479089
0.333824
0.479485
0.478573
0.479183
0.333824
0.478977
0.480005
0.480737
0.333824
0.479152
0.47933
0.479447
0.333824
0.479263
0.478996
0.478929
0.333824
0.481292
0.479802
0.479659
0.333824
0.478935
0.479265
0.47885
0.333824
0.480241
0.478668
0.478878
0.333824
0.479275
0.478545
0.477603
0.333824
0.480448
0.479221
0.479331
0.333824
0.479392
0.479044
0.478779
0.333824
0.478591
0.478687
0.478145
0.333824
0.478574
0.478238
0.478303
0.333824
0.480691
0.478742
0.479257
0.333824
0.479632
0.48047
0.480473
0.333824
0.478707
0.479876
0.479587
0.333831
0.478925
0.478648
0.480507
0.334424
0.480523
0.481061
0.480582
0.334053
0.478505
0.479256
0.47904
0.333824
0.47953
0.477568
0.477893
0.333824
0.479555
0.478161
0.479521
0.333824
0.47988
0.478478
0.477869
0.333824
0.479527
0.479153
0.478534
0.333824
0.479365
0.479579
0.478676
0.333824
0.478003
0.479698
0.47935
0.333824
0.479159
0.478778
0.478709
0.333824
0.478739
0.478794
0.478169
0.333824
0.478758
0.478333
0.478791
0.333824
0.478304
0.478587
0.47937
0.333824
0.47792
0.479155
0.477973
0.333824
0.478749
0.47963
0.479372
0.333824
0.478576
0.47839
0.479529
0.333824
0.479316
0.47999
0.478687
0.333824
0.479062
0.47979
0.478402
0.333824
0.479723
0.479762
0.479846
0.333824
0.479787
0.479755
0.478207
0.333828
0.479995
0.479274
0.479637
0.334385
0.481595
0.482087
0.481889
0.334055
0.478802
0.479155
0.479096
0.333824
0.478795
0.479043
0.478888
0.333824
0.479771
0.478709
0.478856
0.333824
0.478357
0.478306
0.478259
0.333824
0.478609
0.478918
0.478891
0.333824
0.479051
0.478725
0.481019
0.333824
0.479293
0.479964
0.479359
0.333824
0.479551
0.478464
0.478188
0.333824
0.479789
0.480167
0.47969
0.333824
0.477888
0.480269
0.479493
0.333824
0.478302
0.480313
0.478578
0.333824
0.477937
0.480752
0.479532
0.333824
0.478453
0.478766
0.479531
0.333824
0.478049
0.478586
0.479082
0.333824
0.478135
0.478949
0.479744
0.333824
0.479192
0.479992
0.479416
0.333824
0.480195
0.479107
0.479673
0.333824
0.478191
0.479808
0.478795
0.333828
0.479397
0.479373
0.481367
0.334385
0.482315
0.482638
0.481585
0.334055
0.477827
0.48109
0.479343
0.333824
0.479187
0.480412
0.478161
0.333824
0.479604
0.478993
0.479159
0.333824
0.478474
0.480937
0.479903
0.333824
0.479085
0.479573
0.481403
0.333824
0.48014
0.480474
0.478967
0.333824
0.478572
0.478977
0.478501
0.333824
0.479384
0.478689
0.479416
0.333824
0.477874
0.47946
0.48107
0.333824
0.478864
0.47931
0.480525
0.333824
0.47884
0.479368
0.478253
0.333824
0.479884
0.478712
0.479912
0.333824
0.479906
0.478913
0.479872
0.333824
0.477721
0.47882
0.479116
0.333824
0.479727
0.478825
0.478739
0.333824
0.478953
0.478205
0.480006
0.333824
0.480395
0.480217
0.479704
0.333824
0.478357
0.478412
0.480727
0.33383
0.479449
0.47945
0.480411
0.334422
0.481932
0.481066
0.48003
0.334049
0.480225
0.478119
0.479698
0.333824
0.479217
0.479967
0.478557
0.333824
0.478247
0.478189
0.479121
0.333824
0.478376
0.478106
0.481026
0.333824
0.479378
0.479204
0.479578
0.333824
0.479502
0.479062
0.478769
0.333824
0.478558
0.479095
0.479147
0.333824
0.478554
0.480069
0.478913
0.333824
0.479752
0.478917
0.477705
0.333824
0.480295
0.478237
0.478474
0.333824
0.478777
0.480049
0.478011
0.333824
0.48138
0.478341
0.479328
0.333824
0.479356
0.479146
0.479923
0.333824
0.478867
0.479587
0.481041
0.333824
0.477975
0.478998
0.478087
0.333824
0.479541
0.480584
0.478959
0.333824
0.479689
0.47957
0.478614
0.333824
0.478862
0.479513
0.47904
0.33383
0.479236
0.478988
0.478865
0.334384
0.480709
0.479947
0.480984
0.33408
0.47854
0.478535
0.478774
0.333824
0.47876
0.47835
0.479929
0.333824
0.4786
0.479686
0.479391
0.333824
0.481037
0.478981
0.480334
0.333824
0.47923
0.478861
0.479989
0.333824
0.478572
0.479375
0.479874
0.333824
0.479974
0.47894
0.47889
0.333824
0.479517
0.479152
0.479165
0.333824
0.478103
0.478627
0.478855
0.333824
0.478598
0.480038
0.478415
0.333824
0.477819
0.479716
0.478651
0.333824
0.480174
0.479063
0.479035
0.333824
0.479181
0.477915
0.478834
0.333824
0.479639
0.478453
0.480459
0.333824
0.478122
0.478893
0.478484
0.333824
0.480429
0.479742
0.478634
0.333824
0.479666
0.478814
0.478931
0.333824
0.478456
0.479438
0.479518
0.333831
0.478704
0.480833
0.478692
0.334512
0.481884
0.481179
0.482436
0.33405
0.479689
0.481865
0.478658
0.333832
0.479066
0.478967
0.47972
0.333831
0.479537
0.480201
0.480112
0.333828
0.479491
0.480507
0.480177
0.33383
0.479077
0.479229
0.479839
0.333831
0.4802
0.479252
0.480224
0.333828
0.479653
0.480546
0.481003
0.33383
0.479005
0.47953
0.478766
0.333831
0.47833
0.47944
0.47955
0.333831
0.478715
0.479129
0.479973
0.333831
0.479273
0.480342
0.479126
0.333831
0.478943
0.47943
0.47888
0.333831
0.478547
0.479602
0.479305
0.33383
0.479368
0.479068
0.47928
0.33383
0.477929
0.479855
0.48059
0.333831
0.479337
0.48131
0.479879
0.333829
0.480915
0.479416
0.479423
0.333831
0.478918
0.480399
0.478758
0.333843
0.479479
0.480035
0.479362
0.334528
0.481204
0.483727
0.334484
0.480528
0.33442
0.48163
0.334424
0.481624
0.334387
0.482206
0.334375
0.481267
0.334436
0.481015
0.334387
0.482605
0.334381
0.482732
0.334376
0.481328
0.33442
0.481387
0.334529
0.482153
0.334375
0.480714
0.334426
0.480102
0.334407
0.480926
0.334384
0.481813
0.334414
0.480779
0.334386
0.4807
0.334501
0.480714
0.334382
0.480244
0.334288
0.333761
0.331734
0.334139
0.333944
0.33059
0.330642
0.333958
0.334078
0.330606
0.330689
0.333942
0.333954
0.331112
0.330524
0.334099
0.333941
0.33054
0.331056
0.333968
0.333941
0.33092
0.330367
0.33394
0.333937
0.330579
0.330548
0.333932
0.334111
0.33056
0.330738
0.334112
0.333937
0.330623
0.330554
0.333941
0.334127
0.330772
0.330506
0.334107
0.333941
0.330847
0.330649
0.333936
0.3341
0.330832
0.330617
0.333968
0.333943
0.330642
0.331627
0.333943
0.333939
0.331558
0.330836
0.333941
0.333946
0.330832
0.330486
0.333942
0.334108
0.330598
0.330747
0.334108
0.333934
0.330956
0.330417
0.333959
0.333962
0.330481
0.330752
0.333935
0.333939
0.33091
0.330541
0.333968
0.334115
0.330561
0.330957
0.333767
0.331669
0.334127
0.333943
0.330798
0.330814
0.334057
0.334054
0.333833
0.332371
0.332556
0.332558
0.332835
0.334078
0.333828
0.33383
0.332557
0.332553
0.332837
0.332839
0.334047
0.33383
0.333827
0.332554
0.332556
0.332839
0.332839
0.334053
0.333827
0.333827
0.332549
0.332554
0.332839
0.332839
0.334058
0.333827
0.333831
0.332554
0.33256
0.332839
0.332838
0.334057
0.33383
0.33383
0.332563
0.332557
0.332838
0.332838
0.334081
0.33383
0.333827
0.332555
0.332553
0.332839
0.332838
0.334058
0.333827
0.333829
0.332548
0.332555
0.332839
0.332839
0.334077
0.333831
0.333827
0.33255
0.332553
0.332839
0.332839
0.334059
0.333827
0.333829
0.332547
0.33255
0.332839
0.332841
0.334077
0.33383
0.333827
0.332549
0.332556
0.33284
0.332839
0.33406
0.33383
0.333828
0.332551
0.332554
0.332839
0.332839
0.334054
0.333828
0.333828
0.332553
0.332548
0.332839
0.332839
0.33406
0.333829
0.333828
0.332551
0.332557
0.332839
0.332839
0.33408
0.333828
0.33383
0.332553
0.332551
0.332839
0.332839
0.334051
0.33383
0.33383
0.332552
0.332556
0.332839
0.332838
0.334047
0.333827
0.333827
0.332545
0.332559
0.332838
0.332838
0.334054
0.33383
0.333832
0.332562
0.332562
0.332838
0.332837
0.334115
0.333834
0.334054
0.332556
0.3324
0.332827
0.332556
0.333942
0.331034
0.331099
0.333956
0.334105
0.330755
0.330768
0.333828
0.334073
0.333827
0.332549
0.332837
0.332557
0.332838
0.333824
0.333824
0.333824
0.332845
0.332846
0.332846
0.332846
0.333824
0.333824
0.333824
0.332846
0.332846
0.332846
0.332846
0.333824
0.333824
0.333824
0.332846
0.332846
0.332846
0.332846
0.333824
0.333824
0.333824
0.332846
0.332846
0.332846
0.332846
0.333824
0.333824
0.333824
0.332846
0.332846
0.332846
0.332846
0.333824
0.333824
0.333824
0.332846
0.332846
0.332846
0.332846
0.333824
0.333824
0.333824
0.332846
0.332846
0.332846
0.332846
0.333824
0.333824
0.333824
0.332846
0.332846
0.332846
0.332846
0.333824
0.333824
0.333824
0.332846
0.332846
0.332846
0.332846
0.333824
0.333824
0.333824
0.332846
0.332846
0.332846
0.332846
0.333824
0.333824
0.333824
0.332846
0.332846
0.332846
0.332846
0.333824
0.333824
0.333824
0.332846
0.332846
0.332846
0.332846
0.333824
0.333824
0.333824
0.332846
0.332846
0.332846
0.332846
0.333824
0.333824
0.333824
0.332846
0.332846
0.332846
0.332846
0.333824
0.333824
0.333824
0.332846
0.332846
0.332846
0.332846
0.333824
0.333824
0.333824
0.332846
0.332846
0.332846
0.332846
0.333825
0.333824
0.333824
0.332846
0.332845
0.332846
0.332846
0.334053
0.333827
0.334049
0.332837
0.332559
0.332839
0.332548
0.334116
0.330752
0.330456
0.333985
0.333942
0.330883
0.330478
0.333827
0.33405
0.33383
0.332554
0.332838
0.332559
0.332839
0.333824
0.333824
0.333824
0.332846
0.332846
0.332846
0.332846
0.333824
0.333824
0.333824
0.332846
0.332846
0.332846
0.332846
0.333824
0.333824
0.333824
0.332846
0.332846
0.332846
0.332846
0.333824
0.333824
0.333824
0.332846
0.332846
0.332846
0.332846
0.333824
0.333824
0.333824
0.332846
0.332846
0.332846
0.332846
0.333824
0.333824
0.333824
0.332846
0.332846
0.332846
0.332846
0.333824
0.333824
0.333824
0.332846
0.332846
0.332846
0.332846
0.333824
0.333824
0.333824
0.332846
0.332846
0.332846
0.332846
0.333824
0.333824
0.333824
0.332846
0.332846
0.332846
0.332846
0.333824
0.333824
0.333824
0.332846
0.332846
0.332846
0.332846
0.333824
0.333824
0.333824
0.332846
0.332846
0.332846
0.332846
0.333824
0.333824
0.333824
0.332846
0.332846
0.332846
0.332846
0.333824
0.333824
0.333824
0.332846
0.332846
0.332846
0.332846
0.333824
0.333824
0.333824
0.332846
0.332846
0.332846
0.332846
0.333824
0.333824
0.333824
0.332846
0.332846
0.332846
0.332846
0.333824
0.333824
0.333824
0.332846
0.332846
0.332846
0.332846
0.333824
0.333824
0.333824
0.332846
0.332846
0.332846
0.332846
0.334069
0.33383
0.334052
0.332839
0.33256
0.332839
0.332562
0.333958
0.33053
0.330436
0.333956
0.333939
0.330573
0.330554
0.33383
0.334053
0.33383
0.332554
0.332839
0.332559
0.332839
0.333824
0.333824
0.333824
0.332846
0.332846
0.332846
0.332846
0.333824
0.333824
0.333824
0.332846
0.332846
0.332846
0.332846
0.333824
0.333824
0.333824
0.332846
0.332846
0.332846
0.332846
0.333824
0.333824
0.333824
0.332846
0.332846
0.332846
0.332846
0.333824
0.333824
0.333824
0.332846
0.332846
0.332846
0.332846
0.333824
0.333824
0.333824
0.332846
0.332846
0.332846
0.332846
0.333824
0.333824
0.333824
0.332846
0.332846
0.332846
0.332846
0.333824
0.333824
0.333824
0.332846
0.332846
0.332846
0.332846
0.333824
0.333824
0.333824
0.332846
0.332846
0.332846
0.332846
0.333824
0.333824
0.333824
0.332846
0.332846
0.332846
0.332846
0.333824
0.333824
0.333824
0.332846
0.332846
0.332846
0.332846
0.333824
0.333824
0.333824
0.332846
0.332846
0.332846
0.332846
0.333824
0.333824
0.333824
0.332846
0.332846
0.332846
0.332846
0.333824
0.333824
0.333824
0.332846
0.332846
0.332846
0.332846
0.333824
0.333824
0.333824
0.332846
0.332846
0.332846
0.332846
0.333824
0.333824
0.333824
0.332846
0.332846
0.332846
0.332846
0.333824
0.333824
0.333824
0.332846
0.332846
0.332846
0.332846
0.334059
0.33383
0.334053
0.332839
0.332558
0.332839
0.332559
0.333939
0.330479
0.330491
0.333954
0.333938
0.330676
0.330777
0.33383
0.334056
0.333828
0.332548
0.332839
0.332556
0.332839
0.333824
0.333824
0.333824
0.332846
0.332846
0.332846
0.332846
0.333824
0.333824
0.333824
0.332846
0.332846
0.332846
0.332846
0.333824
0.333824
0.333824
0.332846
0.332846
0.332846
0.332846
0.333824
0.333824
0.333824
0.332846
0.332846
0.332846
0.332846
0.333824
0.333824
0.333824
0.332846
0.332846
0.332846
0.332846
0.333824
0.333824
0.333824
0.332846
0.332846
0.332846
0.332846
0.333824
0.333824
0.333824
0.332846
0.332846
0.332846
0.332846
0.333824
0.333824
0.333824
0.332846
0.332846
0.332846
0.332846
0.333824
0.333824
0.333824
0.332846
0.332846
0.332846
0.332846
0.333824
0.333824
0.333824
0.332846
0.332846
0.332846
0.332846
0.333824
0.333824
0.333824
0.332846
0.332846
0.332846
0.332846
0.333824
0.333824
0.333824
0.332846
0.332846
0.332846
0.332846
0.333824
0.333824
0.333824
0.332846
0.332846
0.332846
0.332846
0.333824
0.333824
0.333824
0.332846
0.332846
0.332846
0.332846
0.333824
0.333824
0.333824
0.332846
0.332846
0.332846
0.332846
0.333824
0.333824
0.333824
0.332846
0.332846
0.332846
0.332846
0.333824
0.333824
0.333824
0.332846
0.332846
0.332846
0.332846
0.334052
0.333831
0.334052
0.332838
0.33256
0.332839
0.332554
0.33394
0.330673
0.330674
0.33394
0.333941
0.330725
0.330609
0.333828
0.334057
0.333829
0.332553
0.332839
0.33255
0.332839
0.333824
0.333824
0.333824
0.332846
0.332846
0.332846
0.332846
0.333824
0.333824
0.333824
0.332846
0.332846
0.332846
0.332846
0.333824
0.333824
0.333824
0.332846
0.332846
0.332846
0.332846
0.333824
0.333824
0.333824
0.332846
0.332846
0.332846
0.332846
0.333824
0.333824
0.333824
0.332846
0.332846
0.332846
0.332846
0.333824
0.333824
0.333824
0.332846
0.332846
0.332846
0.332846
0.333824
0.333824
0.333824
0.332846
0.332846
0.332846
0.332846
0.333824
0.333824
0.333824
0.332846
0.332846
0.332846
0.332846
0.333824
0.333824
0.333824
0.332846
0.332846
0.332846
0.332846
0.333824
0.333824
0.333824
0.332846
0.332846
0.332846
0.332846
0.333824
0.333824
0.333824
0.332846
0.332846
0.332846
0.332846
0.333824
0.333824
0.333824
0.332846
0.332846
0.332846
0.332846
0.333824
0.333824
0.333824
0.332846
0.332846
0.332846
0.332846
0.333824
0.333824
0.333824
0.332846
0.332846
0.332846
0.332846
0.333824
0.333824
0.333824
0.332846
0.332846
0.332846
0.332846
0.333824
0.333824
0.333824
0.332846
0.332846
0.332846
0.332846
0.333824
0.333824
0.333824
0.332846
0.332846
0.332846
0.332846
0.334054
0.333828
0.334056
0.332839
0.332555
0.332839
0.332552
0.33394
0.330691
0.330609
0.333932
0.333941
0.331031
0.33075
0.33383
0.334047
0.333827
0.332559
0.332839
0.332554
0.332838
0.333824
0.333824
0.333824
0.332846
0.332846
0.332846
0.332846
0.333824
0.333824
0.333824
0.332846
0.332846
0.332846
0.332846
0.333824
0.333824
0.333824
0.332846
0.332846
0.332846
0.332846
0.333824
0.333824
0.333824
0.332846
0.332846
0.332846
0.332846
0.333824
0.333824
0.333824
0.332846
0.332846
0.332846
0.332846
0.333824
0.333824
0.333824
0.332846
0.332846
0.332846
0.332846
0.333824
0.333824
0.333824
0.332846
0.332846
0.332846
0.332846
0.333824
0.333824
0.333824
0.332846
0.332846
0.332846
0.332846
0.333824
0.333824
0.333824
0.332846
0.332846
0.332846
0.332846
0.333824
0.333824
0.333824
0.332846
0.332846
0.332846
0.332846
0.333824
0.333824
0.333824
0.332846
0.332846
0.332846
0.332846
0.333824
0.333824
0.333824
0.332846
0.332846
0.332846
0.332846
0.333824
0.333824
0.333824
0.332846
0.332846
0.332846
0.332846
0.333824
0.333824
0.333824
0.332846
0.332846
0.332846
0.332846
0.333824
0.333824
0.333824
0.332846
0.332846
0.332846
0.332846