/*--------------------------------*- C++ -*----------------------------------*\
| =========                 |                                                 |
| \\      /  F ield         | OpenFOAM: The Open Source CFD Toolbox           |
|  \\    /   O peration     | Version:  2412                                  |
|   \\  /    A nd           | Website:  www.openfoam.com                      |
|    \\/     M anipulation  |                                                 |
\*---------------------------------------------------------------------------*/
FoamFile
{
    version     2.0;
    format      ascii;
    arch        "LSB;label=32;scalar=64";
    class       volVectorField;
    location    "1";
    object      flux;
}
// * * * * * * * * * * * * * * * * * * * * * * * * * * * * * * * * * * * * * //

dimensions      [0 1 -1 1 0 0 0];

internalField   nonuniform List<vector> 
5712
(
(-0.362939 0.575221 0.340526)
(-0.445168 0.316257 1.03073)
(-0.823578 0.994936 0.259721)
(-1.2955 0.655187 1.12345)
(-1.25382 0.960511 0.14115)
(-2.44442 0.821963 1.18162)
(-0.859931 1.39669 0.23663)
(-2.58352 1.74985 1.84877)
(-0.882425 2.13432 0.384811)
(-2.06632 2.72763 2.31575)
(-1.08593 1.13912 0.397566)
(-1.79283 1.0071 1.65741)
(-0.827446 0.700044 0.426544)
(-1.10311 0.485506 1.47956)
(-0.445971 0.465322 0.421792)
(-0.455722 0.265293 1.27698)
(-0.616472 0.933261 0.195957)
(-0.712521 0.80953 0.112241)
(-0.827434 0.852723 0.595769)
(-0.758085 0.824861 0.290047)
(-0.569381 1.06653 0.181966)
(-0.856821 0.998081 0.0857399)
(-0.841388 1.24976 0.633295)
(-0.842854 1.05116 0.257369)
(-0.24429 0.332975 0.264147)
(-0.183205 0.226057 0.201092)
(-0.330174 0.174657 0.777132)
(-0.241521 0.120664 0.583527)
(-0.559267 0.478878 0.177073)
(-0.378347 0.301731 0.145122)
(-1.02302 0.267249 0.780816)
(-0.728142 0.173846 0.606916)
(-0.850351 0.987036 0.40113)
(-0.873087 1.02777 0.14808)
(-0.883786 0.863195 0.313591)
(-0.923098 0.669134 0.119765)
(-0.221604 0.684085 0.146692)
(-0.186693 0.550152 0.381266)
(-1.94847 0.589362 1.83103)
(-2.40895 0.566404 0.555133)
(-1.0474 0.7763 0.554434)
(-1.39143 0.770364 0.247361)
(-2.47859 1.62101 2.19489)
(-3.05489 1.79445 0.680595)
(-1.15353 1.13511 0.50585)
(-1.41924 1.21127 0.226389)
(-1.4772 0.862776 1.23278)
(-1.92981 0.680696 0.408635)
(-1.18974 0.858633 0.630614)
(-1.638 0.598694 0.282433)
(-0.691132 0.365914 1.021)
(-0.868506 0.319775 0.322528)
(-0.147694 0.285458 0.285153)
(-0.0475903 0.463278 0.153209)
(-0.189349 0.143079 0.444662)
(-0.0665737 0.205748 0.183966)
(-0.332301 0.376745 0.263185)
(-0.137897 0.611176 0.16077)
(-0.562118 0.240162 0.464792)
(-0.208774 0.343377 0.18037)
(-0.384097 0.377955 0.342231)
(-0.127609 0.725437 0.216023)
(-0.372098 0.292389 0.297725)
(-0.106522 0.504747 0.129713)
(-0.720986 0.088613 0.503049)
(-0.212129 0.335125 0.185299)
(-0.941369 0.0134573 0.195588)
(-0.298285 0.238438 0.0735409)
(-1.1769 0.763637 0.636648)
(-0.683546 0.925278 0.495916)
(-0.988642 0.824552 0.373631)
(-0.683919 0.92917 0.344821)
(-1.17656 0.953289 0.663212)
(-0.760864 0.958087 0.586764)
(-0.930638 0.995636 0.352945)
(-0.742815 0.951575 0.378075)
(-0.788305 0.75742 0.3636)
(-0.571972 0.920004 0.326359)
(-0.875572 0.73997 0.505307)
(-0.562546 0.899418 0.446568)
(-0.958424 0.836689 0.267878)
(-0.69974 0.930513 0.235522)
(-0.991131 0.826254 0.145851)
(-0.714973 0.9296 0.126229)
(-0.911296 1.01691 0.252806)
(-0.750451 0.94857 0.252994)
(-0.947606 1.02551 0.133732)
(-0.762603 0.947197 0.134434)
(-0.8074 0.717403 0.266996)
(-0.597045 0.925764 0.218692)
(-0.868072 0.656298 0.147668)
(-0.616218 0.924701 0.106777)
(-0.874461 0.828643 0.322314)
(-0.367983 0.922815 0.184123)
(-0.513063 1.0425 0.335483)
(-0.596699 1.52429 0.359985)
(-0.947678 0.871996 0.452916)
(-0.43073 1.0872 0.342494)
(-0.519546 1.04118 0.498264)
(-0.637636 1.69824 0.631866)
(-0.872326 0.782106 0.224586)
(-0.339481 0.808109 0.0989096)
(-0.529975 1.03376 0.20795)
(-0.580297 1.43156 0.210469)
(-0.90118 0.751821 0.121038)
(-0.340384 0.738652 0.043786)
(-0.553533 1.03186 0.0905132)
(-0.581927 1.38819 0.0788892)
(-0.14339 0.241114 0.356058)
(-0.163606 0.31496 0.692557)
(-0.0512562 0.664856 0.250641)
(-0.107529 1.12729 0.777754)
(-0.411642 0.283271 0.385818)
(-0.487395 0.325992 0.694785)
(-0.175449 0.808319 0.296992)
(-0.347654 1.24129 0.819826)
(-0.670985 0.32801 0.489922)
(-0.797941 0.3445 0.675231)
(-0.32207 0.971887 0.40348)
(-0.588113 1.36125 0.819876)
(-0.746065 1.06751 0.481778)
(-0.382812 1.1181 0.518103)
(-0.806965 0.953767 0.422112)
(-1.01844 0.915107 0.434301)
(-0.537687 1.34206 0.499446)
(-0.263998 1.13145 0.342232)
(-0.426318 1.0201 0.42518)
(-0.557646 0.944998 0.615103)
(-1.03508 0.832173 0.739835)
(-0.722899 1.55522 1.06231)
(-0.464728 1.03481 0.469164)
(-0.627851 0.990121 0.424442)
(-0.721534 0.870863 0.434941)
(-0.728976 0.96428 0.550141)
(-0.930962 1.96801 0.838343)
(-0.154774 0.0808658 0.863982)
(-0.155937 0.107127 0.839949)
(-0.0991957 0.232551 1.0083)
(-0.104493 0.506157 1.0255)
(-0.457355 0.112771 0.834396)
(-0.420128 0.161025 0.836498)
(-0.310829 0.297937 1.00316)
(-0.309673 0.56976 1.00736)
(-0.682772 0.164846 0.754397)
(-0.597903 0.158733 0.784661)
(-0.463824 0.388081 0.94873)
(-0.455582 0.651006 0.965949)
(-0.396548 1.07763 0.428656)
(-0.436782 1.02836 0.457699)
(-0.624682 0.924701 0.468714)
(-0.662992 0.843985 0.500584)
(-0.760297 0.826271 0.582018)
(-0.709409 0.695492 0.602126)
(-0.938809 0.623264 0.702281)
(-0.843865 0.529028 0.701708)
(-0.70208 0.528669 0.905589)
(-0.693223 0.814548 0.93077)
(-0.555463 0.95673 0.386152)
(-0.568909 0.828781 0.434031)
(-0.723562 0.912949 0.468255)
(-0.615657 0.821467 0.529179)
(-0.704734 0.803845 0.550284)
(-0.547258 0.711372 0.628406)
(-0.657046 0.734329 0.655997)
(-0.487361 0.623504 0.751608)
(-0.774576 0.617681 0.874984)
(-0.590989 0.865025 0.984607)
(-0.59235 0.957769 0.456189)
(-0.269716 1.00709 0.312453)
(-0.47344 0.999942 0.36377)
(-0.431894 1.08713 0.353689)
(-0.647888 0.934764 0.48298)
(-0.714988 0.850555 0.524329)
(-0.663739 0.958931 0.388852)
(-0.833405 0.908465 0.491288)
(-0.408532 0.904216 0.351841)
(-0.375172 0.904758 0.344687)
(-0.547347 0.887859 0.454892)
(-0.192135 0.869749 0.32978)
(-0.466406 1.02065 0.159997)
(-0.702125 1.1158 0.251337)
(-0.48878 1.01732 0.0582456)
(-0.7603 1.10951 0.0886822)
(-0.678391 0.977797 0.237218)
(-1.03265 0.951201 0.357796)
(-0.706856 0.971501 0.0843177)
(-1.06939 0.948564 0.127411)
(-0.407971 0.895129 0.145266)
(-0.634813 0.896874 0.232094)
(-0.429497 0.909165 0.0497448)
(-0.698622 0.906017 0.0811028)
(-0.509816 0.80744 0.347766)
(-0.350814 0.789459 0.292046)
(-0.680173 0.5686 0.365768)
(-0.280999 0.682975 0.234229)
(-0.538576 0.817057 0.497194)
(-0.141491 0.777983 0.360557)
(-0.639102 0.592511 0.57829)
(-0.0951029 0.720727 0.396832)
(-0.539268 0.781924 0.16906)
(-0.526654 0.775262 0.183619)
(-0.717998 0.558579 0.207794)
(-0.354931 0.677138 0.121942)
(-0.493956 0.788187 0.119137)
(-0.616479 0.765962 0.124986)
(-0.665447 0.551572 0.132339)
(-0.457618 0.658465 0.0991021)
(-0.140074 0.0855644 0.739889)
(-0.124949 0.064514 0.492724)
(-0.0992278 0.044569 0.164634)
(-0.0916008 0.043836 0.801156)
(-0.0864601 0.0345133 0.510457)
(-0.0714299 0.0336928 0.177652)
(-0.368334 0.131622 0.722234)
(-0.29591 0.0830672 0.47934)
(-0.238757 0.0597462 0.166988)
(-0.251828 0.104308 0.791811)
(-0.195744 0.0873781 0.506597)
(-0.153028 0.0700732 0.173823)
(-0.46834 0.130809 0.679496)
(-0.364166 0.111657 0.4451)
(-0.311286 0.110589 0.150292)
(-0.365331 0.188678 0.766908)
(-0.268337 0.150932 0.494377)
(-0.224503 0.129054 0.171135)
(-0.370692 0.91356 0.342333)
(-0.264908 0.739239 0.206564)
(-0.231741 0.631744 0.0598536)
(-0.598621 0.785425 0.442078)
(-0.393396 0.675437 0.303807)
(-0.289704 0.599734 0.0999641)
(-0.575074 0.551333 0.533903)
(-0.374931 0.486207 0.373838)
(-0.260245 0.448899 0.126982)
(-0.660181 0.417343 0.608716)
(-0.466827 0.362588 0.403224)
(-0.358213 0.331868 0.134276)
(-0.565886 0.309239 0.730994)
(-0.350987 0.204036 0.470185)
(-0.234721 0.151668 0.166261)
(-0.692849 0.723529 0.362424)
(-0.506984 0.606613 0.208424)
(-0.410431 0.53256 0.0715785)
(-0.53579 0.746348 0.408389)
(-0.37918 0.632487 0.27189)
(-0.279745 0.567385 0.0979748)
(-0.503508 0.573249 0.483081)
(-0.337039 0.461162 0.324646)
(-0.233106 0.403536 0.114896)
(-0.47916 0.433115 0.577911)
(-0.319655 0.346151 0.376095)
(-0.221917 0.304488 0.13137)
(-0.563288 0.312699 0.696382)
(-0.308551 0.205372 0.418095)
(-0.166679 0.153195 0.147453)
(-0.49378 1.20161 -0.0227304)
(-0.792456 1.22474 0.0376664)
(-0.427093 1.29469 0.0112791)
(-0.598993 1.17008 0.103066)
(-0.41942 1.19574 0.0789639)
(-0.846742 1.17159 0.07747)
(-0.357882 1.44708 0.201556)
(-0.699281 1.22044 0.17396)
(-0.00474979 0.749592 0.0240476)
(-0.0670168 0.802843 0.0362527)
(0.0116476 0.752354 0.0254433)
(-0.041361 0.725647 0.0379762)
(-0.143031 0.998721 0.0123233)
(-0.266271 0.856187 0.0342951)
(-0.0938311 0.986739 0.0230558)
(-0.168128 0.7625 0.0504805)
(-0.0854148 1.08542 0.0641082)
(-0.164968 1.11811 0.0414177)
(-0.459807 0.922317 0.143962)
(-0.67183 1.02016 0.104974)
(-0.349102 1.17966 0.0629654)
(-0.273714 1.05349 0.0983728)
(-0.505814 1.22912 0.113839)
(-0.444408 1.28545 0.0129597)
(-0.698579 1.32324 0.255147)
(-0.750626 1.43063 0.0663824)
(0.0175427 1.04616 -0.196385)
(0.230556 1.08021 -0.0570238)
(-0.354893 0.905739 0.00964736)
(-0.247195 0.897579 0.00369553)
(-0.274437 1.02332 -0.0237874)
(-0.156324 0.992644 -0.0253428)
(-0.062302 0.660929 0.384721)
(-0.0395728 0.375243 0.152358)
(-0.0531262 0.624579 0.100535)
(-0.0338618 0.415083 0.0540337)
(-0.1556 0.643881 0.377856)
(-0.048244 0.367833 0.152621)
(-0.0844916 0.604077 0.108063)
(-0.016449 0.402191 0.0623264)
(-0.400209 0.589753 0.360477)
(-0.113221 0.339457 0.162235)
(-0.312244 0.563744 0.137073)
(-0.097304 0.381801 0.0855121)
(-0.352159 0.556001 0.10086)
(-0.105399 0.396131 0.0561264)
(-0.394813 0.534919 0.0398928)
(-0.12581 0.394657 0.0345257)
(-0.529827 0.917097 0.538906)
(-0.503672 0.698228 0.466692)
(-0.409584 0.913079 0.228856)
(-0.493222 0.714875 0.293653)
(-0.826642 1.03879 0.645948)
(-0.725909 0.906673 0.600365)
(-0.67191 1.06052 0.309526)
(-0.682934 0.906449 0.369645)
(-0.290445 0.832008 0.191854)
(-0.358628 0.549857 0.232767)
(-0.340265 0.851308 0.42821)
(-0.334789 0.523107 0.346001)
(-0.381551 0.940965 0.137526)
(-0.485315 0.724869 0.184827)
(-0.399051 0.97242 0.0677446)
(-0.487102 0.727309 0.0973511)
(-0.639883 1.09897 0.199703)
(-0.663935 0.910455 0.233848)
(-0.662345 1.12592 0.103816)
(-0.666247 0.911922 0.12319)
(-0.255452 0.817109 0.0992551)
(-0.359871 0.5619 0.147347)
(-0.245161 0.814894 0.0441615)
(-0.361546 0.564216 0.0811444)
(-0.0230298 0.484279 0.158804)
(-0.0402679 0.330167 0.098215)
(-0.266053 0.411345 0.178653)
(-0.124482 0.268519 0.102374)
(-0.0246952 0.44067 0.286272)
(-0.0314598 0.29464 0.146191)
(-0.234414 0.379583 0.244876)
(-0.104649 0.245576 0.136526)
(-0.0221641 0.498817 0.0851359)
(-0.0355853 0.349849 0.062225)
(-0.278379 0.42604 0.119209)
(-0.136584 0.281428 0.0667642)
(-0.0319372 0.503286 0.0368145)
(-0.0385574 0.361717 0.0326868)
(-0.278792 0.430114 0.0692066)
(-0.143079 0.288289 0.0374199)
(0.00730724 0.105982 0.435847)
(0.0134664 0.0564537 0.259062)
(-0.0174732 0.200122 0.191239)
(-0.00951965 0.119133 0.178634)
(0.0339312 0.10885 0.43206)
(0.0541253 0.0639682 0.260566)
(-0.0262614 0.202473 0.186566)
(-0.0120749 0.129559 0.174163)
(-0.0392881 0.116753 0.436786)
(0.00168894 0.0834548 0.255204)
(-0.083824 0.199797 0.18642)
(-0.0653147 0.145973 0.161527)
(0.281295 0.506547 0.541036)
(0.142153 0.875913 0.561097)
(0.163993 0.327827 0.471235)
(0.113604 0.298079 0.336659)
(0.00903992 0.221326 0.166278)
(0.275816 0.890358 0.338774)
(0.391467 0.552653 0.375327)
(0.178166 0.302578 0.365908)
(0.182248 0.269501 0.315402)
(0.0115953 0.174077 0.187073)
(-0.406123 0.862904 0.486538)
(-0.285893 0.606565 0.403173)
(-0.21592 0.436261 0.30868)
(-0.201844 0.317539 0.227298)
(-0.0971449 0.209929 0.124887)
(0.0191834 0.0373433 0.192275)
(0.0152921 0.0319635 0.167261)
(-0.00410469 0.0840542 0.175661)
(-0.00501905 0.0730125 0.187739)
(0.0545742 0.0458437 0.196439)
(0.0547518 0.0334312 0.168179)
(-0.0100709 0.0986184 0.173216)
(-0.0112785 0.0845818 0.186445)
(0.0487953 0.0637786 0.196448)
(0.0620707 0.0500729 0.170291)
(-0.0356842 0.116707 0.167204)
(-0.0356155 0.100433 0.182543)
(0.102601 0.887502 0.379469)
(0.0319915 0.802391 0.360824)
(0.286221 0.542114 0.32155)
(0.179217 0.462021 0.2729)
(0.14665 0.32857 0.217529)
(0.0915919 0.288872 0.208894)
(0.137215 0.249637 0.185979)
(0.103881 0.215995 0.18083)
(0.00591932 0.15869 0.147443)
(-0.0103594 0.137449 0.176212)
(-0.221226 0.774098 0.2848)
(-0.157228 0.6303 0.32205)
(-0.00222016 0.544096 0.219794)
(0.054263 0.436286 0.245575)
(0.0180043 0.394926 0.174791)
(0.0551116 0.328725 0.193351)
(-0.00599608 0.277408 0.148322)
(0.0276757 0.238804 0.16765)
(-0.00704757 0.190655 0.109636)
(-0.0123602 0.188609 0.163463)
(-0.169072 0.521489 0.198869)
(-0.1761 0.381519 0.15991)
(-0.376525 0.53399 0.135393)
(-0.235085 0.363944 0.081929)
(-0.359222 0.692014 0.321813)
(-0.329748 0.487654 0.242283)
(-0.526114 0.714204 0.256914)
(-0.397079 0.489244 0.168111)
(-0.267186 0.420054 0.0912399)
(-0.158452 0.307143 0.0570199)
(-0.0933426 0.412023 0.136863)
(-0.113634 0.324095 0.121757)
(-0.442121 0.558681 0.162583)
(-0.190112 0.35077 0.075934)
(-0.473701 0.567137 0.0669799)
(-0.178726 0.357758 0.0367965)
(-0.602293 0.758357 0.22773)
(-0.387287 0.509292 0.133992)
(-0.643233 0.761314 0.0841901)
(-0.378456 0.516992 0.0578361)
(-0.320359 0.426037 0.120286)
(-0.116295 0.29155 0.0528704)
(-0.346654 0.435187 0.0542467)
(-0.101654 0.305444 0.0264186)
(-0.175303 0.297161 0.0624894)
(-0.129043 0.242648 0.0717207)
(-0.102476 0.208876 0.0644517)
(-0.180593 0.240265 0.104619)
(-0.0805022 0.298878 0.0975908)
(-0.102724 0.25145 0.112482)
(-0.0599147 0.211656 0.0765751)
(-0.148041 0.234479 0.134331)
(-0.192756 0.297072 0.0770314)
(-0.116213 0.237488 0.0517448)
(-0.127421 0.204522 0.046712)
(-0.207773 0.250366 0.075668)
(-0.236166 0.312837 0.028222)
(-0.106212 0.241668 0.00874306)
(-0.157801 0.212404 0.00127375)
(-0.200521 0.248216 0.0132984)
(0.0154306 0.0540054 0.125589)
(0.016358 0.0398933 0.0583739)
(0.0177846 0.0294486 0.0169548)
(-0.00327318 0.191064 0.12426)
(0.0031332 0.0900322 0.0343393)
(0.0039303 0.0657265 0.00930465)
(0.0537854 0.0507145 0.128547)
(0.0548588 0.0434184 0.0641583)
(0.0551884 0.034663 0.0201747)
(-0.00364981 0.204415 0.126017)
(0.0129256 0.106246 0.0364745)
(0.0146016 0.0811088 0.0103896)
(0.0662887 0.0647192 0.128009)
(0.0795239 0.0622549 0.0657838)
(0.0833357 0.058214 0.018062)
(-0.018278 0.221563 0.123843)
(0.0226674 0.133048 0.035946)
(0.0294902 0.10954 0.00892998)
(0.000849629 0.653981 0.251088)
(0.0256296 0.532484 0.144399)
(0.0225049 0.460009 0.0412562)
(0.110289 0.386493 0.186059)
(0.114457 0.321882 0.106013)
(0.10232 0.285991 0.0314451)
(0.0831301 0.260365 0.156646)
(0.0914509 0.220308 0.0844812)
(0.0857939 0.199741 0.0256045)
(0.0929329 0.211183 0.131332)
(0.102629 0.176481 0.066568)
(0.100669 0.159375 0.0175913)
(-0.00786358 0.262714 0.121811)
(0.0323123 0.176383 0.0341575)
(0.0290124 0.147509 0.00733936)
(-0.181478 0.48675 0.270609)
(-0.0937746 0.389659 0.148192)
(-0.0550532 0.332495 0.0485657)
(0.00585301 0.340778 0.209123)
(0.0433038 0.273837 0.116328)
(0.0562002 0.237295 0.0390622)
(0.0225164 0.277437 0.166157)
(0.0553141 0.219712 0.0900894)
(0.0635919 0.185944 0.0299607)
(0.0152273 0.244307 0.136738)
(0.0498679 0.192555 0.0621999)
(0.0565311 0.165485 0.0185026)
(-0.0401526 0.344413 0.131712)
(0.0197331 0.220266 0.0368535)
(0.0233192 0.186165 0.0121076)
(-0.00314183 0.195268 0.052444)
(-0.000437799 0.104118 0.0180818)
(0.000259349 0.0603026 0.00855184)
(0.000625591 0.0379015 0.0022586)
(0.00150848 0.216949 0.0211203)
(0.00168092 0.111577 0.0075706)
(0.00210734 0.0626158 0.00377932)
(0.00153613 0.039204 0.0011963)
(-0.00808697 0.189726 0.0531841)
(-0.00131807 0.102722 0.0188646)
(0.000920442 0.0602492 0.00974813)
(0.00176454 0.0382688 0.00313166)
(0.00336209 0.215024 0.0243368)
(0.00379307 0.111799 0.00943473)
(0.00434423 0.0636741 0.00567453)
(0.00324758 0.0401419 0.0024321)
(-0.0140056 0.179924 0.0593095)
(-0.00326061 0.100829 0.0218107)
(0.000334918 0.0618699 0.0122068)
(0.00283809 0.0389919 0.0044947)
(-0.0034553 0.208423 0.0384604)
(0.00188922 0.112593 0.0167714)
(0.00237047 0.0665692 0.00785475)
(0.00298559 0.0413551 0.00313465)
(-0.00159933 0.217081 0.0244485)
(0.00121288 0.116282 0.0128353)
(0.000193873 0.0653699 0.00380895)
(0.000544689 0.0412062 0.000840303)
(-0.0060673 0.221508 0.0223909)
(-0.00138771 0.119906 0.0130068)
(2.86772e-05 0.0665045 0.00532424)
(0.000909753 0.0415241 0.00225462)
(-0.0310554 0.189828 0.0457147)
(-0.00977776 0.106233 0.0188419)
(-0.00563485 0.0646296 0.00875174)
(0.000120326 0.040223 0.00193205)
(-0.042077 0.160496 0.0423624)
(-0.0134484 0.0959687 0.0170172)
(-0.0102571 0.0611917 0.00965962)
(0.000183421 0.0369812 0.00134628)
(-0.0254703 0.167947 0.0601443)
(-0.00768986 0.0976003 0.0226589)
(-0.00392267 0.0624793 0.0130297)
(0.00232495 0.0381719 0.00402734)
(-0.0342862 0.147164 0.0523157)
(-0.0108933 0.0902577 0.0194863)
(-0.00906075 0.0590628 0.012223)
(0.000417984 0.035517 0.00144246)
(-0.0283958 0.202541 0.0317501)
(-0.00919697 0.112277 0.0146284)
(-0.00499286 0.0657909 0.00618793)
(-1.91584e-05 0.041019 0.00139458)
(-0.0461376 0.168867 0.0307226)
(-0.0147632 0.100331 0.013553)
(-0.0109208 0.0625549 0.0074333)
(0.000540694 0.037649 0.00173823)
(-0.0292914 0.209339 0.0204688)
(-0.010026 0.116422 0.010931)
(-0.00451778 0.0671442 0.00532017)
(0.000699097 0.0415488 0.00245724)
(-0.0482468 0.173539 0.0189251)
(-0.0155066 0.103487 0.00976149)
(-0.0113173 0.0640335 0.00556006)
(0.000652185 0.0382721 0.00253724)
(-0.00259239 0.151599 0.0658036)
(-0.000516873 0.0917065 0.0222553)
(-0.000218347 0.0571929 0.0111632)
(0.000410728 0.0359287 0.00213159)
(-0.00186545 0.109654 0.0656435)
(-0.000307573 0.0777394 0.0215693)
(-0.000544355 0.0532163 0.0131744)
(0.000499501 0.0327858 0.000735247)
(-0.0067769 0.147621 0.0648681)
(-0.00144822 0.0905813 0.0222515)
(-0.000436075 0.0573776 0.0118211)
(0.00124317 0.036024 0.00246274)
(-0.00317393 0.109402 0.062848)
(-0.000199533 0.0777151 0.020715)
(-0.00106032 0.0533067 0.0130329)
(0.00141788 0.0329035 0.000715474)
(-0.0211049 0.141759 0.064259)
(-0.00619057 0.0889956 0.0224056)
(-0.00335673 0.0581977 0.0133725)
(0.00146633 0.0362441 0.00324766)
(-0.0155026 0.112001 0.0561786)
(-0.0040661 0.078904 0.0185864)
(-0.00334557 0.0538268 0.012701)
(0.00232898 0.0332484 0.00115918)
(-0.00938399 0.136506 0.0585311)
(-0.00212941 0.0867 0.0208347)
(-0.00140656 0.0578507 0.0137842)
(0.00303171 0.0360698 0.004698)
(-0.00603936 0.113574 0.0613568)
(-0.000965426 0.079577 0.0204781)
(-0.00199344 0.0552559 0.0157159)
(0.00259465 0.0337006 0.00189764)
(-0.0286479 0.130184 0.0443308)
(-0.00875021 0.0845227 0.015811)
(-0.00765511 0.0561699 0.0106861)
(0.00217605 0.0339628 0.00246693)
(0.000905931 0.0697529 0.0514417)
(0.00059909 0.0654039 0.0155902)
(0.000153432 0.0437277 0.0101327)
(0.000585411 0.0132617 0.000159354)
(0.00334934 0.0294655 0.019577)
(0.00133811 0.0591514 0.00549217)
(0.000575628 0.0396155 0.0031704)
(0.000453632 0.0122494 0.000354596)
(0.000570027 0.0744333 0.0510748)
(0.00103768 0.0672196 0.015711)
(-0.000109275 0.0446125 0.0101651)
(0.00141553 0.0139205 0.000296755)
(0.00835362 0.0357304 0.0201095)
(0.0034581 0.0611936 0.00575466)
(0.00130627 0.0403214 0.00337082)
(0.00114084 0.0124926 0.000515456)
(-0.00199085 0.0822181 0.048467)
(0.000487346 0.0700755 0.0151384)
(-0.000633619 0.0453536 0.0101735)
(0.00218916 0.0138594 0.000570639)
(0.011997 0.0458386 0.0196817)
(0.00503128 0.0646236 0.00576604)
(0.00192462 0.0411351 0.00356296)
(0.0016889 0.01261 0.0007188)
(-0.00173557 0.094168 0.0411385)
(0.000788455 0.0738916 0.0128483)
(-0.000810434 0.0469826 0.00955728)
(0.0028423 0.0148306 0.00094853)
(0.0138281 0.0591471 0.0175335)
(0.00597521 0.0691825 0.00507789)
(0.00199522 0.0426514 0.00370431)
(0.00183198 0.0131579 0.000969834)
(-0.00680571 0.112281 0.036017)
(-0.000333895 0.0792726 0.0117028)
(-0.00304215 0.049671 0.00877094)
(0.00210049 0.0166226 0.00148507)
(0.00935886 0.0760475 0.0160845)
(0.005252 0.0740095 0.00500447)
(0.000906779 0.0441637 0.00380858)
(0.00142637 0.0136135 0.00123659)
(-0.0275694 0.126867 0.0261913)
(-0.00485489 0.086067 0.00998118)
(-0.00694842 0.0513276 0.00566561)
(0.000977859 0.0159842 0.00104857)
(-0.00748107 0.0814378 0.0137813)
(0.000800197 0.0804364 0.00587073)
(-0.00119381 0.0472931 0.00295645)
(0.000466879 0.0142651 0.00123231)
(-0.0167327 0.123692 0.0290672)
(-0.00200443 0.0830856 0.00989982)
(-0.00548991 0.0501711 0.00689407)
(0.00134742 0.015976 0.00124062)
(-0.000386692 0.0811376 0.0144322)
(0.00307385 0.0779291 0.00523506)
(-0.000313568 0.0456607 0.00339131)
(0.000904337 0.0138881 0.00131562)
(-0.0364485 0.127648 0.0215202)
(-0.00813099 0.0881079 0.00948653)
(-0.00828043 0.05175 0.00489991)
(0.000902927 0.0151687 0.00124732)
(-0.0119034 0.0804565 0.0125289)
(-0.00124289 0.0824416 0.00609172)
(-0.00186967 0.0481967 0.0027407)
(0.000215658 0.0142288 0.00131486)
(-0.0421682 0.127173 0.014832)
(-0.0110824 0.0902625 0.00789644)
(-0.0094214 0.0531363 0.00426647)
(0.000663193 0.0154244 0.0020102)
(-0.0152688 0.0845943 0.010195)
(-0.00329026 0.0846604 0.00575877)
(-0.00250933 0.0494259 0.00290806)
(3.78855e-06 0.0144947 0.00168966)
(0.000219578 0.024336 0.000544972)
(0.000102216 0.0143511 0.000152687)
(4.57756e-05 0.00796913 5.35976e-05)
(2.06464e-05 0.00392249 2.22123e-05)
(1.1431e-05 0.00117015 1.20142e-05)
(0.000372921 0.0246923 0.000241748)
(0.000167901 0.0144312 7.23082e-05)
(7.44081e-05 0.00799153 2.65526e-05)
(3.36491e-05 0.00392986 1.13544e-05)
(1.86398e-05 0.00117198 6.31241e-06)
(0.000436692 0.0247571 0.000706811)
(0.000215723 0.0144729 0.000239134)
(9.69359e-05 0.00801852 9.47994e-05)
(4.37703e-05 0.00394226 4.1597e-05)
(2.44585e-05 0.00117538 2.29278e-05)
(0.000969383 0.0251106 0.000497994)
(0.000459919 0.0145797 0.000200921)
(0.000206018 0.00805564 8.50607e-05)
(9.39717e-05 0.00395609 3.82206e-05)
(5.24189e-05 0.00117901 2.12407e-05)
(0.000681768 0.0249277 0.00116438)
(0.000327296 0.0145893 0.00047166)
(0.000144966 0.00807214 0.000201931)
(6.53637e-05 0.00396418 9.18601e-05)
(3.66278e-05 0.00118119 5.15166e-05)
(0.00144446 0.0252017 0.00178008)
(0.000667235 0.0147874 0.000793287)
(0.000298517 0.00815439 0.000352884)
(0.000136887 0.0039973 0.000162479)
(7.68035e-05 0.00119016 9.12647e-05)
(0.000453826 0.0261153 0.00169995)
(0.000211689 0.0151163 0.000800877)
(9.63246e-05 0.00830241 0.000365996)
(4.47198e-05 0.00405949 0.000171078)
(2.52737e-05 0.00120715 9.71492e-05)
(0.000181391 0.0265063 0.00161251)
(0.000101014 0.0153975 0.000781364)
(4.8512e-05 0.00844267 0.00036279)
(2.30149e-05 0.0041204 0.000171358)
(1.30796e-05 0.00122399 9.81739e-05)
(0.00062735 0.0256994 0.00133781)
(0.000276224 0.0149125 0.000587294)
(0.000122374 0.00820994 0.000262557)
(5.56992e-05 0.00402045 0.000121691)
(3.10313e-05 0.0011964 6.83392e-05)
(6.09936e-05 0.0256738 0.00101666)
(2.97347e-05 0.0149161 0.000457445)
(1.30656e-05 0.00821251 0.000206602)
(5.66175e-06 0.00402142 9.64531e-05)
(3.0162e-06 0.00119659 5.4407e-05)
(0.00113278 0.0249496 0.00143557)
(0.00049085 0.0147209 0.000605929)
(0.000214232 0.00813118 0.000265849)
(9.72464e-05 0.00398819 0.000122695)
(5.4359e-05 0.00118757 6.91053e-05)
(0.000241491 0.02534 0.000986355)
(0.000100595 0.014804 0.000416921)
(4.32177e-05 0.00816536 0.000184388)
(1.92241e-05 0.0040019 8.56088e-05)
(1.04642e-05 0.00119122 4.80964e-05)
(6.12502e-05 0.0261347 0.00136808)
(3.61414e-05 0.0151124 0.000653375)
(1.69211e-05 0.00830089 0.000300529)
(7.58611e-06 0.00405889 0.000141177)
(4.14676e-06 0.00120696 8.02201e-05)
(5.37756e-05 0.0259925 0.00120815)
(3.29297e-05 0.0151003 0.000589411)
(1.55918e-05 0.0082994 0.000273394)
(7.16855e-06 0.00405855 0.00012893)
(3.99028e-06 0.00120684 7.33362e-05)
(-5.88139e-06 0.0264452 0.00144671)
(2.00486e-05 0.0154048 0.000711805)
(1.23373e-05 0.00845187 0.000331941)
(6.01568e-06 0.00412513 0.000157072)
(3.25444e-06 0.00122536 8.99566e-05)
(-3.23123e-05 0.0263321 0.00137094)
(-4.07796e-06 0.0153789 0.000682277)
(-3.91171e-07 0.00844518 0.000319407)
(-1.3067e-07 0.00412301 0.000151283)
(-1.99867e-07 0.00122484 8.64757e-05)
(0.000163424 0.0237961 0.000506937)
(7.53259e-05 0.0142448 0.00013669)
(3.2711e-05 0.00794223 4.65485e-05)
(1.43363e-05 0.0039142 1.90151e-05)
(7.79429e-06 0.00116815 1.02302e-05)
(0.000197936 0.0234885 0.000200972)
(7.88976e-05 0.014176 5.5063e-05)
(3.23216e-05 0.00792453 1.89472e-05)
(1.38331e-05 0.00390876 7.90065e-06)
(7.4454e-06 0.00116684 4.38284e-06)
(0.000398037 0.0240288 0.000589479)
(0.000175683 0.0143382 0.00018159)
(7.4809e-05 0.0079793 6.89478e-05)
(3.24453e-05 0.00392857 2.98606e-05)
(1.76056e-05 0.00117187 1.6549e-05)
(0.000470445 0.0237276 0.000209342)
(0.000180241 0.0142652 6.38373e-05)
(7.29719e-05 0.00795812 2.38696e-05)
(3.09582e-05 0.00392141 1.03526e-05)
(1.65293e-05 0.00117008 5.86676e-06)
(0.000511157 0.0243313 0.000648455)
(0.000215268 0.0144589 0.000238818)
(9.02771e-05 0.00802746 9.87317e-05)
(3.86593e-05 0.00394723 4.46163e-05)
(2.0849e-05 0.00117668 2.53258e-05)
(0.000614166 0.0242021 0.000317783)
(0.000228683 0.0143949 0.0001188)
(9.18561e-05 0.00800461 4.84527e-05)
(3.86782e-05 0.00393874 2.14036e-05)
(2.07652e-05 0.00117449 1.21144e-05)
(0.000883292 0.0247761 0.00123882)
(0.000357881 0.0146035 0.000516007)
(0.000151372 0.00808418 0.000223654)
(6.73333e-05 0.00396926 0.000103333)
(3.7437e-05 0.00118239 5.88536e-05)
(0.000473912 0.0247627 0.000628287)
(0.000176778 0.0145423 0.000257952)
(7.11815e-05 0.00805868 0.000110641)
(3.01837e-05 0.00395901 5.08173e-05)
(1.64991e-05 0.00117959 2.90352e-05)
(0.000532506 0.0250015 0.00129347)
(0.000220218 0.0147094 0.00053654)
(9.44502e-05 0.00812708 0.000233229)
(4.27046e-05 0.00398626 0.00010717)
(2.38523e-05 0.00118691 6.02641e-05)
(-0.0197752 0.499827 0.147593)
(-0.0260062 0.783464 0.257131)
(-0.0552097 0.518207 0.141068)
(-0.0751296 0.793094 0.250486)
(-0.0854366 0.548499 0.134163)
(-0.122057 0.808619 0.234501)
(-0.101893 0.584597 0.132952)
(-0.161561 0.847432 0.226719)
(-0.0942692 0.617473 0.140527)
(-0.151124 0.918303 0.250869)
(-0.088427 0.534682 0.0846258)
(-0.127982 0.657305 0.113824)
(-0.0706014 0.562856 0.112902)
(-0.0912821 0.726719 0.170229)
(-0.115218 0.524475 0.0567764)
(-0.162886 0.638817 0.0684291)
(-0.126792 0.515767 0.0217407)
(-0.1755 0.6328 0.0266308)
(-0.0281244 0.407742 0.437525)
(-0.00629457 0.0737542 0.106698)
(-0.00139652 0.0164469 0.0248226)
(-0.000302428 0.0037503 0.00559082)
(-7.535e-05 0.000668963 0.00143115)
(-0.00969886 0.486214 0.117697)
(-0.00395726 0.135735 0.0315585)
(-0.00038259 0.0334699 0.00853776)
(-0.000122231 0.00769678 0.00194197)
(-5.40478e-05 0.00136074 0.000443803)
(-0.0909745 0.412547 0.430682)
(-0.0204956 0.072076 0.10364)
(-0.00457393 0.015795 0.0239514)
(-0.000998412 0.00357215 0.00535931)
(-0.000250637 0.00063402 0.00136637)
(-0.024667 0.490162 0.121877)
(-0.00529328 0.135086 0.0357206)
(-0.00108722 0.0329164 0.00888424)
(-0.000215596 0.00747891 0.00209003)
(-4.68073e-05 0.00131868 0.000534177)
(-0.158906 0.421024 0.409037)
(-0.0360152 0.070934 0.0968539)
(-0.00809016 0.0151839 0.0221694)
(-0.00178363 0.00339402 0.00492868)
(-0.000452203 0.000599053 0.00125118)
(-0.0446224 0.49865 0.118334)
(-0.0109623 0.134713 0.0344489)
(-0.00249797 0.0322854 0.00849465)
(-0.000565588 0.00725994 0.00197743)
(-0.000142476 0.0012725 0.000500657)
(-0.224121 0.430068 0.375448)
(-0.0511237 0.0691093 0.0872601)
(-0.0116119 0.0144461 0.0198214)
(-0.00259339 0.00320325 0.00439702)
(-0.000666874 0.000564463 0.00111738)
(-0.0634902 0.509384 0.113049)
(-0.0172844 0.134076 0.0320989)
(-0.00424514 0.0316876 0.00775762)
(-0.0010129 0.00708554 0.00177759)
(-0.000268075 0.00123992 0.000444105)
(-0.306024 0.432781 0.320741)
(-0.07193 0.0669164 0.0735418)
(-0.0167181 0.0139244 0.0167159)
(-0.00380969 0.00310941 0.0037288)
(-0.00099887 0.000552154 0.000955927)
(-0.086269 0.514841 0.10328)
(-0.0268542 0.132567 0.0280321)
(-0.00699597 0.0313484 0.00663074)
(-0.00171884 0.00705967 0.0015021)
(-0.000465937 0.00124407 0.000372363)
(-0.396851 0.39742 0.173218)
(-0.102232 0.0733701 0.0425499)
(-0.0251896 0.0170274 0.0100491)
(-0.00600061 0.00405831 0.00230144)
(-0.00163005 0.000748761 0.000602583)
(-0.103416 0.444027 0.0529271)
(-0.0335685 0.130296 0.0135824)
(-0.00898323 0.0334892 0.00301055)
(-0.00224095 0.00801534 0.000634439)
(-0.000617285 0.0014714 0.000148348)
(-0.368051 0.414564 0.245544)
(-0.0917685 0.071195 0.058546)
(-0.0220222 0.015707 0.0135598)
(-0.00513307 0.0036215 0.00306251)
(-0.00136955 0.000654829 0.000794038)
(-0.0981194 0.473655 0.0732043)
(-0.0326334 0.132059 0.0192291)
(-0.00875278 0.0325598 0.00445714)
(-0.00218115 0.00754163 0.000997042)
(-0.000595624 0.00135417 0.00024573)
(-0.409391 0.387381 0.107494)
(-0.106895 0.0746932 0.0271057)
(-0.0266945 0.017858 0.00650249)
(-0.00643837 0.00435024 0.00150553)
(-0.00176712 0.000814238 0.000396927)
(-0.107837 0.431376 0.0338992)
(-0.0336461 0.129066 0.00892802)
(-0.00882902 0.0339324 0.00195947)
(-0.00217353 0.00829415 0.000396303)
(-0.000596452 0.00154687 8.88779e-05)
(-0.419876 0.382007 0.0393207)
(-0.109283 0.0730342 0.0100531)
(-0.0274193 0.0175442 0.00243458)
(-0.00665432 0.00431193 0.000568179)
(-0.00183729 0.000812947 0.000150713)
(-0.109313 0.425304 0.0157678)
(-0.0340142 0.12701 0.00387634)
(-0.00889241 0.0336346 0.000817527)
(-0.00203499 0.00829145 0.000217615)
(-0.000590037 0.00155602 3.46058e-05)
(-0.015113 1.54857 -0.0819576)
(-0.300289 2.2041 0.00926126)
(-0.293417 1.96197 0.181906)
(-0.162357 1.44634 -0.166895)
(0.158903 0.7899 0.0413563)
(0.218693 0.833294 0.0441429)
(0.437132 1.26154 0.111269)
(0.578086 1.27492 0.136282)
(0.243549 0.863311 0.0928254)
(0.500318 0.930964 0.150243)
(0.0792913 1.39357 0.126721)
(0.288895 1.88126 0.191605)
(0.238743 2.07283 0.124299)
(0.406192 2.84427 0.161842)
(0.454063 1.04817 0.0589976)
(0.632007 1.16103 0.0855923)
(0.545804 0.838009 0.0628843)