/*--------------------------------*- C++ -*----------------------------------*\
| =========                 |                                                 |
| \\      /  F ield         | OpenFOAM: The Open Source CFD Toolbox           |
|  \\    /   O peration     | Version:  2412                                  |
|   \\  /    A nd           | Website:  www.openfoam.com                      |
|    \\/     M anipulation  |                                                 |
\*---------------------------------------------------------------------------*/
FoamFile
{
    version     2.0;
    format      ascii;
    arch        "LSB;label=32;scalar=64";
    class       volScalarField;
    location    "1";
    object      gradTz;
}
// * * * * * * * * * * * * * * * * * * * * * * * * * * * * * * * * * * * * * //

dimensions      [0 -1 0 1 0 0 0];

internalField   nonuniform List<scalar> 
5712
(
8513.14
25768.2
6493.03
28086.3
3528.74
29540.5
5915.76
46219.2
9620.29
57893.7
9939.15
41435.3
10663.6
36989
10544.8
31924.4
4898.91
2806.03
14894.2
7251.18
4549.16
2143.5
15832.4
6434.22
6603.67
5027.31
19428.3
14588.2
4426.83
3628.05
19520.4
15172.9
10028.3
3701.99
7839.76
2994.14
3667.31
9531.66
45775.7
13878.3
13860.8
6184.03
54872.2
17014.9
12646.2
5659.73
30819.6
10215.9
15765.3
7060.82
25525.1
8063.21
7128.82
3830.22
11116.5
4599.15
6579.62
4019.26
11619.8
4509.25
8555.78
5400.57
7443.12
3242.82
12576.2
4632.47
4889.69
1838.52
15916.2
12397.9
9340.78
8620.52
16580.3
14669.1
8823.63
9451.88
9089.99
8158.99
12632.7
11164.2
6696.94
5888.06
3646.28
3155.71
6320.14
6324.86
3343.3
3360.84
6674.9
5467.3
3691.71
2669.44
8057.85
4603.07
8387.07
8999.62
11322.9
8562.34
12456.6
15796.7
5614.66
2472.74
5198.76
5261.73
3025.96
1094.65
2262.83
1972.23
8901.44
17313.9
6266.03
19443.9
9645.45
17369.6
7424.8
20495.6
12248
16880.8
10087
20496.9
12044.4
12952.6
10552.8
10857.5
12486.2
8555.79
10629.5
15377.6
18495.9
26557.8
11729.1
10611.1
10873.5
13753.5
20958.6
21599.5
20998.7
25207.6
25637.6
20859.9
20912.4
25079.1
25183.9
18859.9
19616.5
23718.2
24148.7
10716.4
11442.5
11717.8
12514.6
14550.5
15053.1
17557
17542.7
22639.7
23269.3
9653.79
10850.8
11706.4
13229.5
13757.1
15710.1
16399.9
18790.2
21874.6
24615.2
11404.7
7811.32
9094.25
8842.22
12074.5
13108.2
9721.3
12282.2
8796.03
8617.16
11372.3
8244.51
3999.92
6283.41
1456.14
2217.06
5930.45
8944.9
2107.94
3185.27
3631.64
5802.34
1243.62
2027.57
8694.16
7301.16
9144.19
5855.72
12429.9
9013.94
14457.2
9920.8
4226.5
4590.46
5194.86
3048.54
2978.43
3124.64
3308.49
2477.55
18497.2
12318.1
4115.84
20028.9
12761.4
4441.31
18055.8
11983.5
4174.69
19795.3
12664.9
4345.59
16987.4
11127.5
3757.3
19172.7
12359.4
4278.37
8558.33
5164.11
1496.34
11051.9
7595.17
2499.1
13347.6
9345.96
3174.55
15217.9
10080.6
3356.9
18274.8
11754.6
4156.53
9060.61
5210.61
1789.46
10209.7
6797.25
2449.37
12077
8116.16
2872.39
14447.8
9402.37
3284.25
17409.6
10452.4
3686.32
-568.261
941.66
281.978
2576.66
1974.1
1936.75
5038.9
4349.01
601.19
906.319
636.083
949.405
308.082
857.377
576.394
1262.01
1602.7
1035.44
3599.05
2624.34
1574.13
2459.32
2845.99
323.992
6378.68
1659.56
-4909.62
-1425.6
241.184
92.3884
-594.686
-633.57
9618.02
3808.96
2513.38
1350.84
9446.4
3815.53
2701.57
1558.16
9011.94
4055.87
3426.82
2137.8
2521.51
1403.16
997.321
863.141
13472.6
11667.3
5721.41
7341.31
16148.7
15009.1
7738.15
9241.13
4796.34
5819.19
10705.3
8650.03
3438.14
4620.69
1693.62
2433.78
4992.57
5846.19
2595.4
3079.74
2481.38
3683.68
1104.04
2028.61
3970.11
2455.38
4466.31
2559.34
7156.79
3654.78
6121.9
3413.15
2128.4
1555.62
2980.22
1669.11
920.363
817.169
1730.16
935.498
10896.2
6476.55
4780.98
4465.85
10801.5
6514.15
4664.14
4354.07
10919.6
6380.11
4660.51
4038.16
13525.9
14027.4
11780.9
8416.47
4156.96
8469.36
9383.18
9147.71
7885.05
4676.84
12163.5
10079.3
7716.99
5682.46
3122.17
4806.88
4181.53
4391.52
4693.49
4910.97
4204.48
4330.41
4661.11
4911.21
4257.26
4180.11
4563.58
9486.72
9020.59
8038.76
6822.49
5438.22
5222.35
4649.49
4520.75
3686.09
4405.31
7120
8051.24
5494.86
6139.36
4369.78
4833.78
3708.05
4191.25
2740.91
4086.58
4971.72
3997.76
3384.82
2048.22
8045.34
6057.07
6422.84
4202.78
2281
1425.5
3421.57
3043.92
4064.58
1898.35
1674.5
919.913
5693.26
3349.81
2104.75
1445.9
3007.15
1321.76
1356.17
660.465
1562.23
1793.02
1611.29
2615.47
2439.77
2812.05
1914.38
3358.28
1925.79
1293.62
1167.8
1891.7
705.551
218.576
31.8437
332.46
3139.74
1459.35
423.871
3106.51
858.484
232.616
3213.69
1603.96
504.367
3150.43
911.862
259.74
3200.23
1644.6
451.55
3096.09
898.65
223.249
6277.19
3609.96
1031.4
4651.47
2650.32
786.129
3916.14
2112.03
640.114
3283.31
1664.2
439.783
3045.27
853.938
183.484
6765.23
3704.79
1214.14
5228.06
2908.2
976.555
4153.93
2252.24
749.017
3418.45
1555
462.566
3292.79
921.337
302.689
1311.1
452.044
213.796
56.4651
528.008
189.265
94.483
29.9074
1329.6
471.616
243.703
78.2915
608.421
235.868
141.863
60.8024
1482.74
545.269
305.17
112.368
961.51
419.286
196.369
78.3662
611.213
320.883
95.2237
21.0076
559.773
325.171
133.106
56.3654
1142.87
471.047
218.793
48.3012
1059.06
425.431
241.491
33.6569
1503.61
566.473
325.743
100.683
1307.89
487.159
305.576
36.0616
793.752
365.709
154.698
34.8646
768.065
338.824
185.833
43.4558
511.72
273.274
133.004
61.4311
473.127
244.037
139.002
63.4311
1645.09
556.382
279.08
53.2897
1641.09
539.231
329.36
18.3812
1621.7
556.287
295.528
61.5684
1571.2
517.875
325.821
17.8869
1606.47
560.14
334.312
81.1915
1404.46
464.659
317.526
28.9796
1463.28
520.867
344.605
117.45
1533.92
511.951
392.898
47.4411
1108.27
395.275
267.153
61.6731
1286.04
389.756
253.317
3.98384
489.426
137.304
79.26
8.86489
1276.87
392.775
254.128
7.41887
502.737
143.867
84.2705
12.8864
1211.67
378.459
254.338
14.266
492.042
144.151
89.074
17.97
1028.46
321.207
238.932
23.7133
438.338
126.947
92.6077
24.2458
900.426
292.57
219.273
37.1268
402.113
125.112
95.2145
30.9148
654.783
249.53
141.64
26.2142
344.534
146.768
73.9112
30.8079
726.679
247.495
172.352
31.0154
360.804
130.877
84.7827
32.8904
538.006
237.163
122.498
31.1829
313.223
152.293
68.5176
32.8716
370.799
197.411
106.662
50.2551
254.875
143.969
72.7014
42.2416
13.6243
3.81718
1.33994
0.555309
0.300356
6.0437
1.8077
0.663815
0.283859
0.15781
17.6703
5.97834
2.36999
1.03993
0.573194
12.4498
5.02303
2.12652
0.955516
0.531019
29.1094
11.7915
5.04826
2.2965
1.28791
44.502
19.8322
8.82209
4.06198
2.28162
42.4989
20.0219
9.14989
4.27695
2.42873
40.3128
19.5341
9.06975
4.28396
2.45435
33.4452
14.6823
6.56393
3.04229
1.70848
25.4166
11.4361
5.16504
2.41133
1.36017
35.8892
15.1482
6.64622
3.06737
1.72763
24.6589
10.423
4.60969
2.14022
1.20241
34.2021
16.3344
7.51322
3.52943
2.0055
30.2038
14.7353
6.83485
3.22326
1.8334
36.1677
17.7951
8.29852
3.9268
2.24892
34.2735
17.0569
7.98516
3.78208
2.16189
12.6734
3.41724
1.16371
0.475377
0.255755
5.0243
1.37657
0.47368
0.197516
0.109571
14.737
4.53975
1.72369
0.746515
0.413725
5.23354
1.59593
0.59674
0.258815
0.146669
16.2114
5.97044
2.46829
1.11541
0.633145
7.94456
2.97001
1.21132
0.53509
0.302861
30.9705
12.9002
5.59136
2.58333
1.47134
15.7072
6.44879
2.76602
1.27043
0.725879
32.3367
13.4135
5.83072
2.67926
1.5066
3689.82
6428.28
3526.71
6262.14
3354.08
5862.53
3323.81
5667.98
3513.17
6271.73
2115.65
2845.59
2822.56
4255.72
1419.41
1710.73
543.518
665.771
10938.1
2667.44
620.566
139.771
35.7787
2942.42
788.962
213.444
48.5494
11.0951
10767.1
2591
598.786
133.983
34.1593
3046.93
893.015
222.106
52.2507
13.3544
10225.9
2421.35
554.235
123.217
31.2796
2958.36
861.221
212.366
49.4357
12.5164
9386.2
2181.5
495.534
109.926
27.9345
2826.21
802.472
193.941
44.4397
11.1026
8018.52
1838.55
417.897
93.22
23.8982
2582
700.802
165.769
37.5525
9.30908
4330.46
1063.75
251.228
57.5359
15.0646
1323.18
339.559
75.2637
15.861
3.70871
6138.61
1463.65
338.994
76.5628
19.8509
1830.11
480.727
111.428
24.9261
6.14326
2687.35
677.643
162.562
37.6383
9.92317
847.479
223.2
48.9868
9.90757
2.22195
983.018
251.328
60.8644
14.2045
3.76783
394.194
96.9085
20.4382
5.44038
0.865146
-2048.94
231.531
4547.65
-4172.39
1033.91
1103.57
2781.72
3407.06
2320.64
3756.07
3168.01
4790.11
3107.48
4046.05
1474.94
2139.81
1572.11
1832.49
1084.02
1123.48
2792.37
2040.99
73.234
-382.562
-423.392
-595.088
-137.553
13068.1
4370.49
4858.18
3989.22
770.68
499.763
3561.44
-285.687
130.527
-200.116
-21.4592
6372.56
3544.16
2017.68
1122.47
3332.53
1799.69
490.264
754.564
-453.157
-351.004
1141.95
1040.08
9409.52
4373.4
4714.31
2637.6
3231.62
3595.34
505.975
-327.493
774.912
1844.92
1519.01
1231.54
1040.02
704.281
1566.39
1204.98
922.302
640.607
240.395
59.9284
46.3701
34.0705
21.8581
7.67485
-338.065
-278.953
-206.48
-126.413
-42.5083
-375.765
-311.308
-230.837
-141.268
-47.5085
-527.771
-437.153
-324.391
-198.783
-66.8916
-120.283
-97.4926
-69.8445
-41.1164
-13.521
9222.96
7778.5
6047.79
4955.36
3926.4
3646.14
2723.15
2175.04
1600.76
649.575
3825.7
2890.42
2203.33
1552.67
635.79
3004.53
2211.82
1664.51
1130.4
405.764
605.055
420.86
335.456
228.59
96.8541
465.191
404.823
318.056
207.067
72.2227
2882.41
2212.52
1619.79
1046.66
376.479
-106.614
8.81024
46.7478
43.3656
15.5535
125.152
115.76
98.8362
69.6348
25.7213
-102.631
-27.8202
10.5854
19.2338
8.30737
-31.9391
-33.8596
-25.8558
-14.0105
-3.8953
4181.83
3768.18
2995.08
2593.16
2221.19
2829.25
2131.04
1629.2
1126.83
409.728
1748.45
1424.62
1070.77
682.451
236.907
958.347
770.015
572.675
362.085
124.943
2742.63
2127.37
1550.86
979.328
341.706
1564.43
1265.37
939.36
584.782
192.625
418.151
335.908
250.353
158.35
54.1502
658.325
538.299
401.099
250.046
84.763
-387.77
-307.905
-218.734
-129.202
-42.6015
-307.756
-250.404
-180.911
-107.619
-35.5643
983.576
795.328
587.973
366.333
125.41
897.189
726.041
536.74
333.87
113.881
6011.89
4566.27
3702.98
3175.23
2287.75
3319.34
2517.54
1901.48
1311.11
507.802
3587.58
2834.29
2200.49
1639.74
638.098
2055.65
1624.8
1229.76
831.069
340.085
2711.4
2141.98
1576.14
992.248
340.674
2921.01
2059.15
1550.08
1045.28
236.444
437.929
356.165
267.106
168.782
57.4515
-291.089
-240.423
-176.019
-105.714
-35.1216
673.933
548.729
412.013
260.34
87.7568
-35289.4
-54348.2
-26899.1
-46094.5
-28116.2
-63595.2
-36773.1
-77411.9
-20281.1
-13973.8
-22056.3
-12258.3
-18718
-12569.6
-22038.3
-10878.2
-29615.9
-21198.2
-40327
-29504.2
-23482.1
-17519.6
-34620.4
-26286.4
-17750.1
-18484.5
-12687
-12737.3
-15654.8
-16055
-50958.6
-15668.2
-16707.2
-8021.24
-59278.4
-18928.9
-15125.3
-7457.73
-36114.2
-11888.5
-18505.8
-8679.87
-30683.3
-9301.97
-14551.3
-6235.75
-19589.4
-7414.79
-12750.3
-5751
-18072.6
-6511.81
-13314.9
-6541.68
-11146.6
-4325.2
-15388.1
-5525.05
-6002.39
-2242.93
-13086.8
-9871.31
-10630.9
-8209.42
-11190.4
-9750.72
-9359.74
-8276.32
-10727.3
-8187.22
-12619.3
-10316.1
-7927.08
-6025.09
-4690.51
-3477.43
-7146.61
-6078.25
-4166.88
-3435.8
-8016.62
-5770.08
-4743.49
-3065.32
-9632.33
-5132.58
-8515.11
-8947.67
-12691.9
-8944.95
-12179
-15348.3
-6763.52
-2873.18
-5463.36
-5335.09
-3871.33
-1400.55
-2573.26
-2079.02
-13033
-16777.4
-7560.36
-19272.9
-12970
-16359.4
-8308.81
-19940.2
-14383.6
-15769.8
-10374.8
-19501.9
-8204.76
-5230.76
-10555.6
-12281
-12576.4
-7158.3
-10168.3
-15229.1
-17746.5
-25261.5
-6767.33
-7915.08
-9641.02
-12932.7
-20031.5
-17803.6
-14604
-22462.9
-18651.2
-17238.5
-14911.8
-22466.5
-18782.4
-15745.8
-13973.1
-21209.8
-18623.1
-9978.66
-9260.78
-10543.8
-9530.04
-12208.3
-11030.5
-14301.8
-12813.7
-20233.3
-18623.7
-8087.82
-8806.96
-9458.85
-9545.37
-11177.1
-11261.9
-13808.4
-14036.3
-19875.8
-19807.7
-9679.9
-6599.09
-8172.34
-8000.63
-9730.39
-11527.9
-8324.66
-11028.5
-8239.36
-8012.88
-10204.2
-7219.51
-3558.82
-5780.19
-1224.93
-1904.03
-5157.89
-8188.43
-1650.94
-2695.37
-3393.58
-5469.76
-1147.12
-1832.68
-8341.25
-6850.5
-8855.73
-5487.86
-11586.5
-8088.52
-13789.9
-9000.2
-4078.15
-4367.51
-5058.22
-2877.28
-2916.45
-2996.25
-3239.53
-2380.46
-10633.5
-4096.34
-11632.9
-4052.26
-10872.2
-4101.05
-12183.7
-4493.24
-10500
-3883.9
-13073.7
-5153.39
-5417.24
-1422.77
-6714.48
-2428.04
-8002.86
-3111.62
-9753.41
-3679.11
-13025.7
-5056.56
-6259.92
-1286.79
-6139.46
-2163.22
-7279.11
-2719.94
-9357.68
-3476.31
-11991.1
-4010.72
-7604.67
-7285.09
-5390.71
-4996.13
-12196.8
-9732.72
-9703.44
-7643.65
-6053.21
-5208.41
-2387.89
-1846.95
-5731.48
-5193.46
-2174.12
-1950.05
-3408.93
-6474.25
-4557.24
-7729.33
-5181.41
-2804.71
-4186.84
-1522.29
-8223.67
-3263.95
3451.92
447.802
-900.028
-727.709
307.688
432.744
-2650.9
-1207.28
-1097.59
-381.509
-2724.6
-1369.85
-1292.88
-438.251
-3064.66
-1645.26
-1739.63
-485.101
-1704.82
-166.732
-438.806
361.508
-6025.2
-5855.51
-4622.33
-5039.24
-8929.67
-8596.56
-7352.71
-7263.41
-3052.91
-3573.74
-4531.6
-4216.51
-3310.33
-3549.71
-1820.73
-1817.98
-5332.56
-5120.74
-3109.14
-2799.29
-1832.37
-2426.23
-791.811
-1159.62
-1894.95
-946.794
-2556.46
-1227.44
-2800.72
-1612.33
-3008.87
-1695.07
-1056.27
-425.366
-1731.49
-615.049
-209.929
151.35
-749.91
-9.96786
-2770.28
-2479.78
-1899.91
-2684.88
-2893.94
-2676.89
-1997.94
-2756.86
-3461.69
-2853.1
-2266
-2723.93
-2977.96
-3713.9
-3174.9
-2683.91
-1858.23
-5441.47
-4201.81
-3505.07
-3604.18
-2978.77
-5682.72
-4125.03
-3154.53
-2501.08
-1444.04
-3027.67
-3598.22
-4379.56
-7359.73
-2983.62
-3141.87
-4096.88
-6810.98
-3129.72
-3587.4
-3773.06
-6067.15
-8603.24
-7384.64
-6477.93
-5539.07
-4102.11
-4304.48
-3644
-4156
-3247.65
-5423.13
-5838.1
-6609.66
-4016.58
-4935.25
-2917.97
-3839.83
-2564.45
-3578.47
-1760.88
-4181.06
-2745.86
-2760.79
-1798
-899.896
-5535.62
-4702.35
-4780.82
-2994.08
-878.487
-410.742
-1652.75
-2014.45
-2967.91
-1092.39
-873.881
-313.299
-4655.36
-2522.09
-1430.07
-855.583
-1964.69
-601.273
-516.493
-85.9279
-472.429
-1061.98
-868.873
-2266.16
-1161.37
-2129.36
-1166.55
-3217.24
-1041.02
-720.033
-428.681
-1485.91
94.0606
300.036
669.914
91.6886
-2977.12
-1008.5
-5269.33
-691.25
-2662.76
-1147.31
-4957.42
-686.724
-2507.53
-797.3
-4025.54
-278.973
-4142.45
-1020.25
-3268.3
-859.43
-3154.06
-980.401
-2505.23
-477.872
-3638.16
-259.271
-4757.29
-806.932
-3803.79
-681.899
-3292.63
-688.708
-2830.67
-327.205
-3715.9
-378.636
-524.693
-183.878
-112.812
-7.48053
-179.367
-61.7817
-45.1937
-8.91037
-524.608
-172.955
-122.457
-15.1062
-124.494
-30.6636
-50.2043
-15.3717
-589.528
-179.959
-138.152
-8.73488
-46.1957
37.1369
61.4683
84.2845
267.554
175.036
193.438
145.711
438.918
273.124
207.504
119.748
-346.84
-71.1527
2.33202
87.2886
-311.333
-40.0085
-40.5881
90.3719
-657.788
-190.183
-138.237
32.962
-515.819
-119.338
-134.484
84.1256
-46.889
54.2787
84.5642
103.676
-81.5208
48.9211
32.9826
89.2883
222.914
166.452
129.066
90.1293
179.015
143.827
89.6376
76.9194
-789.518
-269.886
-184.986
3.55625
-1004.17
-305.115
-283.941
38.3058
-778.278
-257.394
-193.912
1.65733
-980.849
-293.372
-280.82
38.5641
-788.5
-245.784
-224.806
-10.4649
-898
-262.417
-273.766
28.2221
-576.548
-150.782
-192.482
-1.6656
-865.654
-232.921
-313.798
36.5782
-424.396
-96.5916
-126.855
70.297
-944.552
-230.402
-231.98
39.0759
-405.906
-83.7586
-68.1649
5.05733
-851.583
-205.282
-221.416
38.1794
-376.748
-76.6381
-67.7881
3.5187
-707.47
-159.332
-208.919
31.4912
-319.956
-60.3426
-65.049
2.26977
-570.567
-120.812
-189.642
21.673
-275.967
-49.9393
-66.3767
-0.606598
-401.432
-76.1135
-143.222
23.9402
-166.173
-21.828
-51.7818
3.35068
-197.271
-7.4881
-13.428
67.2005
37.0055
53.8845
29.6373
39.7229
-341.212
-64.4239
-86.2134
41.8607
-48.0679
16.217
-13.5093
18.817
-17.8824
63.5767
41.6229
77.5114
96.7114
88.4506
60.7854
52.2554
167.47
132.079
75.2236
66.4872
161.416
118.259
69.8048
50.2751
1.17205
1.49523
0.832363
0.420716
0.249061
0.76512
0.742919
0.398699
0.196817
0.113329
5.85551
3.50562
1.7306
0.844668
0.496926
7.25231
3.52725
1.68297
0.814788
0.478197
17.5331
8.19323
3.82281
1.82267
1.06025
32.9508
15.524
7.22381
3.44841
2.01232
36.385
17.0575
7.88145
3.73411
2.16012
40.1888
18.6401
8.60593
4.0703
2.34337
25.6982
11.7853
5.40312
2.5583
1.49595
22.3098
9.39224
4.21056
1.97393
1.14986
24.3736
10.8133
4.93889
2.32524
1.35015
17.5875
7.46951
3.35104
1.56277
0.911269
31.2157
14.3532
6.58635
3.10894
1.80133
30.2025
13.2938
6.02295
2.83257
1.64343
36.812
17.132
7.90326
3.73392
2.14893
35.5062
16.5893
7.64494
3.60946
2.07943
1.19994
1.18646
0.670016
0.341176
0.202496
0.733928
0.409928
0.225344
0.112059
0.063762
3.4115
2.23153
1.12549
0.550362
0.319958
1.44285
0.687645
0.339777
0.163931
0.0916992
7.85693
3.56752
1.65248
0.779838
0.443238
4.09848
1.87045
0.88909
0.431721
0.245933
19.5955
8.16271
3.69072
1.71474
0.97534
9.02951
3.88427
1.78423
0.834309
0.471127
20.3989
8.99946
4.10314
1.92885
1.11861
-3717.91
-5724.52
-3576.86
-5626.4
-3352.89
-5283.37
-3233.21
-5089.23
-3255.45
-5520.13
-1952.41
-2631.37
-2617.42
-3866.05
-1293.58
-1586.21
-448.823
-584.921
-11033.4
-2677.03
-621.308
-139.823
-35.8047
-2931.91
-790.391
-213.832
-48.6059
-11.1114
-10802.2
-2590.73
-598.019
-133.812
-34.1467
-3043.09
-894.873
-222.382
-52.282
-13.3663
-10158.5
-2405.56
-551.165
-122.708
-31.2078
-2947.05
-860.003
-212.03
-49.364
-12.5099
-9232.28
-2153.06
-490.6
-109.134
-27.8109
-2786.11
-795.288
-192.625
-44.2165
-11.0702
-7840.51
-1807.68
-412.63
-92.3647
-23.7563
-2508.25
-688.462
-163.701
-37.2186
-9.25702
-4254.72
-1047.81
-248.14
-56.9845
-14.9636
-1259.48
-326.864
-72.9674
-15.4733
-3.64218
-6009.91
-1439.08
-334.561
-75.8126
-19.7203
-1754.34
-467.632
-109.224
-24.5682
-6.08484
-2644.29
-667.808
-160.513
-37.2514
-9.84865
-800.846
-212.255
-46.7548
-9.49672
-2.14502
-955.724
-244.603
-59.3597
-13.9041
-3.70665
-359.649
-87.732
-18.364
-5.02981
-0.783734
-180.352
-2585.93
-7186.41
893.257
-8002.74
-3545.59
-7855.12
-3691.05
-13512.6
-7372.98
-15730.7
-8545.6
-58.8901
-196.07
-304.496
-358.177
-308.478
-99.6212
-97.584
-320.822
-495.159
-572.079
-481.547
-135.833
-43.145
-39.1626
-133.5
-121.711
-170.999
-166.269
-108.505
-127.38
-46.4915
-95.3485
-90.4823
-98.2452
478.599
1455.95
2884.94
2311.42
2075.42
905.679
576.758
1659.17
2852.85
3219.65
2758.53
1186.81
-52.8966
-44.4856
-33.5248
-20.7957
-7.04358
-176.248
-148.378
-111.948
-69.5094
-23.5552
-273.578
-230.176
-173.56
-107.72
-36.4971
-321.532
-270.258
-203.586
-126.26
-42.761
-276.842
-232.61
-175.13
-108.546
-36.7455
-90.8919
-77.6701
-59.1932
-36.8844
-12.4929
-87.5423
-73.5123
-55.318
-34.2758
-11.6024
-288.014
-242.094
-182.378
-113.111
-38.3077
-444.142
-372.958
-280.707
-173.988
-58.9097
-512.369
-429.525
-322.787
-199.86
-67.6362
-430.614
-360.36
-270.392
-167.249
-56.5749
-122.525
-103.449
-78.1531
-48.5135
-16.4304
-38.7942
-32.6724
-24.6582
-15.3128
-5.18904
-35.2404
-29.7063
-22.4408
-13.9465
-4.72811
-120.106
-101.229
-76.4616
-47.5155
-16.1075
-109.544
-92.3678
-69.8004
-43.3916
-14.7123
-153.772
-129.541
-97.7995
-60.7514
-20.5889
-149.517
-125.945
-95.0753
-59.0558
-20.0144
-97.6858
-82.4273
-62.3206
-38.7464
-13.1328
-114.444
-96.3079
-72.6293
-45.0748
-15.267
-42.1736
-35.8998
-27.3235
-17.0391
-5.775
-85.4591
-71.7092
-53.9094
-33.3672
-11.2826
-81.6639
-68.9957
-52.0496
-32.1984
-10.8607
-87.9748
-73.6862
-55.2363
-34.0793
-11.4986
419.913
344.682
254.999
156.747
52.9539
1269.52
1036.58
765.397
471.185
159.477
2478.18
1999.87
1473.68
913.752
311.569
1966.52
1598.36
1189.28
748.937
265.581
1773.86
1439.33
1068.39
668.748
229.582
798.036
659.384
493.368
307.171
103.901
506.73
416.443
308.24
189.424
63.9672
1451.25
1188.28
878.321
540.318
182.742
2475.94
2014.86
1486.54
916.833
311.212
2777.25
2253.67
1663.88
1030.73
352.401
2372.29
1921.03
1418.92
881.043
301.14
1028.27
839.021
624.059
389.256
133.183
88.0074
228.332
342.557
403.968
364.209
175.093
141.436
368.377
547.725
626.458
531.202
176.039
63.5086
54.7666
155.53
139.475
194.146
186.186
128.239
144.048
72.3644
91.9402
172.143
126.14
-380.547
-1318.59
-2645.47
-2016.47
-1747.64
-561.025
-544.092
-1612.18
-2746.86
-3034.3
-2492.01
-868.021
79.2822
66.9285
50.6419
31.5176
10.6943
205.518
173.289
130.96
81.4273
27.617
308.107
259.58
196.016
121.802
41.2963
363.103
305.685
230.664
143.255
48.5556
327.461
275.762
208.126
129.266
43.8132
159.363
135.943
103.679
64.7867
22.0092
127.301
107.347
81.137
50.4547
17.112
331.175
278.851
210.45
130.718
44.3099
491.87
413.642
311.811
193.512
65.567
561.796
471.712
355.085
220.159
74.5622
475.787
398.952
299.967
185.853
62.9267
159.046
134.565
101.93
63.4385
21.5227
57.2459
48.3615
36.6198
22.8031
7.73918
49.3761
41.7228
31.6
19.6804
6.67963
140.079
118.219
89.4218
55.6356
18.8735
125.647
106.065
80.2484
49.9375
16.9421
174.76
147.404
111.434
69.2979
23.5004
167.58
141.323
106.816
66.4172
22.5225
115.58
97.6597
73.9499
46.0378
15.6168
129.574
109.204
82.4885
51.2636
17.3767
65.6692
55.9381
42.6552
26.6711
9.0604
82.6975
69.699
52.6411
32.7051
11.0816
155.701
132
100.157
62.3832
21.1568
113.513
95.6746
72.2304
44.8482
15.1928
-331.43
-269.728
-198.055
-121.191
-40.8768
-1145.86
-932.178
-686.394
-422.049
-142.813
-2261.54
-1815.81
-1333.57
-826.308
-281.835
-1692.12
-1358.29
-1000.62
-627.74
-224.329
-1463.2
-1163.09
-847.026
-522.922
-178.139
-468.756
-363.697
-253.769
-147.369
-47.0834
-477.38
-391.802
-289.712
-177.953
-60.0801
-1409.38
-1153.49
-852.48
-524.513
-177.426
-2380.35
-1934.06
-1425.39
-878.858
-298.351
-2606.78
-2106.3
-1549.53
-958.066
-327.538
-2124.26
-1703.79
-1247.86
-770.635
-262.807
-730.164
-576.245
-415.65
-253.802
-85.9706
-2288.11
-1609.67
206.576
610.02
665.485
938.933
521.248
-10957.3
-2303.15
-3568.26
-1559.99
269.137
-3814.46
558.303
1793.16
490.628
-5463.61
-2503.99
-1051.5
-622.797
-2962.98
-1133.09
-175.568
-272.599
1125.5
958.99
-674.714
-583.562
-8785.11
-3952.1
-3993.72
-2127.93
-2837.41
-2729.37
29.1492
921.191
-203.31
-1312.82
-1020.54
-798.678
-720.326
-573.017
-1142.95
-817.527
-600.981
-419.487
-159.664
193.949
169.982
131.402
82.1208
27.8136
544.479
454.933
341.153
211.08
71.4003
595.692
498.948
374.556
231.73
78.4301
838.914
701.406
525.899
325.18
110.009
468.904
394.991
297.813
184.709
62.6343
-7504.07
-6530.7
-5245.08
-4654.01
-4239.85
-1626.15
-1019.7
-868.022
-745.41
-298.535
-2657.55
-1917.06
-1468.91
-1094.71
-479.909
-1061.83
-711.391
-589.09
-456.693
-144.822
241.045
201.138
149.484
91.3092
31.4056
-3081.95
-2376.36
-1756.15
-1148.57
-415.359
496.631
412.114
305.35
186.496
62.4972
1527.36
1220.59
894.269
554.94
191.302
440.745
369.178
274.992
167.908
56.0023
-3368.4
-3081.44
-2484.24
-2324.62
-2273.16
-1856.56
-1281.48
-964.437
-698.882
-259.695
-855.389
-656.353
-477.711
-304.788
-105.781
-501.523
-378.937
-272.548
-172.765
-59.9825
-2424.81
-1871.6
-1369.47
-875.669
-309.286
-948.049
-729.664
-521.226
-316.367
-98.7639
-130.478
-88.5346
-59.4746
-37.5492
-12.6814
-218.794
-161.823
-111.639
-67.1438
-22.0068
994.04
821.229
610.286
375.929
127.234
856.74
715.864
535.87
330.746
111.872
-562.991
-440.739
-319.494
-198.577
-68.2022
-483.919
-375.268
-269.623
-166.476
-56.7593
-5435.76
-4071.37
-3321.88
-2959.7
-2276.7
-2924.54
-2168.81
-1625.14
-1133.17
-447.358
-2889.53
-2229.47
-1713.55
-1322.63
-516.72
-1580.51
-1208.21
-901.91
-621.113
-270.969
-2351.32
-1833.46
-1338.85
-842.509
-288.755
-2127.8
-1356.5
-1000.85
-693.41
-102.114
50.8566
63.4444
56.2361
35.8051
12.7847
826.385
693.481
520.665
321.716
108.814
-147.586
-93.4105
-58.4751
-34.8856
-9.76169
-74.0551
-176.859
-249.714
-341.47
-495.904
-679.962
-25234.8
-20922.1
-19303.9
-23027.9
-17968.8
-14036.2
-16198.1
-12459.9
-22821.8
-18366.9
-19381.9
-16605
-16801.1
-13103.9
-15883.6
-21463.4
-18893.4
-16526.9
-18726.9
-16080.6
-12590.1
-14052.3
-10611.2
-21128.9
-17970.3
-19114.8
-16839.6
-16556.8
-13833.5
-16122.4
-16867.9
-15493.2
-13366.8
-14549
-13525.6
-11251.6
-11854.2
-10085.9
-17471.9
-16208.7
-16582.5
-15689.1
-15098.8
-13083
-15052.7
-11693.1
-11217.8
-9590.72
-10003.5
-10384.1
-9711.68
-9074.32
-8877.97
-12713.8
-14069.2
-12329.9
-13594.8
-11795.1
-10798.7
-13018.9
-7535.45
-7408.3
-6202.82
-6329.98
-7271.95
-7334.33
-6067.67
-6171.61
-8819.52
-10792.4
-8680.9
-10177.9
-8608.75
-8396.65
-9797.39
-2746.48
-2724.2
-2239.34
-2270.23
-2731.15
-2861.28
-2191.03
-2168.95
-3548.32
-4522.56
-3479.58
-4051.95
-3499.17
-3499.27
-3898.12
-9052.84
-9005.28
-13065
-14414.5
-8940.21
-8357.01
-12096.6
-10059.3
-7814.34
-4688.03
-7890.21
-4632.11
-7885.74
-7970.45
-4728.78
-8639.36
-8362.05
-12089.8
-13096.3
-7983.8
-6903.35
-10931
-8863.89
-5649.12
-1852.67
-5521.59
-2070.92
-4644.06
-4439.42
-2393.27
-7309.87
-7086.38
-10223.6
-10836.1
-6951.78
-6216.9
-9470.67
-8310.38
-3176.93
-1696.07
-3058.34
-2233.25
-2840.37
-3077.64
-2824.02
-5424.57
-5344.41
-7546.26
-7782.56
-5342.97
-5077.06
-7300.8
-6996.92
-3169.08
-1613.05
-3272.33
-2387.87
-3380.61
-3854.64
-3125.1
-3442.91
-3398.59
-4855.07
-4943.04
-3275.04
-3165.57
-4753.56
-4602.97
-1926.41
-1271.59
-2042.06
-1912.92
-2365.25
-2783.48
-2443.81
-1195.25
-1182.74
-1733.84
-1758.43
-1160.31
-1171.62
-1694.6
-1623.09
-485.795
-561.841
-604.076
-874.059
-847.218
-1044.01
-1034.5
8414.35
25243.9
6481.3
28099.7
3523.58
29545.8
5913.27
46217.8
9616.16
57889
9929.96
41431.8
10647.7
36983.4
10407.5
31191.3
4896.64
2805.6
14895.7
7251.55
4547.68
2143.05
15831.5
6433.9
6523.7
4966.27
19069.2
14320.6
4416.66
3623.74
19537.5
15193.6
10034.5
3700.15
7841.25
2993.95
3667.38
9540.71
45779.4
13878.7
13861.7
6183.97
54872.1
17014.5
12646.3
5659.45
30827.9
10217.5
15767.4
7061.3
25537
8065.24
7074.96
3783.94
10901.5
4503.09
6584.92
4019.57
11639.1
4513.83
8558.94
5401.18
7449.41
3244.8
12583.3
4634.82
4891.43
1839.17
15916.1
12398
9340.95
8620.61
16580.4
14669.3
8823.56
9451.9
9090.66
8159.21
12632.8
11164.3
6697.23
5888.15
3646.14
3155.64
6320.12
6324.88
3343.15
3360.8
6675.67
5467.51
3691.78
2669.42
8059.28
4603.67
8387.39
8999.77
11323.9
8562.62
12456.9
15796.6
5615.97
2473.27
5199.04
5261.89
3026.29
1094.81
2262.87
1972.27
8907.98
17359.9
6242.16
19488.4
9652.94
17358.6
7427.98
20484.5
12249.1
16876.7
10086.7
20492.9
12044.5
12952.9
10552.9
10858.6
12485.9
8555.85
10629.4
15376.9
18494.5
26555.7
11729.3
10611.1
10873.5
13753.5
20958.3
21643.7
21022.6
25261.1
25619.7
20850.9
20909
25070.2
25189.1
18856.3
19614.6
23715.3
24149.7
10716.3
11442.3
11717.5
12514.2
14549.6
15052.4
17554.9
17541.6
22638.4
23269.3
9653.72
10850.6
11706.1
13229.2
13756.6
15709.7
16399.3
18789.8
21874.3
24615.1
11404.6
7811.27
9094.23
8842.21
12074.5
13108.1
9721.28
12282.1
8796.04
8617.2
11372.1
8244.49
3999.95
6283.42
1456.13
2217.06
5930.47
8944.87
2107.95
3185.28
3631.69
5802.38
1243.62
2027.57
8694.22
7301.22
9144.25
5855.73
12429.8
9013.97
14457.2
9920.8
4226.56
4590.51
5194.91
3048.55
2978.46
3124.66
3308.51
2477.56
18499.7
12310.6
4121.07
20016.5
12746.2
4434.43
18051.5
11981.1
4173.22
19797
12664.9
4345.1
16985.9
11126.5
3756.85
19173.4
12359.4
4278.2
8558.16
5163.99
1496.3
11051.6
7594.94
2499.02
13347.1
9345.6
3174.41
15217.2
10080.2
3356.73
18275
11754.5
4156.42
9060.46
5210.5
1789.42
10209.5
6797.07
2449.29
12076.7
8115.93
2872.3
14447.5
9402.17
3284.16
17409.5
10452.2
3686.21
-570.211
941.011
277.169
2575.78
1972.63
1936.14
5036.01
4348.23
591.143
903.686
624.175
943.038
310.605
859.182
579.218
1263.66
1606.02
1037.09
3599.55
2624.61
1575.93
2462.74
2845.65
324.374
6378.35
1659.5
-4908.11
-1424.02
241.617
93.32
-592.238
-631.686
9604.5
3808.53
2509.66
1348.33
9444.42
3816.52
2701.04
1559.68
9010.97
4056.05
3427.56
2139.07
2522.86
1404.34
998.874
864.093
13472.9
11667.4
5721.3
7341.36
16149
15009.4
7737.98
9241.13
4796.48
5819.25
10705.1
8649.94
3438.18
4620.8
1693.96
2434.01
4992.47
5846.22
2595.45
3079.83
2481.75
3683.88
1104.63
2028.94
3970.32
2455.71
4466.36
2559.4
7156.36
3654.61
6121.67
3412.93
2128.95
1556.13
2980.44
1669.31
921.091
817.672
1730.51
935.765
10894.7
6484.49
4786.47
4472.06
10799.1
6511.45
4662.58
4348.93
10917.7
6378.5
4659.31
4035.91
13526.3
14027.9
11780.5
8415.54
4156.33
8469.51
9383.23
9147.25
7883.94
4675.55
12163.7
10079.4
7716.81
5682.08
3121.79
4809.67
4177.49
4393.9
4688.45
4909.19
4203.42
4325.5
4659.23
4910.1
4256.74
4178.07
4562.69
9486.77
9020.53
8038.74
6822.4
5437.97
5222.16
4648.96
4520.42
3685.09
4404.8
7120.04
8051.19
5494.88
6139.31
4369.67
4833.67
3707.79
4191.06
2740.44
4086.28
4971.79
3997.77
3384.87
2048.25
8045.44
6057.07
6422.89
4202.79
2281.01
1425.5
3421.51
3043.88
4064.64
1898.39
1674.61
919.972
5693.29
3349.83
2104.81
1445.94
3007.23
1321.8
1356.31
660.533
1562.21
1792.99
1611.25
2615.41
2439.62
2811.95
1914.18
3358.13
1925.86
1293.65
1167.87
1891.72
705.691
218.647
31.979
332.529
3133.52
1455.16
423.458
3104.34
859.067
232.579
3213.07
1605.13
504.869
3150.01
912.83
260.197
3200.07
1644.94
451.729
3095.84
898.852
223.376
6277.1
3609.9
1031.38
4651.4
2650.29
786.119
3916.06
2112.05
640.128
3283.16
1664.25
439.799
3045.11
853.991
183.517
6765.15
3704.73
1214.12
5228
2908.15
976.537
4153.85
2252.2
749.005
3418.34
1554.95
462.544
3292.67
921.337
302.701
1308.04
450.176
211.913
55.3368
523.936
187.254
92.9965
29.1556
1330.16
471.816
243.845
78.3504
608.994
236.06
142.01
60.871
1482.83
545.295
305.196
112.371
961.8
419.362
196.431
78.3692
611.509
320.969
95.2808
21.0223
560.115
325.301
133.169
56.387
1142.99
471.086
218.815
48.3008
1059.1
425.451
241.501
33.6606
1503.54
566.448
325.74
100.677
1307.8
487.125
305.563
36.0578
793.945
365.782
154.735
34.8764
768.179
338.88
185.861
43.4685
511.943
273.372
133.053
61.4521
473.28
244.117
139.045
63.453
1647.35
556.819
278.48
52.5988
1644.81
540.336
329.521
18.0508
1621.21
556.138
295.481
61.5471
1569.13
517.203
325.483
17.874
1606.03
559.996
334.262
81.1952
1403.52
464.343
317.392
28.979
1463
520.76
344.571
117.444
1533.38
511.764
392.827
47.4382
1108.11
395.212
267.13
61.6626
1291.35
391.615
254.331
3.8794
492.59
138.371
79.7619
8.89599
1274.57
392.038
253.785
7.43151
502.518
143.838
84.2943
12.9181
1210.67
378.135
254.227
14.2825
491.731
144.065
89.0593
17.9909
1028
321.045
238.874
23.7112
438.145
126.882
92.5858
24.2473
900.214
292.49
219.242
37.1205
402.012
125.073
95.1975
30.9096
654.781
249.535
141.644
26.2173
344.532
146.771
73.9128
30.8087
726.598
247.468
172.34
31.0121
360.756
130.858
84.7733
32.8856
538.066
237.2
122.518
31.1948
313.265
152.321
68.5326
32.8808
370.904
197.475
106.696
50.2758
254.951
144.019
72.7286
42.2589
13.3786
3.70159
1.28087
0.523892