/*--------------------------------*- C++ -*----------------------------------*\
| =========                 |                                                 |
| \\      /  F ield         | OpenFOAM: The Open Source CFD Toolbox           |
|  \\    /   O peration     | Version:  2412                                  |
|   \\  /    A nd           | Website:  www.openfoam.com                      |
|    \\/     M anipulation  |                                                 |
\*---------------------------------------------------------------------------*/
FoamFile
{
    version     2.0;
    format      ascii;
    arch        "LSB;label=32;scalar=64";
    class       volScalarField;
    location    "1";
    object      gradTy;
}
// * * * * * * * * * * * * * * * * * * * * * * * * * * * * * * * * * * * * * //

dimensions      [0 -1 0 1 0 0 0];

internalField   nonuniform List<scalar> 
5712
(
14380.5
7906.43
24873.4
16379.7
24012.8
20549.1
34917.2
43746.3
53358
68190.9
28478.1
25177.4
17501.1
12137.6
11633.1
6632.33
23331.5
20238.2
21318.1
20621.5
26663.3
24952
31244
26278.9
8324.37
5651.43
4366.42
3016.6
11972
7543.28
6681.23
4346.15
24675.9
25694.2
21579.9
16728.4
17102.1
13753.8
14734
14160.1
19407.5
19259.1
40525.4
44861.3
28377.8
30281.6
21569.4
17017.4
21465.8
14967.4
9147.86
7994.39
7136.46
11582
3576.97
5143.7
9418.62
15279.4
6004.04
8584.43
9448.87
18135.9
7309.73
12618.7
2215.33
8378.13
336.432
5960.96
19090.9
23131.9
20613.8
23229.3
23832.2
23952.2
24890.9
23789.4
18935.5
23000.1
18499.2
22485.5
20917.2
23262.8
20656.4
23240
25422.8
23714.2
25637.7
23679.9
17935.1
23144.1
16407.4
23117.5
20716.1
23070.4
26062.5
38107.4
21799.9
27180
26029.5
42456.1
19552.7
20202.7
25844.1
35788.9
18795.5
18466.3
25796.5
34704.8
6027.84
7874.01
16621.4
28182.3
7081.77
8149.81
20208
31032.2
8200.26
8612.5
24297.2
34031.3
26687.9
27952.5
23844.2
22877.7
33551.6
28286.3
25502.6
23625
20804.3
38880.4
25870.3
24753
21771.6
24107
49200.2
2021.65
2678.19
5813.76
12653.9
2819.28
4025.62
7448.43
14244
4121.14
3968.33
9702.03
16275.2
26940.7
25708.9
23117.5
21099.6
20656.8
17387.3
15581.6
13225.7
13216.7
20363.7
23918.3
20719.5
22823.7
20536.7
20096.1
17784.3
18358.2
15587.6
15442
21625.6
23944.2
25177.3
24998.6
27178.3
23369.1
21263.9
23973.3
22711.6
22605.4
22619
22196.5
21743.7
25516.3
27895.1
25432.9
27737.7
24444.9
23780
24287.5
23714.1
22378.2
22421.9
22729.1
22650.4
20186
19736.5
14215
17074.4
20426.4
19449.6
14812.8
18018.2
19548.1
19381.5
13964.5
16928.5
19704.7
19149.1
13789.3
16461.6
2139.11
1612.85
1114.23
1095.9
862.831
842.319
3290.56
2076.68
1493.65
2607.71
2184.45
1751.83
3270.23
2791.42
2764.71
4716.95
3773.3
3226.35
22839
18481
15793.6
19635.6
16885.9
14993.4
13783.3
12155.2
11222.5
10433.6
9064.71
8296.7
7730.97
5100.9
3791.69
18088.2
15165.3
13314
18658.7
15812.2
14184.6
14331.2
11529.1
10088.4
10827.9
8653.77
7612.21
7817.47
5134.3
3829.88
30040.3
30618.4
32367.1
29252.1
29893.5
29289.8
36176.9
30510.9
18739.8
20071.1
18808.9
18141.2
24968
21404.7
24668.5
19062.5
27135.5
27952.6
23057.9
25504
29491.4
26337.2
30727.9
32136.3
33081.1
35765.8
26154.1
27005.4
22643.5
22439.5
25582.9
24816.1
16523.2
9381.08
15614.5
10377.1
16097
9195.83
15101.9
10054.8
14743.8
8486.41
14093.6
9545.03
13900
9903.27
13373
9866.42
22927.4
17455.7
22827
17871.9
25969.7
22666.8
26513.1
22661.2
20800.2
13746.4
21282.7
13077.7
23524.1
18121.7
24310.5
18182.7
27474.2
22761.4
28148
22798.1
20427.7
14047.5
20372.3
14105.4
12107
8254.18
10283.6
6712.97
11016.7
7365.99
9489.58
6139.4
12470.4
8746.23
10651
7035.7
12582.2
9042.93
10752.8
7207.22
2649.56
1411.34
5003.05
2978.33
2721.25
1599.2
5061.82
3238.97
2918.83
2086.37
4994.93
3649.33
12663.7
21897.8
8195.67
7451.97
5533.14
22258.9
13816.3
7564.45
6737.52
4351.94
21572.6
15164.1
10906.5
7938.47
5248.22
933.583
799.088
2101.36
1825.31
1146.09
835.781
2465.46
2114.55
1594.47
1251.82
2917.67
2510.84
22187.5
20059.8
13552.8
11550.5
8214.25
7221.8
6240.92
5399.88
3967.25
3436.22
19352.5
15757.5
13602.4
10907.2
9873.16
8218.12
6935.2
5970.09
4766.37
4715.23
13037.2
9537.96
13349.7
9098.59
17300.3
12191.3
17855.1
12231.1
10501.4
7678.59
10300.6
8102.36
13967
8769.25
14178.4
8943.94
18958.9
12732.3
19032.9
12924.8
10650.9
7288.76
10879.7
7636.1
7429.02
6066.2
5221.89
6006.62
7471.95
6286.25
5291.39
5861.96
7426.79
5937.2
5113.05
6259.14
7820.92
6041.69
5310.09
6205.4
1350.14
997.333
736.215
4776.6
2250.81
1643.16
1267.86
1085.46
866.574
5110.37
2656.14
2027.72
1617.98
1556.37
1455.35
5539.08
3326.2
2738.5
16349.5
13312.1
11500.2
9662.33
8047.06
7149.78
6509.14
5507.69
4993.53
5279.57
4412.03
3984.36
6567.85
4409.57
3687.74
12168.7
9741.49
8312.38
8519.44
6845.93
5932.38
6935.93
5492.79
4648.61
6107.68
4813.87
4137.13
8610.32
5506.66
4654.14
4881.71
2602.94
1507.57
947.538
5423.73
2789.41
1565.4
980.101
4743.15
2568.06
1506.23
956.721
5375.61
2794.97
1591.85
1003.55
4498.1
2520.73
1546.75
974.797
5210.57
2814.83
1664.23
1033.88
5427.02
2907.04
1634.25
1030.15
5537.7
2997.65
1662.61
1038.1
4745.71
2655.83
1615.74
1005.58
4012.41
2399.22
1529.79
924.529
4198.68
2440.01
1561.98
954.296
3679.1
2256.44
1476.57
887.925
5063.53
2806.93
1644.77
1025.47
4221.67
2508.26
1563.87
941.224
5233.48
2910.55
1678.6
1038.72
4338.48
2587.18
1600.84
956.803
3789.97
2292.66
1429.82
898.218
2741.36
1943.49
1330.41
819.646
3690.52
2264.53
1434.44
900.599
2735.05
1942.88
1332.67
822.588
3543.99
2224.89
1454.94
906.101
2800.03
1972.6
1345.67
831.209
3412.66
2167.5
1446.27
901.745
2839.35
1989.43
1381.4
842.514
3254.61
2113.07
1404.25
849.07
1743.82
1635.1
1093.19
331.543
736.638
1478.78
990.387
306.234
1860.83
1680.49
1115.31
348.013
893.26
1529.84
1008.04
312.314
2055.45
1751.89
1133.84
346.486
1145.97
1615.59
1028.38
315.249
2354.2
1847.29
1174.56
370.764
1478.68
1729.56
1066.28
328.948
2807.02
1981.82
1241.77
415.564
1901.19
1850.24
1104.09
340.338
3171.67
2151.67
1283.19
399.606
2035.95
2010.91
1182.33
356.628
3092.29
2077.14
1254.28
399.401
2028.44
1948.23
1141.52
347.203
3191.2
2202.7
1293.75
379.218
2011.41
2061.04
1204.92
355.72
3179.32
2256.56
1328.41
385.61
2114.86
2116.51
1235.65
362.366
608.4
358.777
199.228
98.0621
29.2538
617.307
360.779
199.788
98.2466
29.2996
618.929
361.823
200.463
98.5564
29.3845
627.765
364.492
201.391
98.9023
29.4752
623.192
364.731
201.804
99.1045
29.5299
630.043
369.685
203.86
99.9324
29.7539
652.883
377.907
207.56
101.487
30.1787
662.657
384.937
211.067
103.01
30.5998
642.484
372.813
205.249
100.511
29.9099
641.846
372.902
205.313
100.536
29.9147
623.741
368.022
203.28
99.7047
29.6894
633.501
370.099
204.134
100.048
29.7805
653.367
377.81
207.522
101.472
30.174
649.812
377.506
207.485
101.464
30.1711
661.129
385.119
211.297
103.128
30.6341
658.301
384.472
211.129
103.075
30.621
594.902
356.12
198.556
97.8549
29.2037
587.214
354.4
198.113
97.7189
29.1709
600.719
358.454
199.483
98.2142
29.2967
593.191
356.631
198.953
98.0353
29.2521
608.283
361.471
200.686
98.6807
29.4171
605.053
359.873
200.115
98.4685
29.3621
619.403
365.089
202.105
99.2315
29.5597
619.068
363.557
201.467
98.9752
29.4897
625.038
367.734
203.177
99.6566
29.6727
12495.7
19586.6
12955.2
19827.3
13712.5
20215.5
14614.9
21185.8
15436.8
22957.6
13367
16432.6
14071.4
18168
13111.9
15970.4
12894.2
15820
10193.5
1843.86
411.173
93.7574
16.7241
12155.4
3393.38
836.747
192.419
34.0185
10313.7
1801.9
394.874
89.3037
15.8505
12254.1
3377.15
822.91
186.973
32.9671
10525.6
1773.35
379.598
84.8506
14.9763
12466.2
3367.82
807.136
181.499
31.8124
10751.7
1727.73
361.153
80.0812
14.1116
12734.6
3351.89
792.189
177.139
30.9981
10819.5
1672.91
348.111
77.7352
13.8039
12871
3314.18
783.711
176.492
31.1018
9935.51
1834.25
425.686
101.458
18.719
11100.7
3257.39
837.229
200.383
36.785
10364.1
1779.87
392.674
90.5375
16.3707
11841.4
3301.48
813.995
188.541
33.8542
9684.52
1867.33
446.449
108.756
20.3559
10784.4
3226.64
848.309
207.354
38.6718
9550.16
1825.85
438.605
107.798
20.3237
10632.6
3175.24
840.866
207.286
38.9004
38714.3
55102.6
49049.3
36158.6
19747.5
20832.4
31538.6
31873
21582.8
23274.1
34839.2
47031.5
51820.7
71106.8
26204.2
29025.7
20950.2
20574.3
14425.8
14903.2
3833.4
2521.3
375.469
256.323
317.2
257.55
350.623
3551.12
3326.44
2007.24
2555.44
2126.43
892.832
1389.87
1089.93
674.441
786.158
612.074
3146.01
1556.66
794.081
724.118
989.222
823.836
586.755
564.09
469
411.504
593.926
557.599
3343.04
1926.89
2069.63
1286.68
993.587
1554.66
600.173
412.234
686.903
7780.99
7504.19
7049.1
7937.64
12726
5434.41
5737.07
5734.85
6267.76
7033.38
967.854
1336.22
1585.49
1739.59
1814.42
667.741
937.161
1127.75
1247.68
1305.64
824.184
1151.59
1379.01
1519.13
1585.76
671.62
943.94
1136.8
1257.61
1315.58
907.072
1259.23
1500.24
1648.43
1719.36
7603.76
7674.5
6991.35
7289.35
11164.9
6876.65
6702.6
6148.64
6197.97
7138.36
4474.17
4897.84
4860.12
5016.69
5326.7
5336.26
5353.59
4970.01
4870.38
5181.17
4493.66
4610.5
4303.34
4187.95
4335.4
2162.31
2713.64
2976.75
3125.09
3214.11
3196.96
3700.51
3819.35
3915.09
4036.08
2562.74
3067.6
3235.56
3319.5
3383.84
1678.28
2194.45
2483.31
2642.57
2720.85
1922.29
2446.8
2708.91
2846.94
2918.32
1535.65
2032.67
2321.33
2479.67
2553.77
6859.43
7126.09
6668.67
7147.49
11055.6
3614.21
4217.57
4395.21
4627.38
4887.83
1957.51
2522.39
2826.41
3005.66
3105.74
1801.8
2355.26
2671.3
2861.74
2964.81
2397.5
3006.35
3306.05
3511.33
3652.87
2039.74
2641.18
2975.12
3187.65
3307.79
1483.54
1986.7
2299.7
2493.4
2591.97
1429.48
1921.74
2228.94
2413.4
2504.87
1200.02
1637.05
1918.46
2082.64
2159.26
1059.12
1458.3
1723.71
1882.72
1957.8
1496.61
1994.79
2294.2
2466.02
2549.4
1412.79
1899.03
2200.77
2378.47
2465.26
7029.1
7055.86
6658.34
7387.36
11614.4
4322.78
4840.45
4997.52
5400.24
5901.72
5017.91
5749.36
5660.23
6128.58
6806.26
3084.28
3771.67
4079.26
4372.2
4586.05
2435.03
3091.29
3429.83
3670.73
3815.82
3685.14
4345.51
4523.4
4811.82
5019.17
1515.72
2026.51
2341.38
2533.39
2630.68
1059.49
1455.96
1719.49
1879.24
1955.84
1718.59
2264.73
2585.6
2780.36
2882.84
21587.1
14203.6
22789.1
17397.3
27077.5
39373.7
29090.9
41260.6
23719.9
22828.3
21092.2
21519.2
24419.3
23878.4
30673.9
25715.7
16995
15443.5
7588.64
6184.69
19735.6
16173.3
10480.2
7155.89
25565.2
28025.2
22999.4
20205.9
24633.4
16353.7
14846.4
14267.9
19852.2
19413.7
40981.5
45125.4
28285.1
30317.3
22432.5
17256.7
22503.8
15205.6
9872.94
8148.56
16721.5
20329.2
6721.21
8252.73
17783.2
22622.7
8971.23
11504.2
15322.8
22864.6
9494.39
14901.3
2606.77
9211.63
368.849
6128.02
20567.5
22315.6
20914.5
22867
22987.4
22574.7
24344
23080.6
20053.7
23052.2
21582.4
22408.7
21048.1
23104
20686.2
23191.4
25191.5
23375.8
25583.6
23574.5
18378.8
23194.3
16507.3
23135
21659.6
24454.9
26473.9
38595
23294
29560.6
26660.6
43193.5
20025.1
20877.6
26071.4
36070.5
18928.5
18655.6
25870.2
34800.6
22534.8
25635.1
30130.9
42947.1
21355
22934.5
31016.5
42529.5
18413.4
18871.3
31158.1
40662.2
20752.1
21783.7
22209.3
23718.1
36560.7
21333.7
19318
23256.4
21751.8
42067.4
21435.6
21190
20542.8
24933.8
50204.1
15233.7
14240.8
13052.1
16795.1
14788.3
14018.4
13310.6
17352.5
13534.5
12066.1
13180.1
17444.6
20527.1
19374.1
18469.8
17199.8
20717.2
18518.6
16857.4
14669.6
14591.8
19791.4
20379.9
18520.7
20138.9
19116.2
19161.4
17413.5
18874.8
15935.4
15626.6
20235.6
22627.4
24049.8
24319.1
26488
21755.7
20149.5
23151.9
22088.9
22292.9
22213.7
21587.9
21117.1
25222.1
27605.3
25350.3
27655.4
24080.1
23520.2
24183.6
23639.3
22244.3
22233
22692.4
22599.1
20152.6
19558.4
14273.7
16966.7
20418.8
19210.3
14940.3
17715.1
19533.9
19292.2
13991.1
16886.2
19701.4
19122.7
13798
16449.4
13479.1
14569.4
5257.29
5371.39
13120.1
13100.8
6075.82
6297.18
10471.6
10011.9
6697.76
6441.04
18249.8
16825.1
17133.8
16495.5
15908.2
15019.4
12226.5
10953.3
8542.38
6436.29
17676.8
16445.1
19133.7
17713.9
15169.6
13443.1
11871.2
10303.9
7561.18
5611.68
24881.2
24427.2
30153.9
26427.3
27134
25738.8
36450.8
29214
19994.2
15264.4
21835.7
16618.9
20815.6
15305.9
22706
16604.4
23497.3
21236.8
20339.5
19308.3
21003.9
22749.5
29358.6
31731.2
32478.2
35599.6
24462
26502.4
21343.9
22069.5
23716.1
24257
12444.4
9697.04
13605.4
10132.1
12111.7
9456.33
13298.2
9856.95
11477.3
8723.84
12605.7
9343.62
13041.7
9699.58
13102
9786.7
18830.7
16351.6
20931.1
17093.5
22959.4
20846.2
25138.6
21655.9
18763.6
13350.4
17125.1
12797.9
22595.9
17682.6
24036.4
18037.7
26830.1
22253.8
27964.8
22638
19424
13774.5
20073.9
14007.8
11546.7
8376.49
10302.3
7010.22
10634.1
7995.49
9906.67
6850.01
12091.7
8728.76
10588.3
7154.07
12454.3
9021.45
10724.4
7244.77
10592.5
10650.6
8879.07
8453.08
10089.5
10305.4
8568.16
8158.92
9396.17
9527.18
7790.14
7357.36
16160.4
20822.9
13951.2
9624.88
7494.63
20204.8
17167.2
15144.9
9607.22
7041.51
20096.8
15915.7
12472.1
9764.64
6778.81
11551
12853.5
8698.41
9320.46
10925.9
11711.4
8221.08
8675.17
9760.26
9974.07
7104.91
7051.99
19187.8
17156.5
15038.3
13341.5
13359.5
12951.1
9529.75
9461.06
6837.78
6630.71
17719.1
14603.2
13958.3
11358
11413.9
9918.07
8984.89
8226.59
6370.01
6544
12873.7
9746.7
13190.1
9220.91
16346.3
11771.6
17311.4
12029.4
10655.4
8019.74
10749.5
8819.75
13834.4
8797.73
14128.3
8945.28
18676.9
12629.5
18945.9
12893.1
10656.2
7394.6
10859
7653.14
7751.26
6514.47
5607.79
6591.38
8270.32
7263.83
6134.56
7032.28
7525.86
6100.38
5277.33
6532.6
7849.34
6088.72
5369.63
6287.27
15467.4
15889.3
17121.8
14558.6
13557.1
13876.1
16021.9
13686.1
11082.5
11219.5
13769.8
11910.7
15206.6
13920.3
12378.7
11674.7
12654.6
12316.6
9961.21
9309.54
13006.9
11334.7
11785.2
10930
9532.14
9101.22
9145.73
8695.3
9044.63
8395.64
13508.1
11180.4
5866.37
3225.27
1836.95
1135.68
6040.04
3289.4
1856.97
1155.1
5642.8
3148.8
1808.67
1131.03
5897.95
3229.58
1845.79
1158.96
5271.46
3038.37
1816.07
1128.31
5597.27
3160.54
1876.79
1163.53
5632.59
3118.18
1775.02
1116.98
5601.35
3069.37
1709.67
1068.26
5123.44
2942.73
1788.46
1112.33
4378.11
2659.06
1680.04
1013.36
4892.01
2877.57
1799.3
1089.49
4310.7
2657.67
1687.15
1001.07
5248.14
2968.77
1747.91
1092.03
4410.26
2653.03
1656.05
999.983
5286.34
2963.79
1714.22
1061.87
4398.07
2634
1632.38
976.855
5521.09
3104.95
1819.42
1104.09
5039.25
2932.71
1783.39
1035
5264.4
3033.19
1803.13
1095.66
4796.19
2873.56
1763.97
1029.57
4894.8
2925.19
1796.44
1085.56
4458.16
2784.5
1732.27
1019.22
4536.25
2770.74
1740.36
1052.8
4227.19
2702.34
1720.17
1004.05
4224.47
2649.18
1670.89
974.563
4272.69
2717.94
1530.86
436.312
2966.18
2582.41
1439.35
417.495
4100.6
2687.02
1531.63
451.637
2890.57
2554.38
1433.86
419.287
3850.27
2625.99
1501.81
437.911
2761.17
2505.52
1407.22
411.271
3814.57
2582.29
1502.39
457.173
2833.02
2471.62
1393.14
414.175
3861.67
2544.52
1514.47
494.461
2976.88
2432.13
1371.03
412.593
3520.84
2411.09
1448.89
453.478
2296.53
2265.15
1326.21
398.97
3733.77
2481.05
1478.33
466.849
2572.9
2350.84
1345.47
404.456
3356.23
2344.42
1393.89
412.583
2111.26
2197.24
1288.87
381
3221.68
2300.74
1361.36
396.741
2137.37
2158.24
1262.7
370.627
718.325
413.348
224.704
108.95
32.2472
720.322
413.233
224.511
108.848
32.2173
723.176
412.412
223.948
108.58
32.1396
720.544
411.336
223.396
108.333
32.0704
718.722
410.599
223.01
108.15
32.0161
704.783
407.267
221.518
107.509
31.8404
700.726
401.226
218.61
106.255
31.4949
680.603
394.025
215.412
104.893
31.1208
707.312
405.26
220.518
107.071
31.7178
705.384
405.098
220.467
107.048
31.71
707.457
408.435
221.987
107.695
31.8871
713.136
407.331
221.379
107.425
31.8112
697.245
401.04
218.632
106.273
31.4998
691.287
400.524
218.596
106.276
31.5008
675.802
392.954
215.092
104.778
31.0912
672.316
392.53
215.086
104.8
31.0995
714.307
413.352
224.913
109.067
32.2816
717.167
413.545
225.022
109.126
32.2994
716.135
412.885
224.405
108.8
32.2018
719.457
413.316
224.617
108.901
32.2312
717.734
411.923
223.654
108.427
32.0917
724.91
412.787
223.961
108.557
32.1285
720.748
410.412
222.721
107.993
31.9658
729.962
411.407
223.079
108.139
32.0047
716.691
408.786
221.994
107.678
31.8782
14366.2
19410.3
14306.1
19343.4
14319.7
19277.1
14716
19931.4
15162.7
21375.6
13321.3
16282.6
13951.1
17703.8
13096.7
15919.6
12891.7
15809.4
10632
1874.93
413.405
93.8831
16.7255
12276.5
3416.9
839.475
192.622
34.0239
10607.1
1817.85
395.177
89.16
15.8187
12231.7
3375.34
821.626
186.575
32.8975
10594.3
1766.44
377.016
84.3032
14.8941
12227.5
3328.13
799.931
180.222
31.6315
10632.1
1701.92
356.233
79.2067
13.9878
12322.5
3280.96
780.036
175.105
30.7193
10599.3
1639.48
342.348
76.7322
13.6612
12385.1
3233.34
769.849
174.147
30.7767
9847.97
1815.81
421.635
100.63
18.5891
10985.2
3222.42
829.015
198.704
36.5231
10203.5
1750.86
387.07
89.4906
16.2152
11580
3240.26
801.707
186.275
33.5244
9645.01
1857.98
444.17
108.253
20.2733
10738.5
3210.34
843.988
206.394
38.514
9539.46
1823.14
437.903
107.635
20.2961
10621.1
3170.78
839.592
206.987
38.8502
38335.9
55206.5
49337.3
34994.3
25689.9
31275.3
25325.5
31180.4
29312.2
47080.8
31875.2
51493.2
28.4274
35.2047
50.4436
76.661
117.105
176.155
33.8198
41.0907
57.2079
84.3293
125.617
185.598
24.2664
22.2485
30.6965
28.4281
45.5104
42.853
72.137
69.7482
114.01
113.902
176.329
181.267
259.268
383.395
583.072
923.004
1282.12
1580.04
270.857
391.461
559.069
773.417
983.032
1126.4
75.7298
110.057
136.839
155.044
164.234
93.6281
135.732
168.367
190.407
201.479
133.854
193.347
238.97
269.485
284.712
202.823
291.602
358.771
403.162
425.14
308.636
441.068
539.575
603.767
635.277
461.863
654.77
795.143
885.153
928.986
89.9702
130.501
161.979
183.278
193.989
109.124
157.862
195.437
220.687
233.32
151.547
218.358
269.267
303.127
319.955
222.675
319.216
391.723
439.367
462.87
330.344
470.551
574.007
641.071
673.916
485.478
685.841
830.438
922.808
967.806
64.6788
94.1084
117.176
132.914
140.875
59.3098
86.3446
107.59
122.116
129.468
81.7003
118.611
147.361
166.857
176.673
75.6833
109.951
136.719
154.912
164.079
120.871
174.875
216.51
244.475
258.462
113.855
164.861
204.308
230.87
244.166
191.032
275.103
339.033
381.442
402.473
184.781
266.319
328.503
369.84
390.352
300.737
430.411
527.27
590.537
621.602
300.535
430.342
527.444
590.903
622.043
462.644
656.649
798.225
889.032
933.157
475.681
675.312
820.957
914.179
959.34
674.81
945.968
1137.52
1258.29
1316.9
986.989
1360.66
1613.71
1771.25
1848.63
1474.77
1979.4
2299.41
2501
2606.01
2269.38
2916.83
3285.37
3544.79
3705.74
3049.52
3744.57
4105.28
4425.38
4684.57
3667.45
4350.71
4677.52
5054.02
5410.37
703.404
982.842
1178.85
1302.31
1362.46
1006.78
1386.29
1642.98
1803.17
1882.32
1419.5
1917.44
2239.18
2441.06
2545.04
1932.83
2550.54
2929.07
3175.47
3313.51
2417.95
3120.32
3532.5
3819.56
3999.34
2741.09
3485.34
3911.25
4227.43
4441.24
28.9563
36.8787
53.7015
82.231
125.971
189.4
34.408
42.936
60.6687
89.9414
134.006
197.278
24.7321
22.6819
32.2275
29.8729
48.609
45.8336
77.7716
75.3646
123.621
123.945
192.201
200.031
277.303
405.534
606.699
941.263
1292.14
1582.8
285.813
408.784
576.623
787.927
992.22
1129.5
77.1344
112.113
139.436
158.024
167.409
98.1366
142.398
176.801
200.102
211.832
142.628
206.329
255.416
288.409
304.933
217.84
313.864
387.034
435.743
459.99
332.587
476.684
584.932
656.189
691.435
497.75
708.378
863.717
964.708
1014.4
91.5405
132.81
164.902
186.637
197.57
114.097
165.226
204.767
231.423
244.791
160.875
232.179
286.804
323.333
341.56
237.817
341.698
420.317
472.378
498.206
353.021
504.333
617.123
690.993
727.444
517.144
733.243
891.251
993.521
1043.81
65.9232
95.9368
119.484
135.562
143.696
60.4692
88.0479
109.739
124.578
132.091
85.8173
124.688
155.041
175.675
186.085
79.5651
115.676
143.948
163.209
172.931
129.207
187.193
232.097
262.394
277.598
121.868
176.692
219.27
248.061
262.519
206.211
297.578
367.538
414.275
437.576
199.902
288.698
356.875
402.511
425.275
326.682
468.953
576.308
647.176
682.255
327.648
470.635
578.742
650.187
685.549
505.597
720.683
879.979
983.747
1034.78
526.412
750.84
917.294
1025.75
1079.05
723.926
1019.9
1232.82
1369.56
1436.8
1047.92
1453.79
1735.46
1915.05
2004.62
1541.24
2084.03
2439.81
2670.35
2791.95
2324.04
3008.97
3415.5
3708.53
3889.97
3082.85
3805.8
4196.16
4544.94
4823.91
3677.86
4371.53
4709.82
5098.39
5463.66
744.158
1044.34
1258.38
1395.39
1462.88
1054.4
1459.08
1738.29
1915.86
2004.6
1468.48
1993.92
2341.23
2563.61
2679.21
1974.4
2617.61
3021.04
3288.4
3438.82
2445.14
3165.75
3596.47
3899.9
4089.89
2750.43
3501.29
3934.12
4256.64
4474.49
3824.28
2521.4
406.171
279.356
362.829
289.927
390.728
3453.85
3217.21
2062.6
2513.88
995.034
1480.16
780.789
927.344
716.349
3108.88
1609.41
877.305
792.706
1055.16
875.312
622.992
618.108
558.754
481.542
678.468
626.251
3320.54
1934.44
2074.51
1310.65
1031.32
1590.57
646.349
463.968
745.648
7778.55
7527.28
7097.11
8031.51
12913.5
5443.28
5763.49
5780.66
6338.62
7126.06
1051.94
1464.06
1752.04
1935.8
2026.94
730.148
1030.6
1247.78
1387.48
1456.04
947.465
1335.22
1613.81
1792.02
1879.34
758.924
1073.6
1302.06
1449.06
1521.07
1016.19
1423.45
1712.16
1896.33
1986.92
7647.45
8159.26
7911.34
8727.66
13598.2
7152.84
7700.44
7690.83
8434.64
10305.7
4757.66
5513.84
5802.07
6299.51
6888
5952.11
6800.53
6888.16
7414.65
8449.42
2476.11
3242.65
3708.31
4032.11
4235.65
3553.43
4388.34
4812.62
5198.62
5539.58
1980.93
2672.83
3122.9
3414.74
3573.5
2326.41
3085.05
3558.57
3874.97
4060.53
1829.12
2492.08
2932.4
3213.81
3361.09
6895.21
7399.21
7195.76
7979.01
12503.6
3808.36
4594.93
4964.55
5385.1
5781.95
2201.56
2921.57
3373.65
3678.1
3855.5
1998.98
2672.7
3103.53
3389.72
3550.31
2598.07
3347.6
3788.08
4118.28
4340.06
2190.09
2887.92
3316.49
3609.87
3778.86
1585.55
2147.48
2515.72
2754.28
2878.58
1580.31
2156.82
2541.68
2788.28
2915.32
1443.25
2000.73
2385.86
2630.03
2751.97
1248.3
1739.98
2084.25
2302.98
2411.18
1733.9
2365.7
2787.44
3057.6
3198.42
1604.13
2196.24
2594.7
2849.41
2980.42
7038.87
7153.82
6837.19
7687.88
12197.5
4361.7
4927.94
5137.23
5597.68
6145.52
5098.83
5967.04
6017.36
6649.74
7460.6
3163.71
3917.13
4294.77
4654.7
4910.05
2549.65
3286.56
3707.01
4020.87
4210.35
3823.01
4615.85
4932.21
5360.64
5659.49
1645.63
2230.94
2615.57
2864.12
2994.02
1200.64
1669.2
1995.74
2203.71
2307.05
1886.06
2532.19
2948.17
3221.55
3370.49
4598.53
4374.48
4032.48
3549.86
2734.36
1104.83
21331.7
22640.2
23684.4
24551.4
22750
22615.4
22561.1
22755.4
19193.5
23517.8
21627
23299.9
28943.1
19601.5
32584.3
19763.2
21134.3
21945.8
22336.2
21539
22566.9
21300.2
22232.9
19821.7
31199.4
22271.5
30129.6
30080.1
24186.4
37783.3
18053.5
19225
19500.9
19454.7
20012.2
21714.4
19440.7
21122.5
22257.6
29593.3
24935
29054.2
31087.5
27187.9
35733.4
16416.5
17462.5
17108
16837.6
18589.3
20899.3
17445.1
19715.2
19939.4
26735.6
22140.3
25282.6
26831.9
23524.8
31417.5
14864.4
15904.1
15256.6
14937.2
17283.5
19903.9
15606.4
17715.2
17355.4
21197.2
19509.2
19611.7
22759.9
19094.1
24350.3
13489.2
14476.5
13845.1
13529.1
15478.3
17386.2
14175.8
15851.1
14589.8
16509.2
16552.9
15731.6
19365.6
15340.5
20351.4
22944.4
22880.2
24375.6
25683.8
23219
23609.9
23091
23616
19139.3
11896.9
20187
11712
20131.4
16402.4
16841.7
21546.5
21814.3
22283.4
23003.5
22191.5
22690.6
21512.9
22236
16515.2
11505.3
17198.1
11229.8
16877.2
15018.1
15120.6
18313.7
18625
19357.7
19543.6
19164.5
19589.1
19168.5
20288.8
14585.2
11558.1
15342.4
11053
15667.5
13053.1
15028.3
15067.9
15510.5
16522
16403.4
16192.3
16586.5
16873.9
18035.2
12020.4
11429.9
12779.4
10818.8
13171.5
11068.7
14630.2
12879.1
13413.2
14451.7
14256.7
14162.9
14975.1
14820.6
15798.8
10527.3
11717.7
11555.9
11713.1
12481.8
11537.3
15418.7
11148.3
11744.1
12945.6
12724.3
12925.5
14165.9
13317
14511
9915.95
12263.1
11259.2
12812.2
12595.9
11821.1
16496
14069.4
7585.96
24853.8
16331
24008.6
20532.5
34911.8
43734.7
53354.5
68173.8
28486.6
25167.2
17509.2
12114.5
11246.1
6266.65
23326
20235.2
21311.7
20618.8
26659.6
24949.6
31239
26276.6
8131.92
5552.39
4229.92
2955.61
11961.1
7535.08
6681.04
4350.99
24669.9
25686.7
21576.7
16725.8
17097.8
13754.7
14732.2
14159.4
19406.2
19258.4
40523.3
44860.3
28376.4
30280.6
21569
17017.6
21465.3
14967.2
9147.8
7994.42
7013.76
11366.1
3498.41
5010.87
9423.78
15292.9
6015.33
8600.28
9451.99
18142.5
7314.19
12624.5
2215.96
8380.26
336.427
5961.67
19089.4
23131.2
20612.7
23228.7
23830.8
23951.3
24889.6
23788.7
18935.3
23000
18498.2
22485.2
20916.5
23262.4
20655.8
23239.7
25421.8
23713.7
25636.9
23679.4
17934.9
23144.1
16407.3
23117.6
20716.8
23072.9
26063.2
38108.7
21800.6
27183.3
26030.4
42457.9
19553.3
20204.3
25844.7
35790
18796.1
18467.4
25797
34705.7
5957.78
7822.78
16403.2
27993.1
7093.49
8162.68
20227.1
31057.5
8205.08
8617.39
24305.6
34038.8
26686.5
27951.6
23842.3
22878.4
33555.4
28285.3
25501.3
23622.6
20805
38884.1
25869.5
24752.1
21771
24108.2
49202.6
1994.03
2643.8
5749.38
12559.2
2831.33
4032.32
7463.95
14258.7
4125.42
3971.41
9708.76
16281
26939.9
25708.2
23116.5
21099
20655.5
17386.5
15582.9
13226.8
13220.1
20366.7
23917.6
20719.1
22823.1
20536.4
20095.9
17784.3
18359.2
15588.4
15443.6
21627
23943.8
25177.1
24998.3
27178.1
23368.6
21263.6
23972.9
22711.4
22605.4
22618.9
22196.4
21743.7
25516.1
27894.9
25432.7
27737.5
24444.6
23779.8
24287.2
23713.9
22378.2
22421.8
22729.1
22650.4
20186.3
19736.7
14215.5
17074.8
20426.9
19450
14813.6
18018.8
19548.3
19381.7
13964.8
16928.7
19704.9
19149.2
13789.5
16461.8
2095.92
1581.07
1094.95
1080.46
851.394
835.004
3293.43
2078.63
1495.87
2613.1
2188.5
1755.24
3271.67
2792.42
2765.54
4719.03
3774.69
3227.61
22838.6
18480.7
15793.4
19635.2
16885.7
14993.3
13783
12155
11222.5
10434.1
9065.04
8297.06
7732.12
5101.59
3792.28
18087.9
15165.2
13313.9
18658.5
15812.1
14184.6
14331.3
11529.1
10088.5
10828.3
8654.08
7612.51
7818
5134.65
3830.19
30045.1
30620.7
32371.4
29253.8
29891.4
29288.9
36173.7
30509.9
18585
20030.9
18613.3
18090.8
24991.1
21398
24696.8
19055.6
27141.5
27959.3
23060.5
25506.8
29491.2
26337
30728.5
32136.2
33080.3
35765
26156.1
27006
22644.4
22439.7
25583.7
24816.7
16503.7
9360.66
15590.8
10359.9
16093.6
9196.29
15098.9
10054.4
14742.7
8486.23
14092.7
9544.72
13900.1
9903.17
13373.3
9866.56
22928.3
17455.8
22827.5
17871.8
25969.3
22666.4
26512.6
22660.8
20800.7
13746.6
21283.2
13077.9
23524.3
18121.6
24310.4
18182.5
27473.7
22761
28147.4
22797.6
20428.1
14047.6
20372.5
14105.4
12107.3
8254.14
10283.8
6712.99
11017.2
7365.97
9489.73
6139.42
12470.7
8746.26
10651.1
7035.73
12582.4
9043.06
10752.9
7207.27
2637.57
1399.08
4988.69
2962.27
2723.63
1601.51
5062.91
3240.37
2919.63
2087.1
4995.18
3649.76
12663.6
21897.3
8195.81
7452.3
5533.27
22258.4
13816.1
7564.3
6737.66
4352.18
21572.1
15164
10906.5
7938.63
5248.26
919.287
784.805
2081.53
1812.16
1147.35
836.255
2466.66
2115.04
1595.01
1252.14
2918.11
2511
22187
20059.3
13552.5
11550
8213.84
7221.22
6240.87
5399.68
3967.45
3436.29
19352
15757.2
13602.2
10906.9
9873.05
8217.93
6935.27
5970.05
4766.43
4715.2
13037.1
9537.82
13349.6
9098.48
17300
12191.1
17854.8
12230.9
10501.3
7678.52
10300.5
8102.28
13966.9
8769.15
14178.3
8943.83
18958.6
12732.1
19032.6
12924.6
10650.9
7288.7
10879.6
7636.03
7429.04
6066.17
5221.9
6006.59
7472
6286.23
5291.41
5861.96
7426.8
5937.17
5113.05
6259.11
7820.91
6041.65
5310.1
6205.39
1330.68
982.251
724.912
4746.09
2230.62
1626.35
1267.32
1085.3
866.836
5113.93
2658.93
2030.01
1618.21
1556.53
1455.46
5540.27
3327.21
2739.42
16349.1
13311.7
11499.9
9661.82
8046.62
7149.42
6508.47
5507.14
4993.09
5279.29
4411.73
3984.1
6568.38
4410.08
3688.25
12168.5
9741.27
8312.2
8519.19
6845.7
5932.19
6935.72
5492.6
4648.44
6107.59
4813.77
4137.04
8610.5
5506.9
4654.43
4880.8
2603.83
1507.49
947.052
5421.99
2789.69
1565.12
979.21
4741.6
2567.68
1506.12
956.616
5374.44
2794.81
1591.83
1003.51
4497.42
2520.5
1546.67
974.741
5210
2814.66
1664.18
1033.84
5426.73
2906.93
1634.21
1030.13
5537.62
2997.6
1662.6
1038.1
4745.47
2655.72
1615.69
1005.55
4012.32
2399.16
1529.76
924.512
4198.38
2439.88
1561.92
954.265
3678.99
2256.38
1476.53
887.906
5063.4
2806.86
1644.74
1025.46
4221.62
2508.22
1563.85
941.212
5233.45
2910.52
1678.59
1038.71
4338.48
2587.16
1600.83
956.798
3788.69
2293.43
1429.95
897.997
2737.22
1942.96
1330.37
819.526
3689.11
2264.16
1434.3
900.479
2734.18
1942.71
1332.5
822.502
3543.39
2224.68
1454.85
906.049
2799.76
1972.53
1345.61
831.185
3412.44
2167.4
1446.22
901.718
2839.24
1989.38
1381.36
842.498
3254.52
2113.01
1404.21
849.049
1739.1
1634.57
1093.46
331.761
732.167
1477.52
990.063
306.128
1861.37
1680.83
1115.36
348.066
894.283
1530.24
1008.2
312.372
2055.64
1752
1133.86
346.504
1146.42
1615.77
1028.45
315.275
2354.27
1847.31
1174.56
370.766
1478.9
1729.63
1066.31
328.955
2807.03
1981.79
1241.76
415.559
1901.28
1850.24
1104.09
340.337
3171.64
2151.64
1283.17
399.599
2035.94
2010.88
1182.31
356.622
3092.26
2077.1
1254.25
399.394
2028.45
1948.2
1141.5
347.198
3191.18
2202.67
1293.73
379.213
2011.41
2061.02
1204.9
355.715
3179.32
2256.55
1328.4
385.608
2114.86
2116.5
1235.64
362.365
607.99
358.617
199.166
98.0383
29.2475
616.642
360.573
199.705
98.2128
29.2904
618.884
361.81
200.46
98.5559
29.3846
627.749
364.481
201.388
98.902
29.4755
623.177
364.73
201.806
99.1067
29.5308
630.03
369.679
203.858
99.9325
29.7543
652.875
377.902
207.558
101.486
30.1786
662.653
384.933
211.064
103.009
30.5994
642.474
372.809
205.247
100.511
29.9098
641.835
372.897
205.31
100.534
29.9144
623.729
368.019
203.279
99.7052
29.6897
633.49
370.095
204.132
100.047
29.7803
653.359
377.806
207.52
101.471
30.1737
649.803
377.502
207.482
101.462
30.1707
661.125
385.116
211.294
103.127
30.6337
658.297
384.468
211.127
103.074
30.6205
594.62
355.985
198.505
97.836
29.1987
586.941
354.272
198.064
97.701
29.1667
600.679
358.441
199.479
98.2142
29.2971
593.164
356.612
198.943
98.0316
29.2518
608.269
361.468
200.687
98.6821
29.4178
605.043
359.865
200.112
98.4679
29.3624
619.393
365.085
202.103
99.2316
29.5599
619.059
363.552
201.465
98.9749
29.4899
625.028
367.73
203.175
99.6562
29.6727
12457.7
19543.7
12956.6
19831.5
13713.8
20217.5
14615.8
21186.9
15437.4
22958.3
13367.3
16433
14071.8
18168.5
13112.1
15970.7
12894.4
15820.2
10183.3
1835.68
409.11
93.2836
16.6404
12141.9
3388.18
835.377
192.09
33.96
10310.6
1798.87
393.845
89.0251
15.7964
12251.5
3373.87
821.598
186.588
32.8888
10524
1772.27
379.164
84.7175
14.9486
12465.2
3366.24
806.408
181.264
31.7622
10751
1727.33
360.968
80.0178
14.0975
12734.2
3351.19
791.829
177.011
30.9694