/*--------------------------------*- C++ -*----------------------------------*\
| =========                 |                                                 |
| \\      /  F ield         | OpenFOAM: The Open Source CFD Toolbox           |
|  \\    /   O peration     | Version:  2412                                  |
|   \\  /    A nd           | Website:  www.openfoam.com                      |
|    \\/     M anipulation  |                                                 |
\*---------------------------------------------------------------------------*/
FoamFile
{
    version     2.0;
    format      ascii;
    arch        "LSB;label=32;scalar=64";
    class       volScalarField;
    location    "1";
    object      gradTx;
}
// * * * * * * * * * * * * * * * * * * * * * * * * * * * * * * * * * * * * * //

dimensions      [0 -1 0 1 0 0 0];

internalField   nonuniform List<scalar> 
5712
(
-9073.47
-11129.2
-20589.4
-32387.4
-31345.5
-61110.4
-21498.3
-64587.9
-22060.6
-51658
-27148.3
-44820.7
-20686.1
-27577.7
-11149.3
-11393
-15411.8
-17813
-20685.8
-18952.1
-14234.5
-21420.5
-21034.7
-21071.3
-6107.25
-4580.12
-8254.34
-6038.02
-13981.7
-9458.69
-25575.6
-18203.5
-21258.8
-21827.2
-22094.6
-23077.5
-5540.1
-4667.31
-48711.8
-60223.8
-26184.9
-34785.8
-61964.8
-76372.4
-28838.3
-35481.1
-36929.9
-48245.1
-29743.5
-40950
-17278.3
-21712.7
-3692.35
-1189.76
-4733.72
-1664.34
-8307.52
-3447.41
-14052.9
-5219.34
-9602.43
-3190.22
-9302.45
-2663.06
-18024.6
-5303.24
-23534.2
-7457.12
-29422.6
-17088.7
-24716
-17098
-29413.9
-19021.6
-23265.9
-18570.4
-19707.6
-14299.3
-21889.3
-14063.6
-23960.6
-17493.5
-24778.3
-17874.3
-22782.4
-18761.3
-23690.1
-19065.1
-20185
-14926.1
-21701.8
-15405.5
-21861.5
-9199.57
-12826.6
-14917.5
-23691.9
-10768.2
-12988.6
-15940.9
-21808.1
-8487.02
-13249.4
-14507.4
-22529.5
-8509.59
-13838.3
-14548.2
-3584.74
-4090.16
-1281.41
-2688.21
-10291.1
-12184.9
-4386.23
-8691.34
-16774.6
-19948.5
-8051.75
-14702.8
-18651.6
-9570.31
-20174.1
-25461.1
-13442.2
-6599.96
-10658
-13941.1
-25877
-18072.5
-11618.2
-15696.3
-18038.3
-18224.4
-23274.1
-3869.35
-3898.42
-2479.89
-2612.33
-11433.9
-10503.2
-7770.72
-7741.82
-17069.3
-14947.6
-11595.6
-11389.6
-9913.7
-10919.6
-15617.1
-16574.8
-19007.4
-17735.2
-23470.2
-21096.6
-17552
-17330.6
-13886.6
-14222.7
-18089.1
-15391.4
-17618.3
-13681.4
-16426.2
-12184
-19364.4
-14774.7
-14808.8
-6742.89
-11836
-10797.4
-16197.2
-17874.7
-16593.5
-20835.1
-10213.3
-9379.29
-13683.7
-4803.38
-11660.2
-17553.1
-12219.5
-19007.5
-16959.8
-25816.3
-17671.4
-26734.9
-10199.3
-15870.3
-10737.4
-17465.5
-12745.4
-8770.36
-17004.3
-7024.97
-13464.4
-3537.27
-15977.6
-2377.57
-13481.7
-13166.4
-17949.9
-8873.28
-12348.9
-15412
-16636.2
-11440.5
-3501.84
-3123.72
-2480.69
-2290.02
-2161.5
-1785.75
-9208.34
-7397.76
-5968.92
-6295.7
-4893.6
-3825.71
-11708.5
-9104.15
-7782.14
-9133.27
-6708.43
-5612.58
-9267.29
-6622.69
-5793.53
-14965.5
-9834.9
-7242.61
-14376.8
-9373.27
-6506.12
-16504.5
-11670.7
-8955.33
-14147.1
-8774.66
-5868.04
-17321.2
-12674.6
-10260.8
-13394.7
-9479.5
-6993.62
-12587.7
-8425.96
-5827.66
-11979
-7991.36
-5547.93
-14082.2
-7713.77
-4166.97
-12344.5
-19811.4
-10677.3
-14974.8
-10485.5
-21168.5
-8947.05
-17482
-118.745
-1675.42
291.19
-1034.02
-3575.78
-6656.78
-2345.78
-4203.21
-2135.37
-4124.19
-11495.2
-16795.7
-8727.55
-6842.85
-12645.3
-11110.2
-17464.5
-18765.7
438.568
5763.89
-8872.33
-6179.88
-6860.93
-3908.11
-1557.55
-989.32
-1328.16
-846.545
-3890.01
-1206.1
-2112.29
-411.225
-10005.2
-2830.53
-7806.1
-2432.6
-8803.98
-2634.97
-9870.33
-3145.26
-13245.7
-12591.8
-10239.6
-12330.5
-20666.1
-18147.7
-16797.7
-17073.3
-7261.13
-8965.7
-8506.63
-8369.72
-9538.79
-12132.9
-9976.26
-12177.5
-15997.1
-16598.4
-16558.6
-16656.2
-6386.31
-8996.78
-6129.03
-9038.66
-575.745
-1006.7
-6651.31
-3112.06
-617.38
-786.496
-5860.36
-2616.21
-554.101
-889.632
-6959.47
-3414.6
-798.431
-963.935
-6969.79
-3576.98
182.681
336.659
-436.831
-237.991
848.28
1353.13
-656.534
-301.873
-982.203
42.2236
-2095.6
-1632.87
7032.38
3553.83
4099.82
2840.11
225.998
6895.39
9786.67
4454.16
4556.19
289.884
-10153.1
-7147.32
-5397.99
-5046.11
-2428.62
479.586
382.302
-102.617
-125.476
1364.35
1368.8
-251.771
-281.962
1219.88
1551.77
-892.105
-890.386
2565.01
799.787
7155.53
4480.42
3666.25
2289.8
3430.38
2597.02
147.983
-258.986
-5530.65
-3930.7
-55.5041
1356.58
450.108
1377.79
-149.902
691.892
-176.189
-309.005
-4226.79
-4402.5
-9413.14
-5877.13
-8980.55
-8243.69
-13152.8
-9926.99
-6679.64
-3961.31
-2333.56
-2840.84
-11053
-4752.8
-11842.5
-4468.15
-15057.3
-9682.18
-16080.8
-9461.39
-8008.98
-2907.37
-8666.34
-2541.35
-4382.58
-3226.07
-2561.91
-4514.83
-2012.56
-2568.09
-1497.87
-3701.01
-4818.89
-2905.33
-3185.52
-5194.31
-5904.14
-2655.31
-3945.03
-5013.03
385.766
408.95
444.616
-81.8295
78.33
98.2575
1344.64
1371.47
1379.71
-91.2454
323.141
365.04
1657.22
1988.1
2083.39
-456.95
566.684
737.255
21.2407
640.741
562.623
2757.21
2861.42
2558
2078.25
2286.27
2144.85
2323.32
2565.73
2516.73
-196.59
807.806
725.309
-4536.94
-2344.36
-1376.33
146.325
1082.59
1405.01
562.91
1382.85
1589.8
380.682
1246.7
1413.28
-1003.82
493.327
582.981
-78.5458
-10.945
6.48373
15.6398
37.7121
42.0229
52.6835
38.4034
-202.174
-32.9518
23.0111
44.1135
84.0522
94.8268
108.606
81.1895
-350.141
-81.5153
8.37294
70.9523
-86.3826
47.2306
59.2618
74.6398
-39.9833
30.3221
4.84684
13.6172
-151.683
-34.6927
0.71693
22.7438
-776.384
-244.444
-140.871
3.00814
-1051.93
-336.21
-256.426
4.58553
-636.758
-192.246
-98.0668
58.1238
-857.155
-272.333
-226.519
10.4496
-709.896
-229.924
-124.822
-0.478961
-1153.44
-369.081
-273.02
13.5173
-732.285
-250.651
-112.945
17.4774
-1206.17
-387.664
-282.933
16.3046
-64.8096
-12.9218
-5.45868
10.2682
-46.6362
-7.68933
-13.6089
12.4875
-169.422
-36.2056
-10.9019
31.0793
-79.3483
-4.98832
-26.508
35.4469
-527.623
-154.764
-83.9184
36.6582
-387.566
-101.653
-83.6393
58.2244
-234.6
-53.2353
-35.164
75.7928
-150.984
-24.1357
-49.8361
64.8662
-716.198
-218.755
-191.378
54.4012
22.6483
14.9773
3.83581
14.6353
83.7335
33.4528
14.3907
11.3408
14.2507
25.9421
-2.73188
35.3882
208.84
86.4526
32.6568
28.521
-49.7713
12.1837
-15.8405
54.729
299.925
125.782
48.1154
42.2226
-43.3892
19.7114
-20.2609
71.0576
345.703
149.38
49.8806
45.7994
-170.143
-8.34737
-76.0537
52.5122
233.972
131.3
22.6695
35.6591
-689.236
-121.372
-173.71
24.4465
-187.027
20.0049
-29.8453
11.672
-418.317
-50.1108
-137.248
33.6855
-9.66729
76.8462
-7.83921
22.6084
-911.213
-203.275
-207.011
22.5732
-297.585
-31.0722
-46.7417
5.39144
-1054.2
-277.061
-235.535
16.5798
-381.72
-82.2565
-62.7332
0.0947137
5.48946
2.55539
1.14439
0.516161
0.285776
9.32303
4.19753
1.8602
0.841227
0.465996
10.9173
5.39307
2.4234
1.09426
0.611462
24.2346
11.498
5.15044
2.34929
1.31047
17.0442
8.18239
3.62415
1.63409
0.915695
36.1116
16.6809
7.46292
3.42218
1.92009
11.3456
5.29223
2.40812
1.11799
0.631843
4.53477
2.52535
1.2128
0.575374
0.32699
15.6838
6.90559
3.05936
1.39248
0.775783
1.52484
0.743367
0.326641
0.141544
0.075405
28.3195
12.2712
5.3558
2.43116
1.35897
6.03728
2.51488
1.08044
0.480604
0.261604
1.53125
0.903535
0.423027
0.189653
0.103669
1.34439
0.823242
0.389795
0.179214
0.0997571
-0.147035
0.501215
0.308433
0.150392
0.0813611
-0.807807
-0.101949
-0.00977928
-0.00326676
-0.00499668
4.08559
1.88315
0.817776
0.358408
0.194857
4.94841
1.97244
0.80804
0.345828
0.186135
9.95093
4.39208
1.87022
0.811133
0.440139
11.7611
4.50602
1.8243
0.773954
0.413233
12.7789
5.3817
2.25693
0.966482
0.521226
15.3542
5.71707
2.2964
0.966955
0.519131
22.0823
8.94702
3.78431
1.68333
0.935926
11.8478
4.41944
1.77954
0.754592
0.412477
13.3126
5.50545
2.36126
1.06761
0.596307
-494.38
-650.156
-1380.24
-1878.24
-2135.92
-3051.41
-2547.33
-4039.03
-2356.73
-3778.09
-2210.67
-3199.54
-1765.03
-2282.05
-2880.46
-4072.16
-3169.8
-4387.51
-703.11
-157.364
-34.913
-7.56069
-1.88375
-242.471
-98.9315
-9.56475
-3.05577
-1.3512
-2274.36
-512.389
-114.348
-24.9603
-6.26592
-616.676
-132.332
-27.1805
-5.3899
-1.17018
-3972.65
-900.379
-202.254
-44.5908
-11.3051
-1115.56
-274.057
-62.4493
-14.1397
-3.56191
-5603.02
-1278.09
-290.297
-64.8348
-16.6719
-1587.26
-432.111
-106.129
-25.3226
-6.70189
-7650.6
-1798.25
-417.954
-95.2422
-24.9717
-2156.73
-671.356
-174.899
-42.9709
-11.6484
-9921.28
-2555.8
-629.739
-150.015
-40.7513
-2585.4
-839.213
-224.581
-56.0237
-15.4321
-9201.27
-2294.21
-550.556
-128.327
-34.2388
-2452.98
-815.835
-218.82
-54.5289
-14.8906
-10234.8
-2672.37
-667.363
-160.959
-44.178
-2695.93
-841.152
-220.726
-54.3383
-14.9113
-10496.9
-2732.06
-685.482
-166.358
-45.9322
-2732.82
-850.356
-222.31
-50.8748
-14.7509
-377.824
-7507.23
-7335.43
-4058.93
3972.57
5467.32
10928.3
14452.2
6088.72
12507.9
1982.28
7222.38
5968.59
10154.8
11351.6
15800.2
13645.1
15626.2
7779.28
8846.62
-18863.7
-13705.1
-3002.28
-2043.9
-1524.49
-2387.6
-1831.93
-11770.7
-10554.9
-9256.69
-9062.26
-6886.44
-4700.08
-6997.75
-3816.55
-2881.39
-3436.34
-2174.6
-19635.8
-9009.73
-2231.19
-3938.33
-6575.78
-4206.24
-4557.03
-3298.11
-1441.64
-2398.86
-2340.3
-2775.12
-18756.6
-11190.3
-11080.7
-6721.97
-6813.96
-7161.26
-2894.4
-3470.74
-4122.87
-12105.7
-10816.7
-8484.17
-7453.49
-5925.3
-9468.46
-6724.1
-5165.04
-3886.38
-1600.27
-2614.87
-2128.28
-1564.47
-958.422
-322.856
-1805.46
-1490.76
-1106.04
-679.466
-229.111
-1337.68
-1095.95
-806.733
-492.539
-165.574
-2113.21
-1747.87
-1297.45
-796.523
-268.427
-1606.26
-1315.59
-969.202
-592.705
-199.467
-7497.79
-6035.83
-4457.85
-3683.42
-3466.41
-5607.96
-4202.14
-2769.17
-2028.42
-1517.97
-6332.65
-4230.69
-3021.85
-2084.3
-850.099
-4848.29
-3460.32
-2264.06
-1601.42
-995.927
-3457.21
-2317.48
-1463.65
-1075.09
-578.737
-3688.52
-2721.71
-1884.07
-1138.67
-393.491
-4987.62
-3424.69
-2352.64
-1475.19
-556.157
-2652.24
-1742.37
-1150.07
-697.011
-253.501
-2347.93
-1787.57
-1251.36
-749.837
-253.301
-2733.35
-2030.08
-1396.01
-828.425
-279.463
-1793.15
-1379.02
-968.828
-578.522
-194.031
-12804.3
-10011.6
-7683.41
-6365.33
-5174.37
-6760.41
-4882.6
-3541.02
-2378.67
-936.52
-1827.23
-1400.3
-989.361
-599.219
-203.835
-3276.83
-2553.97
-1833.54
-1124.67
-384.45
-5314.48
-4046.56
-2908.5
-1827.68
-642.182
-3524.5
-2764.66
-1998.32
-1231.05
-418.707
-3887.82
-3098.01
-2253.79
-1382.11
-464.951
-2828.03
-2265.51
-1646.11
-1003.8
-338.472
-1226.07
-972.012
-697.071
-419.582
-140.494
-2081.05
-1685.1
-1229.73
-747.924
-251.277
-1960.74
-1533.46
-1093.04
-659.542
-222.157
-2362.9
-1879.55
-1358.23
-826.122
-278.765
-12007.6
-10084.6
-7931.68
-6805.01
-5242.4
-8033.35
-5759.29
-4353.78
-3148.32
-1292.09
-8549.65
-6574.74
-4875.49
-3508.28
-1435.58
-5356.63
-3909.15
-2846.84
-1854.11
-583.946
-5615.11
-4310.19
-3119.04
-1951.34
-648.525
-5687.98
-4131.59
-2997.18
-1946.37
-597.512
-2448.31
-1935.12
-1397.78
-854.375
-288.76
-3010.29
-2438.47
-1783.35
-1088.2
-366.243
-3489.39
-2761.27
-1998.22
-1223.72
-414.175
-7420.68
-16431
-12867.1
-42582.2
-11941.1
-54756.2
-8142.92
-21649.4
-10404
-8888.72
-20827.2
-16277.1
-10349.4
-12389
-22429.3
-18414
-4715.21
-3244.62
-10985.8
-7813.59
-8181.19
-4296.82
-30139.8
-21507.2
-17739.5
-12164.3
-18702.3
-12214.9
2256.26
-1727.34
-50482.3
-60939.9
-25392.2
-34704
-63504.3
-77032.2
-27870
-35261.3
-38104.5
-48902.5
-29024.2
-40999.1
-18743.4
-22322.4
-2596.05
-503.206
-5723.23
-1855.3
-4900.64
-2367.24
-15952.8
-5737.45
-2439.47
-1215.69
-6853.8
-1924.02
-18142.2
-5266.97
-23792.2
-7516.21
-21111.5
-13249.9
-21970.6
-15239
-19940.4
-14404.8
-20116.7
-16423
-17813.9
-12870.8
-16337.7
-11258.6
-22884.3
-16659.9
-24528.6
-17645.7
-21485.9
-17815
-23340.2
-18802.2
-19531.3
-14276.7
-21571.5
-15225.1
-20868.6
-8943.36
-11787.4
-14467
-20424.9
-9878.2
-10866.6
-15005.7
-21579.2
-8424.74
-12784.8
-14306.2
-22525.6
-8508.97
-13710.5
-14494.1
-773.372
-613.658
124.049
-962.021
-2974.74
-3815.34
-2224.41
-5937.1
-4657.83
-6390.32
-5004.58
-10932.9
-18638.8
-17313.2
-15665.5
-18916.3
-11865.6
-11106
-8969.5
-8722.64
-18755.2
-16356.7
-14278.4
-14196.8
-14039
-13698.1
-21074.9
-923.499
-1164.68
-667.057
-943.289
-3862.54
-3460.72
-4494.59
-4398.93
-4008.74
-2337.84
-7443.72
-6979.34
-12016.7
-12608.6
-11471.3
-11402.8
-11430.5
-9523.76
-15886.7
-13555.7
-14930.6
-13972.6
-15931
-15679.7
-15506
-13137.7
-13265.9
-10305
-12441.1
-9220.68
-17427.4
-12508.5
-13785.5
-7381.47
-11306.7
-10943.1
-16523.2
-18891
-16444.5
-21138.9
-9574.62
-9435.68
-12232.5
-5250.8
-11370.6
-17524.1
-12112.2
-18976.9
-16818
-25996.9
-17590.6
-26729.7
-9882.12
-15804.6
-10630.8
-17432.8
-12281.8
-8869.8
-16860.4
-7216.77
-12319.6
-4139.71
-15609.1
-3240.36
-13269.9
-13138.7
-17877.1
-8908.14
-12275.8
-15392.6
-16612.3
-11438.3
-1376.73
-1083.36
-854.473
-1045.72
-2752.4
-1543.39
-3633.11
-3634.14
-1109.7
-887.467
-6287.19
-6010.61
-13329
-11071.5
-11194.6
-8248.36
-7944.24
-5186.62
-10803.4
-7990.84
-12016.9
-7949.97
-19411
-15815.3
-10684.2
-8111.8
-8817.95
-6025.18
-8104.55
-5202.44
-9585.65
-4513.79
-5822.93
-11279.5
-5265.42
-11235.8
-7781.12
-12667.8
-9301.82
-14543.3
-1582.63
-1440.65
-1329.84
-1300.19
-4439.5
-4544.51
-4008.35
-4051.66
-1342.1
-1861.81
-8886.64
-9619.41
-5149.41
-5732.81
-11045
-10671.8
-16015.3
-18319.1
904.86
5798.52
-7692.79
-5848.24
-6279.43
-3789.68
-1232.47
-1136.81
-1308.95
-1092.18
-2761.6
-1677.71
-2038.3
-1097.57
-7646.32
-3414.16
-7179.99
-3103.94
-8353.95
-2982.02
-9704.19
-3274.51
-6825.34
-9778.58
-7805.46
-10781.1
-12264.4
-13823
-13778.6
-14977.2
-5820.68
-8152.7
-4930.86
-7235.19
-8435.72
-11430.1
-9648.58
-11977.3
-14652.5
-15672.7
-16160.6
-16395.6
-5722.59
-8606.01
-5922.81
-8923.85
-359.512
-1185.58
-6445.74
-3194.87
-471.57
-1217.52
-5786.86
-2788.57
-466.229
-1045.58
-6839.36
-3478.49
-767.188
-1028.91
-6922.99
-3610.13
-1110.34
-1230.6
-1128.83
-1222.22
-2704.41
-2938.99
-1868.48
-2049.79
-6775.83
-7154.64
-3450.63
-3632.48
-4106.66
-9859.88
-2504.33
53.9886
-813.463
-4015.34
-926.646
-1817.81
1954.69
-399.939
-14660.6
-10165.1
-7228.71
-6417.02
-2950
-1446.82
-1501.82
-1387.06
-1567.86
-3416.01
-3527.49
-2361.3
-2762.1
-7378.34
-7915.6
-3560.76
-4197.86
-6035.21
-7230.7
-1876.69
-3862.36
-3071.83
-4211.15
-485.493
-1309.32
-1046.69
-1697.91
-11428.2
-8634.3
-5909.53
-4011.95
-3984.02
-2723.15
-3364.26
-2162.03
-1389.9
-1684.05
-6901.87
-7202.91
-10422.1
-6991.23
-11064.5
-10639.6
-13711.1
-10873.6
-7930.95
-5069.47
-4865.46
-5405.43
-11433.5
-5329.28
-11914.9
-4585.08
-15192.1
-10173.5
-16071.1
-9541.82
-8557.88
-3489.58
-8800.44
-2676.54
-5587.9
-4216.26
-3580.62
-5598.47
-4124.82
-4701.48
-2891.91
-5566.84
-5403.64
-3457.81
-3758.82
-5801.55
-6068.31
-2810.53
-4118.89
-5163.19
-1207.16
-1273.37
-1080.43
-902.701
-3742.52
-4177.92
-1682.09
-1050.06
-8187.41
-6775.18
-2384.75
-342.441
-8874.82
-7438.63
-5592.65
-4534.52
-4473.32
-3555.22
-1570.49
-933.625
-1229.54
409.419
-8191.07
-6494.51
-4098.74
-2915.11
-2695.2
-1609.04
-1888.85
-883.799
-2353.06
200.861
-203.727
-72.733
-22.1763
3.06907
-194.191
-78.1237
-5.62541
10.4009
-520.351
-190.018
-46.4207
17.4545
-438.135
-180.607
-32.6355
4.18982
-771.291
-293.414
-96.4705
24.5755
-699.708
-290.592
-138.683
-47.3722
-404.044
-178.066
-110.778
-40.0148
-303.692
-125.457
-49.9916
-1.94263
-975.594
-363.557
-222.54
-47.619
-1111.93
-365.989
-289.305
-1.63267
-963.684
-357.571
-207.077
-18.5996
-941.276
-311.744
-268.589
2.71985
-862.057
-322.351
-176.807
-18.0462
-1201.44
-393.158
-300.118
1.07922
-797.2
-290.813
-136.039
7.74635
-1227.85
-398.806
-293.155
12.5872
-197.167
-65.2808
-27.5445
3.47513
-197.564
-58.4429
-38.0449
5.69589
-503.671
-171.23
-69.0612
13.1707
-495.187
-151.136
-94.0012
18.1736
-874.935
-306.587
-161.789
16.3093
-843.348
-274.889
-176.081
35.2129
-816.502
-305.894
-166.992
11.4063
-612.246
-208.923
-137.459
46.3607
-937.476
-315.509
-268.731
32.459
-149.485
-42.0515
-18.1228
6.66212
-93.4855
-28.407
-7.46013
0.901357
-401.859
-116.33
-62.2608
13.4091
-248.412
-78.6269
-28.8836
-0.692133
-536.269
-167.324
-98.2872
21.8296
-315.358
-115.264
-44.2349
-1.76585
-591.201
-202.185
-125.69
26.4389
-356.672
-145.892
-63.7263
-7.02108
-683.198
-222.816
-187.055
1.34714
-468.419
-165.336
-97.6412
-21.9177
-1194.57
-362.372
-298.03
-32.0218
-609.864
-185.236
-121.336
-32.4999
-1015.45
-309.954
-271.792
-27.3608
-620.996
-188.938
-121.799
-32.8522
-1220.13
-362.363
-289.867
-14.6106
-536.234
-158.96
-105.183
-21.8324
-1153.14
-330.721
-263.701
4.06474
-454.229
-123.89
-82.1021
-8.88063
-2.86567
-1.89912
-0.97279
-0.487595
-0.289437
-5.70962
-3.17649
-1.56686
-0.773349
-0.458025
-7.2713
-4.08174
-2.04453
-1.01765
-0.597305
-18.4503
-9.03703
-4.32587
-2.10611
-1.23849
-12.5401
-6.19612
-3.01092
-1.48087
-0.863831
-27.3467
-13.0028
-6.11063
-2.94207
-1.7186
-9.9236
-4.44752
-2.03959
-0.969997
-0.563508
-6.38156
-2.5347
-1.1175
-0.525169
-0.306687
-11.1597
-5.29322
-2.4688
-1.19054
-0.699058
-1.61515
-0.660655
-0.305745
-0.152482
-0.091925
-18.8564
-8.96295
-4.21517
-2.03176
-1.18714
-3.60041
-1.86125
-0.886924
-0.434485
-0.259678
-3.21878
-0.927357
-0.378002
-0.181307
-0.108067
-2.70787
-0.854109
-0.355157
-0.167528
-0.0985223
-3.76823
-1.02434
-0.383936
-0.179442
-0.113534
-1.32326
-0.247674
-0.0702601
-0.0335781
-0.0257567
-1.63608
-1.32598
-0.724232
-0.374295
-0.225026
-1.09203
-1.17291
-0.672217
-0.352564
-0.213049
-4.19195
-3.14267
-1.6873
-0.868793
-0.520532
-2.85906
-2.86818
-1.60384
-0.836366
-0.505995
-5.62166
-4.09953
-2.14895
-1.10238
-0.659776
-5.24579
-4.06153
-2.15116
-1.10819
-0.663203
-12.2747
-6.33064
-3.04842
-1.49194
-0.872517
-5.25677
-3.24812
-1.6445
-0.834528
-0.491605
-8.51969
-3.84973
-1.78778
-0.856734
-0.499482
-182.046
-350.663
-637.281
-1135.58
-1283.32
-2139.79
-1882.42
-3232.25
-2043.76
-3391.01
-2344.54
-3346.3
-1858.96
-2519.33
-2949.1
-4126.13
-3187.16
-4399.37
-671.003
-153.027
-34.251
-7.45848
-1.8669
-186.045
-90.83
-8.28081
-2.86685
-1.3202
-2190.18
-500.618
-112.526
-24.6796
-6.22069
-480.933
-111.682
-24.081
-4.93542
-1.09543
-3843.08
-881.137
-199.204
-44.1158
-11.2282
-956.078
-249.178
-58.6137
-13.5558
-3.46335
-5439.73
-1252.17
-286.029
-64.1495
-16.5567
-1463.92
-411.654
-102.739
-24.765
-6.60194
-7477.38
-1767.84
-412.605
-94.3405
-24.8132
-2112.34
-659.724
-172.447
-42.5023
-11.5569
-9849.7
-2537.25
-625.697
-149.235
-40.5987
-2609.27
-840.815
-224.435
-55.937
-15.4068
-9072.4
-2266.1
-545.052
-127.337
-34.0563
-2471.18
-812.984
-217.609
-54.2346
-14.8267
-10199.8
-2662.44
-665.037
-160.488
-44.0817
-2706.47
-842.418
-220.812
-54.3334
-14.9069
-10486.4
-2729
-684.738
-166.205
-45.9006
-2734.92
-850.674
-222.348
-50.8847
-14.752
-141.6
-7285.05
-6600.68
-2946.41
-1533.21
-780.28
-3175.88
-2245.71
-5965.63
-6468.95
-3511.17
-3271.55
-148.508
-244.339
-444.737
-746.052
-1147.07
-1619.7
-107.716
-243.209
-525.997
-958.658
-1531.98
-2213.7
-111.658
-47.906
-211.107
-126.88
-420.876
-302.257
-733.431
-612.61
-1103.15
-1059.13
-1508.95
-1581.8
-2189.98
-2881.16
-3821.23
-5951.03
-6748.92
-8513.48
-2943.16
-3586.19
-3957.38
-4071.57
-3598.37
-3415.87
-133.637
-112.639
-85.0887
-52.8847
-17.9316
-219.591
-184.812
-139.399
-86.5376
-29.3232
-399.083
-335.273
-252.444
-156.509
-52.997
-668.085
-559.946
-420.68
-260.395
-88.1031
-1024.23
-855.698
-641.034
-396.028
-133.87
-1439.99
-1197.45
-893.588
-550.783
-185.999
-96.8321
-81.5439
-61.5433
-38.2211
-12.9519
-218.352
-183.569
-138.313
-85.7923
-29.0558
-471.537
-395.727
-297.674
-184.42
-62.4235
-857.593
-718.006
-538.931
-333.395
-112.77
-1366.39
-1140.25
-853.452
-527.022
-178.126
-1966.16
-1633.49
-1218.3
-750.859
-253.6
-100.564
-84.8217
-64.1187
-39.8755
-13.5283
-43.1557
-36.4109
-27.5319
-17.1257
-5.81078
-189.899
-159.97
-120.771
-75.0286
-25.4367
-114.181
-96.2414
-72.6994
-45.1832
-15.3213
-378.049
-317.947
-239.645
-148.689
-50.3727
-271.642
-228.61
-172.421
-107.03
-36.2667
-657.403
-551.558
-414.756
-256.887
-86.944
-549.325
-461.099
-346.875
-214.898
-72.7392
-985.768
-824.225
-617.836
-381.813
-129.074
-946.652
-791.678
-593.47
-366.718
-123.955
-1341.64
-1115.58
-832.274
-512.811
-173.132
-1406.73
-1169.72
-872.33
-537.141
-181.264
-1934.02
-1597.24
-1185.88
-729.251
-246.104
-2516.62
-2056.28
-1516.91
-931.712
-314.611
-3275.71
-2630.87
-1926.62
-1187.13
-402.42
-4950.1
-3872.56
-2824
-1768.29
-605.775
-5308.53
-4019.88
-2955.43
-1942.08
-711.199
-6422.08
-4758.37
-3537.7
-2421.44
-915.988
-2598.98
-2146.72
-1594.46
-981.021
-331.244
-3141.76
-2575.55
-1904.38
-1170.86
-395.646
-3427.63
-2781.52
-2047.24
-1260.61
-427.21
-3461.5
-2765.65
-2026.88
-1256.9
-429.223
-2959.14
-2310.97
-1693.04
-1073.18
-376.77
-2708.66
-2065.43
-1517.46
-989.516
-357.109
-154.35
-263.643
-482.652
-808.885
-1241.26
-1745.1
-114.755
-266.797
-572.203
-1033.91
-1637.93
-2341.56
-117.111
-51.5375
-229.919
-140.275
-460.92
-333.717
-806.22
-679.337
-1222.06
-1207.21
-1672.75
-1885
-2347.07
-3069.53
-4035.01
-6121.51
-6855.63
-8550.28
-3073.71
-3694.42
-4024.38
-4087.7
-3586.45
-3407.36
-138.936
-117.152
-88.5344
-55.0451
-18.6674
-237.12
-199.748
-150.811
-93.6984
-31.7646
-433.524
-364.645
-274.909
-170.616
-57.8078
-725.229
-608.752
-458.07
-283.907
-96.1281
-1110.06
-929.166
-697.455
-431.581
-146.021
-1554.65
-1296.02
-969.623
-598.884
-202.477
-103.229
-86.9932
-65.7057
-40.8321
-13.8423
-239.768
-201.818
-152.259
-94.5427
-32.0387
-513.516
-431.54
-325.077
-201.634
-68.2946
-926.057
-776.523
-583.798
-361.626
-122.408
-1463.01
-1223.07
-917.151
-567.209
-191.865
-2083.23
-1734.35
-1296.28
-800.277
-270.541
-105.501
-89.0226
-67.3244
-41.8843
-14.2123
-46.4471
-39.2114
-29.6685
-18.4648
-6.26734
-206.97
-174.507
-131.871
-81.99
-27.8098
-126.33
-106.581
-80.5903
-50.1294
-17.0067
-414.406
-348.931
-263.327
-163.552
-55.4402
-300.194
-252.933
-191.005
-118.689
-40.241
-723.561
-608.014
-457.968
-284.04
-96.209
-609.978
-512.866
-386.508
-239.807
-81.2392
-1093.96
-916.665
-688.694
-426.399
-144.302
-1081.25
-906.548
-681.429
-422.027
-142.84
-1491.01
-1243.67
-930.854
-575.044
-194.41
-1682.03
-1404.54
-1052.1
-650.183
-219.849
-2078.53
-1722.35
-1283.14
-791.186
-267.402
-2691.68
-2209.6
-1637.55
-1009.37
-341.467
-3478.16
-2811.59
-2071.71
-1282.3
-435.644
-5122.05
-4034.52
-2961.4
-1863.38
-639.581
-5425.01
-4134.54
-3057.97
-2018.47
-740.932
-6465.87
-4803.7
-3580.63
-2455.91
-929.711
-2719.41
-2251.36
-1676.11
-1033.17
-349.203
-3243.08
-2665.04
-1975.4
-1216.9
-411.637
-3492.7
-2841.17
-2096.38
-1293.53
-438.855
-3481.66
-2787.97
-2048.42
-1273.25
-435.36
-2953.41
-2310.39
-1696.6
-1078.41
-379.39
-2703.33
-2062.85
-1517.42
-991.099
-358.085
-18823.4
-13747.3
-3288.67
-2302.45
-1977.14
-2866.87
-2209.84
-12631
-13208.2
-10801.2
-12372.2
-5933.11
-9931.34
-4168.28
-4447.83
-3012.7
-20416.2
-9916.04
-2803.52
-4537.79
-7160.82
-4559.23
-5070.39
-3782.82
-1804.03
-3028.73
-3004.06
-3265.3
-18711
-11362.2
-11571.6
-7040.24
-7157.14
-7586.83
-3443.44
-4029.83
-4535.94
-12100.5
-10846.8
-8542.58
-7549.9
-6017.61
-9531.13
-6792.18
-5234.71
-3950.4
-1627.4
-2881.83
-2362.79
-1749.56
-1077.89
-364.232
-2042.15
-1694.66
-1263.74
-779.47
-263.402
-1750.58
-1450.16
-1079.9
-665.661
-225.004
-2550.34
-2122.73
-1586.12
-978.987
-330.911
-1952.88
-1614.73
-1201.11
-740.206
-250.188
-8844.95
-7536.31
-5928.26
-4981.45
-4472.47
-8850.11
-7682.86
-5951.68
-4653.32
-3234.52
-8097.68
-5898.61
-4481.25
-3184.54
-1310.08
-8649.39
-7086.72
-5362.18
-4086.64
-2375.4
-4936.35
-3866.51
-2830.23
-1786
-633.293
-7853.1
-5873.2
-4325.2
-2854.1
-1105.95
-3550.75
-2837.56
-2079.66
-1291.29
-445.08
-3773.51
-3004.69
-2199.82
-1368.13
-473.006
-2586.49
-2081.17
-1527.62
-944.771
-323.395
-13945.5
-11263.6
-8913.01
-7449.91
-5956.48
-7732.82
-5815.36
-4353.67
-2972.72
-1173.33
-2380.96
-1898.77
-1392.87
-867.858
-299.968
-3858.04
-3082.18
-2265.22
-1413.62
-487.708
-5914.67
-4615.99
-3395.42
-2169.76
-769.581
-3871.96
-3085.25
-2264.39
-1411.4
-483.38
-4372.74
-3529.19
-2598.63
-1607.59
-543.534
-3286.77
-2674.51
-1973.58
-1217.98
-413.435
-1571.53
-1281.58
-945.768
-582.71
-197.757
-2661.64
-2188.91
-1622.86
-999.68
-338.281
-2588.62
-2090.5
-1537.45
-950.631
-324.64
-2828.91
-2296.38
-1693.04
-1045.94
-356.012
-12087.3
-10260.4
-8170.33
-7101.72
-5544.24
-8249.21
-5977.92
-4560.07
-3317.8
-1365.95
-9165.74
-7208.61
-5474.35
-3991.54
-1649.97
-5692.61
-4230.6
-3125.92
-2053.87
-649.534
-5969.41
-4645.91
-3407.09
-2153.17
-720.453
-6143.15
-4561.22
-3371.31
-2214.94
-690.487
-2965.05
-2392.88
-1762.4
-1092.16
-371.868
-3529.81
-2893.24
-2141.07
-1318.58
-446.061
-3889.27
-3125.29
-2296.01
-1422.55
-484.709
-333.011
-935.899
-1479.38
-2022.39
-2591.97
-3128.82
-2714.2
-6925.12
-6359.61
-2664.74
-7899.98
-7428.35
-8196.85
-11146.9
-1553.14
-135.176
-2917.35
1718.76
-11349.8
-9890.94
2562.09
-1941.58
-5373.64
-5030.75
-2003.65
-5893.05
-3433.73
-6371.85
-6527.45
-662.536
1220.45
-1192.49
4389.91
-7674.86
-5296.86
4858.89
-1135.12
-3473.92
-3488.34
-1305.13
-3423.4
-316.644
-4468.52
-4310.96
-119.692
1401.67
311.458
4465.16
-4301.04
-249.873
5404.92
-696.096
-2312.96
-2621
-928.372
-1563.25
1289.08
-3511.93
-3769.6
124.941
966.108
724.67
3586.33
-2960.21
2073.93
5008.42
-565.62
-2089.78
-2399.78
-807.947
-1346.74
964.413
-3633.22
-4932.72
208.135
663.067
810.274
2886.51
-2872.77
1902.86
3216.14
-531.563
-2023
-2283.77
-761.36
-1812.95
-35.5961
-3500.51
-4848.75
244.864
1005.01
627.982
2842.73
-3650.64
564.55
2128.73
-1301.44
-3057.62
-4409.05
-1818.92
-6354.89
-11538.7
-7276.6
-12973.3
-1519.33
-1298.42
-4931.73
-3986.49
-1980.69
-8955.13
-4262.79
-1247.29
-2919.19
-3845.73
-1535.55
-5893.78
-9615.59
-6383.25
-9157.51
-1548.4
-1157.27
-4689.51
-3691.52
-1296.67
-8067.26
-4033.88
-1104.11
-2602.81
-3046.4
-1178.49
-5107.3
-7974.96
-5113.55
-7661.71
-1263.77
-1447.33
-3929.25
-4261.15
-1547.8
-6878.78
-4415.35
-1044.79
-2695.79
-2633.55
-971.246
-5116.18
-7368.11
-4769.38
-7138.89
-1247.04
-1702.44
-3831.08
-4963.03
-1964.61
-7185.4
-5067.96
-1005.76
-2569.36
-2481.53
-891.702
-4810.07
-7610.52
-4623.32
-7680.48
-1291.1
-2098.56
-3934.18
-6040.94
-2842.87
-8164.12
-6278.39
-988.135
-2498.76
-2388.16
-854.74
-4809.27
-7706.61
-4415.7
-7478.09
-1420.51
-2559.02
-4255.64
-6744.29
-3876.58
-8910.47
-6892.48
8319.92
10115.2
20587.2
32333.8
31350.5
61093
21502
64583.4
22065.6
51653
27164.6
44816.2
20724.8
27565.4
9606.51
9792.36
15414.6
17813.5
20680.9
18950.5
14237.5
21422.2
21034.9
21071.9
5629.07
4239.47
7569.54
5541.68
13988.9
9454.22
25535.5
18170.7
21242.4
21825.1
22088.1
23073.9
5535.52
4649.73
48713.1
60225.2
26184.7
34786.2
61965.1
76372.9
28838.7
35481.5
36931.1
48247.1
29742.4
40950.8
17281.5
21714.8
3460.89
1125.41
4367.61
1544.14
8289.27
3448.98
14024
5213.06
9592.86
3187.32
9289.5
2659.08
18025
5303.15
23535.8
7457.62
29421.6
17088.2
24715
17097.5
29414.3
19021.8
23266
18570.4
19705.7
14298.4
21887.3
14062.6
23960.2
17493.2
24778.2
17874.1
22782.5
18761.3
23690.2
19065
20184.4
14925.7
21701.8
15405.2
21858.1
9198.67
12825.4
14917.1
23687.3
10767.1
12986.9
15940.2
21807.4
8486.88
13248.9
14507.3
22529.8
8509.74
13838.1
14548.2
3360.83
3819.53
1210.39
2509.57
10256
12128.1
4384.88
8664.75
16759.2
19928.9
8047.1
14694.4
18650.5
9569.95
20172.1
25454.3
13440.7
6599.6
10657.2
13939.6
25869.2
18070.5
11618.2
15695.6
18036.7
18221
23272.6
3567.26
3597.07
2255.88
2416.97
11423.9
10472.9
7797.8
7747.26
17061.2
14938.1
11599.5
11391.9
9913.39
10919.3
15616.3
16574.2
19005.8
17734.1
23466.1
21093.3
17553.5
17332.5
13886.3
14222.5
18088.3
15390.9
17617
13680.8
16424.3
12183.2
19364.8
14775.6
14808.2
6742.66
11835.6
10797.2
16197
17874.5
16593.3
20834.9
10212.8
9379.1
13682.8
4803.12
11659.9
17552.9
12219.3
19007.3
16959.7
25816.1
17671.3
26734.7
10198.9
15870.2
10737.2
17465.5
12745
8770.3
17004.4
7025.11
13463.6
3537.12
15977.7
2377.86
13481.5
13166.3
17950.1
8873.38
12348.8
15412
16636.3
11440.6
3191.21
2843.76
2267.81
2124.91
2008.09
1664.02
9198.41
7388.62
5965.94
6300.29
4896.83
3830.61
11703.7
9101
7780.86
9134.66
6709.29
5613.99
9267.13
6622.62
5793.51
14965.1
9834.74
7242.57
14376.2
9373.02
6506.08
16502.8
11669.7
8955.04
14148.3
8775.31
5868.76
17321
12674.5
10260.7
13394.5
9479.38
6993.59
12587.4
8425.85
5827.67
11978.7
7991.21
5547.94
14082.7
7714.05
4167.27
12353.9
19815.1
10689.8
14978.1
10490.6
21171.4
8952.5
17484.2
142.752
1552.43
-236.615
952.977
3535.78
6641.5
2302.5
4191.86
2126.52
4116.37
11493.1
16793
8720.26
6835.82
12646.4
11110.8
17465.4
18766.2
-439.421
-5764.07
8871.83
6180.06
6860.32
3908.06
1417.92
916.716
1204.72
776.849
3895.23
1199.86
2114.65
408.764
10003.6
2827.68
7804.45
2430.54
8803.36
2634.36
9870.38
3145.12
13246.9
12592.3
10240.5
12330.9
20667.6
18148.4
16798.6
17073.7
7260.84
8965.69
8506.14
8369.65
9539.27
12133.1
9976.69
12177.8
15997.6
16598.6
16559
16656.3
6386.3
8996.86
6129.23
9038.86
574.753
1005.81
6651.09
3111.7
616.217
785.128
5860.04
2615.68
553.598
889.186
6959.4
3414.42
798.368
963.757
6969.89
3576.93
-173.308
-312.76
410.199
224.506
-844.139
-1349.38
650.331
295.233
982.481
-41.4625
2092.41
1630.29
-7032.24
-3553.72
-4099.83
-2840.26
-227.305
-6895.34
-9786.58
-4454.05
-4555.8
-290.938
10153.3
7147.51
5397.91
5045.87
2427.82
-453.19
-356.1
84.9763
105.972
-1356.87
-1365.58
254.98
284.734
-1217.53
-1549.44
892.65
891.934
-2564.9
-799.681
-7155.28
-4480.11
-3665.93
-2289.35
-3429.3
-2595.64
-148.051
259.612
5530.74
3930.75
55.7181
-1356.34
-449.902
-1377.46
150.194
-691.415
176.07
309.3
4227
4402.62
9413.26
5877.18
8980.7
8243.7
13152.9
9926.97
6679.67
3961.35
2333.66
2840.98
11053.1
4752.86
11842.6
4468.24
15057.4
9682.16
16080.9
9461.39
8009.01
2907.4
8666.44
2541.43
4382.51
3226.07
2561.73
4514.76
2012.58
2568.23
1497.71
3701.07
4818.85
2905.32
3185.39
5194.24
5904.19
2655.35
3945
5013.02
-366.271
-383.121
-415.631
61.6851
-82.0104
-98.3172
-1336.07
-1365.33
-1375.65
98.639
-318.824
-362.442
-1653.79
-1985.47
-2081.6
459.38
-564.891
-736.051
-21.1448
-640.639
-562.525
-2756.88
-2861.13
-2557.77
-2077.69
-2285.79
-2144.48
-2321.64
-2564.3
-2515.66
197.521
-806.965
-724.661
4536.98
2344.44
1376.42
-146.086
-1082.36
-1404.79
-562.527
-1382.49
-1589.48
-380.098
-1246.13
-1412.79
1004.27
-492.885
-582.641
74.3302
10.5738
-5.5374
-14.2814
-35.2503
-39.1654