/*--------------------------------*- C++ -*----------------------------------*\
| =========                 |                                                 |
| \\      /  F ield         | OpenFOAM: The Open Source CFD Toolbox           |
|  \\    /   O peration     | Version:  2412                                  |
|   \\  /    A nd           | Website:  www.openfoam.com                      |
|    \\/     M anipulation  |                                                 |
\*---------------------------------------------------------------------------*/
FoamFile
{
    version     2.0;
    format      ascii;
    arch        "LSB;label=32;scalar=64";
    class       volScalarField;
    location    "1";
    object      T;
}
// * * * * * * * * * * * * * * * * * * * * * * * * * * * * * * * * * * * * * //

dimensions      [0 0 0 1 0 0 0];

internalField   nonuniform List<scalar> 
5712
(
535.365
554.398
520.852
543.583
501.697
527.751
472.645
500.662
476.791
505.028
503.81
531.825
516.343
542.049
528.187
550.492
491.253
472.252
511.054
482.212
463.025
443.013
481.334
451.315
543.839
550.959
558.992
562.595
532.526
541.855
550.442
556.069
531.327
516.241
501.987
493.158
531.575
544.376
533.688
539.987
491.472
499.498
507.674
514.051
460.266
467.012
546.302
552.042
512.869
523.689
558.022
564.659
555.797
565.661
565.411
569.999
547.394
562.435
559.565
567.829
535.98
556.933
547.552
563.051
555.511
565.887
560.242
567.618
455.638
438.735
464.873
443.326
420.657
405.985
429.671
410.86
494.607
473.42
486.043
468.419
471.006
446.283
474.38
447.681
435.815
413.965
439.097
415.415
500.68
476.633
503.997
478.124
523.401
555.044
504.685
542.004
515.411
549.803
498.786
537.096
528.699
557.585
508.089
544.749
531.406
558.622
509.552
546.338
548.908
534.367
561.325
550.578
539.33
524.747
557.204
545.172
525.598
510.67
550.048
536.593
436.651
397.107
473.508
503.959
539.815
395.484
433.806
467.263
495.388
527.759
394.826
430.862
461.952
490.546
527.339
505.79
479.213
510.561
485.078
499.984
473.634
508.576
482.759
490.609
465.482
505.02
479.346
387.352
371.983
424.542
407.623
454.991
434.314
478.985
455.682
501.878
476.491
386.23
369.676
420.417
403.159
449.489
429.882
475.456
453.02
500.564
474.828
421.043
408.475
421.532
409.662
386.404
364.785
386.279
363.095
452.709
443.008
451.436
440.019
421.887
409.791
422.853
410.969
386.985
362.835
388.237
364.556
453.17
443.462
454.284
444.745
482.119
472.554
508.27
499.255
479.772
468.096
505.722
493.53
482.617
473.106
509.254
501.031
483.286
473.962
509.559
500.912
448.246
422.214
407.83
451.679
424.55
409.925
443.845
417.498
403.139
449.355
421.36
406.302
435.254
408.521
393.955
445.628
416.202
400.532
352.045
336.761
328.755
384.71
363.398
351.867
408.63
383.514
369.574
426.295
399.369
384.752
441.238
410.348
393.772
348.839
333.229
324.717
381.705
361.623
350.723
404.745
380.728
367.584
422.486
394.544
379.388
436.104
404.986
388.513
397.337
383.067
401.411
387.43
428.325
410.564
437.705
417.329
367.929
347.323
369.156
349.158
368.932
347.884
370.643
350.214
368.551
365.521
367.835
361.534
346.895
350.704
390.098
392.72
421.987
425.918
369.776
371.632
370.082
371.353
352.64
353.618
325.892
307.17
331.006
309.958
327.379
306.908
332.331
310.008
328.393
306.443
334.439
310.435
336.976
312.047
338.408
313.168
360.649
348.403
367.894
353.332
387.523
373.319
396.318
378.787
346.902
333.688
339.926
329.4
371.804
356.155
373.906
357.483
401.419
381.969
404.134
383.377
350.229
336.16
351.822
337.374
329.423
308.021
318.619
303.54
323.612
304.8
315.345
301.464
332.553
310.092
320.644
304.875
334.134
311.4
321.769
305.638
309.522
300.115
301.443
295.813
310.666
301.634
301.241
295.999
312.119
304.821
300.939
296.759
340.175
362.851
324.287
313.806
300.35
360.741
336.73
318.751
308.107
297.212
361.005
338.53
322.301
310.774
298.999
293.409
287.846
290.609
285.608
295.434
289.635
291.39
286.466
298.968
293.166
292.733
287.942
353.403
340.022
329.888
319.074
313.97
306.534
303.76
297.592
294.458
289.872
353.165
339.382
331.983
321.18
316.884
308.668
306.079
299.279
296.599
291.942
335.096
321.947
336.425
321.855
355.031
337.937
356.518
336.681
321.011
310.361
319.768
309.949
337.521
321.831
338.751
323.111
358.23
335.728
359.706
337.196
321.922
310.74
322.882
311.706
308.439
300.857
298.704
292.73
308.058
300.135
298.074
292.469
308.692
301.552
299.03
292.864
309.869
302.136
299.465
293.683
281.681
278.266
276.9
277.872
275.634
274.865
283.578
279.763
278.136
278.632
276.23
275.327
286.713
282.322
280.475
279.847
277.115
276.095
325.128
314.302
308.926
308.629
300.973
297.352
298.158
292.251
289.639
290.23
285.266
283.105
281.077
278.11
276.88
323.715
312.386
306.709
309.434
300.731
296.39
299.25
292.492
289.241
290.767
285.794
283.653
281.945
278.876
277.358
292.507
284.067
279.556
276.795
293.608
284.458
279.735
276.843
292.377
284.056
279.59
276.84
293.708
284.546
279.842
276.919
292.114
284.01
279.648
276.911
293.817
284.663
279.975
277.012
294.532
285.021
280.073
277.036
295.157
285.373
280.169
277.06
292.991
284.432
279.881
277.031
291.441
283.915
279.553
277
291.634
283.888
279.639
276.981
290.555
283.539
279.387
276.974
293.942
284.858
280.019
277.051
292.128
284.238
279.673
277.03
294.609
285.196
280.148
277.102
292.643
284.508
279.802
277.097
290.676
283.448
279.295
276.747
288.601
282.746
278.952
276.703
290.541
283.421
279.302
276.778
288.617
282.766
278.96
276.731
290.323
283.372
279.311
276.829
288.815
282.859
279.005
276.781
289.998
283.29
279.288
276.892
288.932
282.922
279.052
276.855
289.646
283.194
279.209
276.942
286.809
282.175
278.539
276.72
285.837
281.905
278.35
276.694
287.078
282.275
278.592
276.752
286.14
282.015
278.401
276.723
287.53
282.448
278.674
276.802
286.663
282.209
278.483
276.773
288.107
282.661
278.804
276.881
287.352
282.462
278.605
276.84
288.878
282.945
278.959
276.961
288.075
282.732
278.726
276.907
289.942
283.456
279.127
277.055
289.087
283.249
278.938
277.029
289.472
283.203
279.047
277.012
288.68
283.008
278.839
276.971
290.316
283.69
279.187
277.089
289.432
283.478
279.011
277.076
290.701
283.927
279.289
277.147
289.817
283.708
279.111
277.137
275.055
274.142
273.62
273.345
273.228
275.064
274.144
273.621
273.345
273.228
275.07
274.148
273.623
273.346
273.229
275.083
274.152
273.625
273.347
273.229
275.085
274.155
273.626
273.347
273.229
275.109
274.165
273.63
273.349
273.23
275.15
274.184
273.639
273.353
273.233
275.187
274.201
273.647
273.357
273.235
275.124
274.172
273.633
273.351
273.231
275.125
274.172
273.633
273.351
273.231
275.101
274.162
273.629
273.349
273.23
275.111
274.166
273.631
273.35
273.231
275.15
274.183
273.638
273.353
273.233
275.148
274.183
273.638
273.353
273.233
275.188
274.203
273.648
273.358
273.235
275.185
274.202
273.647
273.357
273.235
275.044
274.139
273.619
273.344
273.228
275.036
274.137
273.618
273.344
273.227
275.055
274.143
273.621
273.345
273.228
275.047
274.141
273.62
273.345
273.228
275.069
274.149
273.623
273.346
273.229
275.062
274.146
273.622
273.346
273.228
275.087
274.156
273.626
273.348
273.229
275.079
274.153
273.625
273.347
273.229
275.1
274.161
273.629
273.349
273.23
522.259
515.423
521.804
515.014
520.925
514.268
520
513.235
519.772
512.719
523.404
519.794
521.637
516.856
524.43
521.112
525.098
521.783
562.177
570.585
572.445
572.874
572.968
553.158
568.133
571.882
572.752
572.938
562.437
570.682
572.472
572.881
572.969
553.288
568.227
571.912
572.761
572.941
562.623
570.774
572.499
572.888
572.971
553.378
568.324
571.945
572.77
572.943
562.905
570.883
572.527
572.894
572.973
553.478
568.409
571.969
572.775
572.944
563.223
570.957
572.54
572.896
572.973
553.682
568.452
571.971
572.773
572.943
562.181
570.486
572.396
572.857
572.961
553.885
568.121
571.827
572.728
572.928
562.55
570.689
572.463
572.876
572.967
553.701
568.269
571.899
572.752
572.936
561.952
570.357
572.351
572.843
572.957
554.033
568.051
571.785
572.713
572.923
562.187
570.4
572.356
572.843
572.956
554.29
568.09
571.783
572.709
572.921
404.383
446.265
443.297
402.369
383.197
385.142
390.832
394.205
404.494
408.046
432.846
440.816
437.792
445.449
413.617
416.501
403.735
406.405
394.588
396.734
340.729
323.354
284.916
281.442
283.324
281.503
284.253
337.292
328.88
313.878
316.685
310.138
296.074
303.782
298.534
291.928
293.837
290.609
333.436
308.727
294.715
293.431
298.79
295.875
290.456
289.876
287.434
285.945
290.389
289.65
334.998
315.048
320.533
305.414
299.651
309.687
290.772
285.93
292.722
326.293
313.782
303.67
293.681
281.005
314.529
305.79
297.318
288.585
278.515
283.602
281.825
279.594
277.069
274.375
280.544
279.31
277.733
275.927
273.99
282.214
280.693
278.759
276.556
274.202
280.602
279.36
277.77
275.949
273.997
283.026
281.356
279.248
276.855
274.303
323.862
310.994
300.844
291.249
280.163
316.296
305.016
295.987
287.498
278.163
306.852
299.452
292.159
284.871
277.109
307.07
298.192
290.85
283.965
276.896
302.251
294.6
288.22
282.248
276.198
292.949
289.14
284.808
280.21
275.432
298.917
293.496
287.816
282.038
276.07
294.719
290.301
285.516
280.594
275.558
289.568
286.556
282.984
279.106
275.056
291.086
287.677
283.745
279.551
275.204
288.467
285.696
282.369
278.732
274.93
321.546
309.739
300.182
290.867
279.927
303.278
297.106
290.626
283.92
276.743
291.935
288.445
284.368
279.966
275.351
290.896
287.663
283.83
279.649
275.245
295.327
291.102
286.308
281.184
275.774
292.991
289.344
285.068
280.418
275.505
288.403
285.712
282.443
278.813
274.963
287.902
285.305
282.136
278.619
274.896
285.793
283.6
280.881
277.844
274.634
284.505
282.562
280.13
277.391
274.482
288.311
285.603
282.326
278.72
274.928
287.698
285.133
282.001
278.53
274.866
322.41
310.73
301.235
291.812
280.25
308.304
301.116
293.782
286.123
277.582
312.992
303.88
295.692
287.319
277.665
300.91
295.517
289.595
283.28
276.479
296.174
291.849
286.9
281.56
275.888
304.246
297.854
291.209
284.284
276.774
288.671
285.925
282.592
278.9
274.992
284.487
282.545
280.119
277.386
274.481
290.318
287.223
283.524
279.466
275.183
489.706
538.071
480.653
526.463
454.272
504.014
462.499
516.774
470.222
457.705
503.396
475.513
443.514
429.83
474.441
445.204
509.686
526.599
547.619
554.487
502.798
519.816
540.006
548.458
523.116
495.826
495.518
479.313
514.389
537.466
531.031
539.38
488.322
498.665
504.912
513.294
457.259
466.127
543.735
551.517
510.056
522.989
556.135
564.357
542.088
561.062
560.618
568.399
534.299
558.252
554.721
566.261
525.446
553.676
542.678
561.467
553.689
565.238
559.87
567.473
450.295
437.88
461.319
442.409
417.392
407.056
427.099
410.858
490.887
472.195
480.091
466.731
469.152
445.687
473.85
447.476
434.354
413.784
438.66
415.334
498.816
475.92
503.469
477.886
520.314
553.977
503.691
541.686
510.145
548.019
497.281
536.705
527.204
557.053
507.532
544.559
530.991
558.469
509.369
546.275
527.471
510.971
554.353
542.956
519.431
503.646
551.237
538.907
510.072
495.312
545.736
532.669
438.356
406.736
469.013
497.384
537.698
406.636
435.799
461.826
487.665
525.764
402.953
432.883
460.476
488.531
527.09
485.577
465.543
503.953
485.371
481.694
461.544
503.718
484.304
477.272
457.818
502.873
482.835
398.055
385.374
426.701
412.722
451.048
434.424
473.817
455.504
501.785
481.279
394.574
379.782
423.865
410.259
450.146
435.325
475.688
458.28
501.901
480.417
423.124
412.246
422.631
411.611
390.789
370.758
388.539
366.354
453.156
444.229
452.214
442.565
422.361
410.661
422.978
411.205
387.94
364.211
388.496
364.937
453.362
444.002
454.329
444.888
482.388
473.388
508.625
499.967
480.233
470.127
506.463
495.378
482.739
473.45
509.403
501.304
483.314
474.057
509.594
500.977
450.518
442.62
468.656
460.835
446.238
437.524
466.919
457.391
442.186
432.837
464.041
451.864
372.623
365.38
399.748
390.656
420.702
410.239
439.599
428.405
459.974
445.052
363.432
357.206
397.1
388.763
420.371
409.897
439.157
425.909
454.196
439.016
383.918
375.875
394.051
383.683
412.411
400.45
430.977
412.304
364.062
345.593
369.173
349.386
362.432
345.785
368.224
349.882
365.798
359.572
366.058
358.366
345.703
350.289
388.088
392.094
419.319
425.073
368.29
371.152
369.029
370.993
352.358
353.525
332.038
314.124
334.207
314.92
332.898
313.395
334.913
314.309
333.359
312.225
336.353
313.807
337.895
314.014
338.682
313.822
362.604
353.614
367.916
355.663
386.999
376.843
395.009
380.046
348.429
336.741
344.33
335.389
371.565
357.167
373.809
357.782
400.505
382.397
403.839
383.485
350.768
337.619
351.954
337.826
332.196
311.099
321.864
306.42
329.591
309.903
321.155
306.066
333.793
311.75
322.301
306.454
334.48
311.916
322.302
306.149
328.404
325.454
312.23
309.587
328.953
326.027
311.323
308.731
328.701
325.929
309.962
307.554
356.095
378.195
339.003
326.198
308.034
378.848
356.49
338.243
324.561
306.532
374.028
351.888
334.173
320.555
305.573
322.279
317.708
305.804
299.436
323.01
318.667
305.282
299.256
322.889
318.377
304.454
298.836
371.295
360.611
350.654
342.466
334.559
329.066
321.381
316.234
304.175
299.108
366.056
352.897
345.952
335.709
329.656
321.821
316.603
309.85
303.666
299.091
342.413
329.495
340.188
325.805
361.64
345.37
359.857
340.634
324.787
314
326.825
316.805
339.212
323.546
339.237
323.596
359.654
337.408
360.101
337.664
323.692
312.36
323.407
312.174
311.784
303.876
301.482
295.044
314.176
305.714
302.7
296.526
310.36
302.979
300.482
293.993
310.409
302.577
299.888
294.006
313.183
311.239
288.207
286.642
315.24
312.802
288.604
286.917
313.948
310.437
288.85
286.78
350.497
344.51
334.915
330.45
322.863
319.137
310.244
306.5
288.987
286.42
339.889
335.214
325.568
321.646
313.341
310.064
301.634
299.334
287.773
285.701
296.803
286.334
280.755
277.407
297.202
286.473
280.844
277.421
296.401
286.191
280.722
277.415
296.86
286.335
280.839
277.442
295.71
285.934
280.683
277.445
296.337
286.116
280.799
277.442
296.111
285.964
280.603
277.302
295.707
285.709
280.361
277.16
295.088
285.63
280.562
277.399
293.344
285.001
280.169
277.359
294.686
285.537
280.539
277.458
293.356
285.062
280.201
277.418
295.18
285.595
280.455
277.301
293.233
284.891
280.06
277.269
295.022
285.448
280.297
277.186
293.006
284.728
279.933
277.179
296.029
286.061
280.611
277.409
294.921
285.691
280.353
277.413
295.625
285.928
280.568
277.415
294.597
285.595
280.309
277.418
294.978
285.704
280.496
277.433
294.102
285.433
280.252
277.429
294.046
285.357
280.351
277.45
293.614
285.252
280.19
277.454
293.251
285.068
280.163
277.451
293.689
285.349
279.959
277.503
292.844
285.173
279.792
277.52
293.516
285.295
279.96
277.51
292.692
285.119
279.787
277.521
293.203
285.186
279.938
277.51
292.432
285.017
279.759
277.516
292.943
285.058
279.942
277.523
292.235
284.897
279.745
277.515
292.669
284.9
279.935
277.528
291.993
284.75
279.708
277.502
291.833
284.55
279.715
277.42
290.949
284.347
279.517
277.395
292.296
284.744
279.844
277.489
291.502
284.565
279.629
277.462
291.393
284.343
279.547
277.32
290.471
284.126
279.361
277.302
291.044
284.141
279.409
277.225
290.144
283.918
279.226
277.212
275.333
274.272
273.68
273.373
273.244
275.332
274.271
273.679
273.373
273.244
275.327
274.268
273.678
273.372
273.243
275.322
274.265
273.676
273.371
273.243
275.318
274.263
273.675
273.371
273.243
275.301
274.255
273.672
273.369
273.242
275.27
274.24
273.665
273.366
273.24
275.233
274.224
273.657
273.362
273.238
275.29
274.25
273.669
273.368
273.241
275.289
274.25
273.669
273.368
273.241
275.306
274.257
273.673
273.369
273.242
275.3
274.254
273.671
273.369
273.241
275.269
274.24
273.665
273.366
273.24
275.267
274.24
273.665
273.366
273.24
275.228
274.222
273.657
273.362
273.237
275.227
274.222
273.657
273.362
273.237
275.334
274.273
273.68
273.373
273.244
275.335
274.274
273.681
273.373
273.244
275.33
274.27
273.679
273.372
273.244
275.333
274.271
273.679
273.373
273.244
275.324
274.266
273.677
273.371
273.243
275.329
274.268
273.677
273.372
273.243
275.316
274.261
273.674
273.37
273.242
275.321
274.263
273.675
273.371
273.242
275.308
274.257
273.673
273.369
273.242
520.203
514.893
520.437
515.111
520.628
515.312
520.6
515.044
520.847
514.848
523.845
520.346
522.431
518.047
524.632
521.34
525.153
521.842
562.003
570.572
572.445
572.874
572.968
553.027
568.118
571.881
572.752
572.938
562.349
570.681
572.473
572.881
572.969
553.3
568.235
571.914
572.761
572.941
562.664
570.789
572.502
572.888
572.971
553.603
568.365
571.952
572.771
572.943
563.054
570.911
572.532
572.895
572.973
553.881
568.478
571.981
572.777
572.945
563.415
570.99
572.546
572.897
572.973
554.141
568.53
571.984
572.775
572.943
562.288
570.509
572.401
572.858
572.961
554.087
568.168
571.837
572.73
572.929
562.718
570.721
572.469
572.877
572.967
554.051
568.339
571.912
572.754
572.937
562.007
570.37
572.354
572.844
572.957
554.128
568.076
571.79
572.714
572.923
562.203
570.404
572.357
572.843
572.956
554.316
568.097
571.785
572.71
572.921
403.379
445.131
439.682
398.895
388.985
396.639
386.891
396.208
418.394
437.864
422.614
441.081
274.02
274.255
274.781
275.676
277.027
278.941
274.207
274.457
275.008
275.922
277.286
279.21
273.873
273.802
274.098
274.019
274.614
274.523
275.528
275.449
276.934
276.935
278.962
279.131
281.519
285.139
290.457
298.429
305.578
310.9
281.837
285.365
289.961
295.399
300.301
303.462
273.92
273.778
273.59
273.368
273.125
274.132
273.956
273.724
273.451
273.153
274.605
274.355
274.025
273.638
273.216
275.407
275.029
274.532
273.952
273.323
276.617
276.042
275.294
274.424
273.482
278.325
277.468
276.36
275.082
273.705
274.089
273.92
273.697
273.434
273.148
274.313
274.109
273.839
273.523
273.177
274.808
274.525
274.152
273.717
273.243
275.627
275.212
274.67
274.037
273.352
276.846
276.232
275.435
274.51
273.512
278.56
277.661
276.503
275.169
273.734
273.788
273.667
273.506
273.315
273.107
273.724
273.613
273.465
273.29
273.098
273.991
273.838
273.635
273.396
273.134
273.919
273.778
273.59
273.367
273.125
274.455
274.228
273.93
273.579
273.196
274.373
274.16
273.878
273.547
273.186
275.275
274.919
274.45
273.902
273.306
275.205
274.86
274.406
273.874
273.297
276.535
275.975
275.244
274.393
273.472
276.536
275.976
275.245
274.394
273.472
278.345
277.486
276.375
275.091
273.708
278.496
277.613
276.47
275.15
273.728
280.611
279.365
277.773
275.952
273.999
283.797
281.986
279.715
277.145
274.401
288.416
285.741
282.478
278.843
274.975
295.199
291.16
286.448
281.303
275.814
301.091
295.789
289.857
283.473
276.581
305.37
299.108
292.318
285.075
277.156
280.889
279.591
277.94
276.054
274.033
283.995
282.149
279.836
277.22
274.427
288.005
285.423
282.252
278.706
274.929
292.692
289.214
285.04
280.427
275.514
296.86
292.555
287.499
281.958
276.04
299.52
294.676
289.064
282.942
276.382
274.039
274.318
274.904
275.886
277.365
279.452
274.229
274.526
275.138
276.136
277.607
279.663
273.89
273.818
274.155
274.073
274.73
274.634
275.74
275.661
277.299
277.317
279.572
279.849
282.229
286.046
291.504
299.403
306.265
311.147
282.429
286.076
290.723
296.086
300.78
303.634
273.938
273.793
273.601
273.375
273.127
274.189
274.005
273.761
273.474
273.161
274.716
274.449
274.097
273.683
273.232
275.598
275.192
274.657
274.03
273.35
276.924
276.304
275.494
274.549
273.525
278.789
277.864
276.664
275.273
273.77
274.109
273.937
273.71
273.442
273.15
274.376
274.163
273.88
273.548
273.186
274.926
274.626
274.23
273.765
273.26
275.821
275.377
274.796
274.116
273.378
277.138
276.481
275.625
274.63
273.552
278.973
278.013
276.773
275.339
273.792
273.804
273.68
273.516
273.322
273.109
273.738
273.625
273.474
273.296
273.1
274.043
273.882
273.669
273.417
273.142
273.968
273.819
273.621
273.387
273.132
274.56
274.318
273.998
273.622
273.211
274.474
274.246
273.944
273.588
273.2
275.468
275.083
274.575
273.98
273.333
275.397
275.023
274.531
273.953
273.323
276.867
276.257
275.46
274.529
273.518
276.883
276.272
275.471
274.536
273.521
278.899
277.959
276.737
275.319
273.786
279.149
278.17
276.896
275.418
273.819
281.259
279.919
278.199
276.22
274.09
284.627
282.7
280.266
277.493
274.52
289.381
286.577
283.129
279.258
275.118
296.109
291.96
287.082
281.714
275.956
301.742
296.37
290.325
283.782
276.69
305.608
299.323
292.493
285.193
277.198
281.429
280.054
278.296
276.279
274.11
284.645
282.708
280.268
277.493
274.52
288.705
286.029
282.723
279.005
275.032
293.329
289.769
285.476
280.706
275.61
297.307
292.949
287.81
282.159
276.11
299.681
294.818
289.177
283.016
276.407
341.159
323.721
286.159
282.337
285.077
282.737
285.834
344.171
340.465
321.017
330.875
301.532
311.199
296.709
300.213
295.175
337.419
313.021
298.8
296.658
302.398
298.425
292.068
292.21
290.935
288.643
294.072
292.59
336.443
316.124
323.197
307.032
301.724
312.768
292.818
287.992
295.429
326.757
314.225
304.064
293.985
281.129
314.896
306.13
297.606
288.788
278.59
284.737
282.8
280.345
277.543
274.537
281.359
280.007
278.267
276.263
274.105
283.808
282.054
279.802
277.212
274.426
281.722
280.315
278.501
276.409
274.154
284.466
282.59
280.196
277.454
274.507
331.109
317.788
306.637
295.405
281.828
328.294
315.78
304.937
293.804
280.623
313.798
305.713
297.256
288.306
278.358
321.439
310.581
300.828
290.782
279.511
298.05
293.606
288.322
282.482
276.225
306.019
299.799
292.854
285.361
277.258
293.976
290.376
285.958
281.007
275.713
296.967
292.77
287.712
282.094
276.087
292.668
289.33
285.192
280.533
275.551
325.669
313.628
303.518
293.267
280.891
307.388
300.791
293.603
285.898
277.448
295.73
291.757
286.965
281.636
275.931
293.884
290.265
285.866
280.954
275.697
298.705
294.077
288.663
282.712
276.308
295.362
291.418
286.698
281.468
275.869
289.888
287
283.445
279.453
275.183
290.046
287.16
283.576
279.535
275.211
288.98
286.326
282.977
279.169
275.087
286.958
284.657
281.738
278.405
274.829
291.697
288.531
284.6
280.168
275.427
290.398
287.464
283.809
279.68
275.261
323.939
312.156
302.471
292.725
280.627
309.353
302.072
294.57
286.66
277.777
315.637
306.29
297.693
288.686
278.129
302.445
296.885
290.693
284.001
276.729
298.115
293.56
288.255
282.439
276.192
307.201
300.504
293.353
285.707
277.271
290.556
287.558
283.863
279.711
275.271
286.369
284.159
281.361
278.171
274.75
292.819
289.398
285.223
280.553
275.558
276.504
283.291
289.628
295.389
300.277
304.144
466.274
460.267
434.533
440.42
451.341
443.843
426.116
416.462
488.655
509.022
483.96
503.477
477.711
467.156
497.696
453.624
449.34
424.866
429.286
442.076
436.69
417.98
410.663
474.937
490.68
471.986
486.974
466.98
458.457
482.702
435.86
433.366
411.068
413.945
428.423
425.627
406.113
401.055
454.768
470.168
453.087
468.032
450.224
444.703
465.379
417.801
416.276
396.349
398.398
412.851
411.311
392.518
388.421
435.498
450.746
434.482
449.044
432.353
427.912
446.876
404.726
403.487
385.527
387.313
400.277
398.542
381.933
377.397
420.9
434.7
420.238
434.037
418.46
414.264
432.27
395.705
394.539
378.172
379.856
391.409
389.583
374.736
370.357
410.132
424.054
409.506
423.814
408.024
404.06
421.975
381.229
378.355
405.679
409.687
374.612
367.48
399.772
390.386
357.783
338.69
355.59
338.335
350.836
349.709
337.683
376.272
373.51
398.759
402.143
369.953
363.306
393.499
385.274
352.373
336.392
350.124
336.311
345.981
345.296
335.615
368.903
366.453
388.421
391.021
363.27
357.656
384.177
377.686
349.616
334.809
347.675
334.198
343.966
343.226
332.997
360.592
358.269
376.846
378.994
354.767
349.042
373.081
366.789
344.918
332.16
342.884
330.834
339.091
337.609
328.779
354.455
352.219
368.324
370.298
348.911
343.349
364.729
358.583
341.168
330.589
338.949
328.289
334.952
332.745
325.254
350.53
348.335
362.629
364.523
345.145
339.682
359.163
353.315
339.454
329.023
337.088
326.085
332.458
329.744
322.607
536.091
554.882
520.85
543.551
501.698
527.739
472.651
500.662
476.801
505.029
503.823
531.819
516.365
542.037
529.143
551.14
491.251
472.249
511.048
482.208
463.027
443.013
481.334
451.315
544.364
551.355
559.32
562.839
532.516
541.835
550.405
556.035
531.313
516.231
501.98
493.152
531.56
544.359
533.686
539.986
491.469
499.496
507.674
514.051
460.265
467.011
546.298
552.04
512.866
523.687
558.018
564.658
556.114
565.806
565.605
570.079
547.368
562.428
559.537
567.821
535.966
556.928
547.54
563.047
555.506
565.886
560.241
567.617
455.635
438.733
464.87
443.324
420.656
405.984
429.67
410.858
494.602
473.417
486.038
468.416
471.004
446.281
474.378
447.68
435.814
413.963
439.096
415.414
500.676
476.631
503.994
478.122
523.396
555.041
504.683
542.003
515.404
549.8
498.782
537.094
528.696
557.584
508.087
544.748
531.403
558.621
509.55
546.337
549.224
534.66
561.503
550.774
539.294
524.704
557.195
545.158
525.58
510.653
550.042
536.589
436.648
397.105
473.502
503.951
539.812
395.482
433.803
467.258
495.38
527.757
394.824
430.859
461.948
490.542
527.338
506.019
479.381
510.721
485.185
499.967
473.611
508.591
482.766
490.599
465.473
505.023
479.349
387.35
371.982
424.539
407.621
454.987
434.311
478.979
455.677
501.878
476.492
386.229
369.675
420.415
403.158
449.486
429.88
475.453
453.018
500.563
474.828
421.041
408.474
421.531
409.66
386.403
364.784
386.278
363.094
452.707
443.007
451.433
440.017
421.885
409.79
422.852
410.968
386.984
362.834
388.236
364.555
453.169
443.46
454.282
444.744
482.117
472.553
508.269
499.254
479.77
468.094
505.721
493.529
482.616
473.104
509.253
501.03
483.284
473.961
509.558
500.911
448.408
422.39
408.026
451.781
424.68
410.076
443.832
417.488
403.135
449.359
421.363
406.307
435.249
408.517
393.954
445.63
416.204
400.534
352.045
336.761
328.754
384.708
363.397
351.867
408.628
383.513
369.574
426.292
399.368
384.751
441.238
410.349
393.773
348.838
333.228
324.717
381.703
361.622
350.722
404.744
380.727
367.583
422.485
394.544
379.387
436.104
404.986
388.514
397.344
383.07
401.419
387.432
428.331
410.566
437.711
417.33
367.793
347.265
368.99
349.08
368.916
347.872
370.627
350.202
368.548
365.517
367.835
361.534
346.89
350.7
390.1
392.721
421.988
425.919
369.776
371.633
370.082
371.354
352.639
353.619
325.842
307.164
330.945
309.947
327.377
306.899
332.328
310.002
328.39
306.439
334.437
310.432
336.975
312.045
338.408
313.167
360.65
348.403
367.894
353.332
387.524
373.318
396.318
378.787
346.902
333.687
339.926
329.4
371.804
356.155
373.907
357.483
401.419
381.969
404.134
383.377
350.229
336.16
351.823
337.374
329.422
308.02
318.619
303.54
323.611
304.799
315.345
301.463
332.553
310.091
320.643
304.875
334.135
311.4
321.77
305.638
309.482
300.057
301.434
295.79
310.667
301.637
301.233
295.995
312.119
304.822
300.935
296.757
340.175
362.851
324.287
313.805
300.349
360.741
336.73
318.751
308.107
297.211
361.004
338.53
322.301
310.774
298.998
293.342
287.779
290.587
285.583
295.441
289.642
291.393
286.471
298.971
293.17
292.734
287.944
353.402
340.021
329.888
319.074
313.97
306.535
303.761
297.593
294.458
289.873
353.165
339.381
331.983
321.179
316.884
308.668
306.079
299.279
296.599
291.942
335.095
321.946
336.425
321.854
355.031
337.936
356.517
336.68
321.01
310.361
319.768
309.949
337.521
321.83
338.751
323.111
358.229
335.728
359.705
337.195
321.922
310.74
322.881
311.706
308.439
300.856
298.703
292.73
308.057
300.135
298.074
292.469
308.692
301.552
299.03
292.864
309.869
302.136
299.464
293.683
281.626
278.221
276.86
277.866
275.626
274.857
283.589
279.772
278.143
278.639
276.236
275.332
286.718
282.326
280.479
279.851
277.118
276.097
325.127
314.302
308.926
308.629
300.974
297.352
298.159
292.252
289.64
290.232
285.268
283.107
281.078
278.111
276.881
323.714
312.386
306.708
309.434
300.731
296.39
299.251
292.493
289.242
290.768
285.794
283.654
281.946
278.877
277.359
292.51
284.067
279.554
276.793
293.605
284.454
279.73
276.84
292.375
284.055
279.589
276.839
293.707
284.546
279.842
276.919
292.113
284.01
279.647
276.911
293.816
284.663
279.975
277.012
294.531
285.021
280.073
277.036
295.157
285.373
280.169
277.06
292.99
284.432
279.881
277.031
291.441
283.915
279.553
277
291.634
283.888
279.639
276.981
290.555
283.539
279.387
276.974
293.941
284.858
280.019
277.051
292.127
284.237
279.673
277.03
294.609
285.196
280.148
277.102
292.643
284.508
279.802
277.097
290.679
283.448
279.294
276.745
288.598
282.744
278.95
276.702
290.538
283.42
279.301
276.778
288.616
282.765
278.959
276.731
290.321
283.372
279.31
276.829
288.814
282.859
279.005
276.781
289.997
283.29
279.287
276.892
288.931
282.922
279.052
276.855
289.645
283.194
279.209
276.942
286.806
282.174
278.538
276.718
285.829
281.902
278.348
276.693
287.079
282.276
278.592
276.751
286.142
282.016
278.401
276.723
287.531
282.448
278.674
276.802
286.664
282.21
278.483
276.773
288.107
282.661
278.804
276.881
287.352
282.462
278.605
276.84
288.878
282.944
278.959
276.961
288.075
282.732
278.726
276.907
289.941
283.456
279.127
277.055
289.087
283.249
278.938
277.029
289.472
283.202
279.047
277.012
288.68
283.008
278.839
276.971
290.316
283.69
279.187
277.089
289.432
283.478
279.011
277.076
290.701
283.927
279.289
277.147
289.817
283.708
279.111
277.137
275.054
274.142
273.62
273.345
273.228
275.063
274.144
273.621
273.345
273.228
275.07
274.148
273.623
273.346
273.229
275.083
274.152
273.625
273.347
273.229
275.085
274.155
273.626
273.347
273.229
275.109
274.165
273.63
273.349
273.23
275.15
274.184
273.639
273.353
273.233
275.187
274.201
273.647
273.357
273.235
275.124
274.172
273.633
273.351
273.231
275.125
274.172
273.633
273.351
273.231
275.101
274.162
273.629
273.349
273.23
275.111
274.166
273.631
273.35
273.231
275.15
274.183
273.638
273.353
273.233
275.148
274.183
273.638
273.353
273.233
275.188
274.203
273.648
273.358
273.235
275.185
274.202
273.647
273.357
273.235
275.043
274.138
273.619
273.344
273.228
275.035
274.136
273.618
273.344
273.227
275.055
274.143
273.621
273.345
273.228
275.046
274.141
273.62
273.345
273.228
275.069
274.149
273.623
273.346
273.229
275.062
274.146
273.622
273.346
273.228
275.087
274.156
273.626
273.348
273.229
275.079
274.153
273.625
273.347
273.229
275.099
274.161
273.629
273.349
273.23
522.318
515.488
521.826
515.036
520.936
514.278
520.005
513.239
519.774
512.72
523.404
519.794
521.637
516.856
524.43
521.112
525.098
521.782
562.225
570.597
572.448
572.875
572.968
553.189
568.141
571.884
572.753
572.938
562.456
570.688
572.474
572.882
572.97
553.309
568.235
571.914
572.761
572.941
562.629
570.776
572.5
572.888
572.971
553.388
568.329
571.946
572.77
572.943