/*--------------------------------*- C++ -*----------------------------------*\
| =========                 |                                                 |
| \\      /  F ield         | OpenFOAM: The Open Source CFD Toolbox           |
|  \\    /   O peration     | Version:  2412                                  |
|   \\  /    A nd           | Website:  www.openfoam.com                      |
|    \\/     M anipulation  |                                                 |
\*---------------------------------------------------------------------------*/
FoamFile
{
    version     2.0;
    format      ascii;
    arch        "LSB;label=32;scalar=64";
    class       surfaceScalarField;
    location    "80/topAir";
    object      phi;
}
// * * * * * * * * * * * * * * * * * * * * * * * * * * * * * * * * * * * * * //

dimensions      [1 0 -1 0 0 0 0];

oriented        oriented;

internalField   nonuniform List<scalar> 
3140
(
9.0701811e-06
1.1644438e-07
8.2343959e-08
8.842567e-06
1.2344687e-07
1.0416728e-07
8.6177375e-06
1.147685e-07
1.1006106e-07
8.3939249e-06
1.1072106e-07
1.1309167e-07
8.1727359e-06
1.0701415e-07
1.1417506e-07
7.9581444e-06
1.0156037e-07
1.1303128e-07
7.7529126e-06
9.5005174e-08
1.1022694e-07
7.5588357e-06
8.764251e-08
1.0643471e-07
7.377867e-06
7.8893613e-08
1.020755e-07
7.2132488e-06
6.7232404e-08
9.7386353e-08
7.0715685e-06
4.9153146e-08
9.2527812e-08
6.9645086e-06
1.9473582e-08
8.758713e-08
6.9105308e-06
-2.9337525e-08
8.3317732e-08
6.8652638e-06
-3.4744578e-08
8.0053426e-08
6.8195319e-06
-3.4980779e-08
8.0788967e-08
6.7671785e-06
-3.2378257e-08
8.4838107e-08
6.7041787e-06
-2.7800112e-08
9.0932854e-08
6.6290846e-06
-2.2770013e-08
9.8020306e-08
6.5420905e-06
-1.8002341e-08
1.0517269e-07
6.4443008e-06
-1.3609873e-08
1.1159305e-07
6.3371441e-06
-9.2652145e-09
1.1662976e-07
6.2220437e-06
-4.3413285e-09
1.1966077e-07
6.0998029e-06
2.5117669e-09
1.1995358e-07
5.9701008e-06
1.3080829e-08
1.1684865e-07
5.8287332e-06
3.2004712e-08
1.0959056e-07
5.6658274e-06
6.5577091e-08
9.7554837e-08
5.4595501e-06
1.2547038e-07
8.1029783e-08
5.1612802e-06
2.3623677e-07
6.225137e-08
4.6703273e-06
4.517283e-07
3.9437526e-08
9.0664828e-07
4.2811881e-09
9.3011484e-06
-1.131494e-10
8.4370024e-08
9.3178243e-06
-2.4207822e-10
1.0701308e-07
9.319237e-06
-4.4587692e-10
1.1380163e-07
9.3125614e-06
-7.9098584e-10
1.181877e-07
9.3001565e-06
-1.3804056e-09
1.2079952e-07
9.2828264e-06
-2.3882746e-09
1.2127868e-07
9.2617428e-06
-4.105107e-09
1.2019391e-07
9.2382121e-06
-7.0055762e-09
1.1817889e-07
9.2133552e-06
-1.1843164e-08
1.1559365e-07
9.1877252e-06
-1.9744008e-08
1.1260654e-07
9.1596853e-06
-3.2120698e-08
1.0931374e-07
9.122932e-06
-4.9629209e-08
1.0585619e-07
9.0625609e-06
-7.0867832e-08
1.0190164e-07
9.0140452e-06
-8.4468225e-08
9.8240444e-08
8.9709646e-06
-8.5858961e-08
9.396163e-08
8.9333431e-06
-8.3910427e-08
8.9158814e-08
8.9016772e-06
-8.0122531e-08
8.3996247e-08
8.875321e-06
-7.5027461e-08
7.8624942e-08
8.8533355e-06
-6.9184789e-08
7.3182815e-08
8.8348134e-06
-6.2739126e-08
6.7670182e-08
8.818804e-06
-5.5177208e-08
6.1944303e-08
8.8037741e-06
-4.5117822e-08
5.5833706e-08
8.787559e-06
-3.0237473e-08
4.8998917e-08
8.7676517e-06
-8.3325232e-09
4.1362865e-08
8.7370111e-06
3.037268e-08
3.2322867e-08
8.6870298e-06
9.4003475e-08
2.1613953e-08
8.6066938e-06
1.975455e-07
8.3303472e-09
8.4834408e-06
3.6619284e-07
-6.6207408e-09
8.314902e-06
6.3749234e-07
-1.712554e-08
1.0380383e-06
-1.6152544e-08
9.3010688e-06
-1.1659987e-07
8.4370425e-08
9.3175801e-06
-1.2376757e-07
1.0701425e-07
9.3186741e-06
-1.1534406e-07
1.1380418e-07
9.3114133e-06
-1.1172205e-07
1.1819183e-07
9.2979608e-06
-1.087329e-07
1.2080499e-07
9.2787859e-06
-1.0449732e-07
1.2128391e-07
9.2545023e-06
-1.000157e-07
1.2019416e-07
9.2255258e-06
-9.6192352e-08
1.1816329e-07
9.1916656e-06
-9.3523533e-08
1.1554058e-07
9.1519207e-06
-9.2477068e-08
1.12478e-07
9.104289e-06
-9.3521887e-08
1.090328e-07
9.0461946e-06
-9.6754943e-08
1.0522015e-07
8.9755963e-06
-1.0127951e-07
1.0101004e-07
8.8986913e-06
-1.0399706e-07
9.6433872e-08
8.8233354e-06
-1.0182192e-07
9.1318904e-08
8.7512415e-06
-9.7461503e-08
8.5645174e-08
8.6840404e-06
-9.2371904e-08
7.9450902e-08
8.623133e-06
-8.686824e-08
7.2748745e-08
8.5695825e-06
-8.1126608e-08
6.5493303e-08
8.5243752e-06
-7.5114116e-08
5.7583615e-08
8.4889738e-06
-6.826063e-08
4.848659e-08
8.4652965e-06
-5.9386312e-08
3.7948181e-08
8.4567591e-06
-4.7300923e-08
2.5604001e-08
8.4671524e-06
-2.9491022e-08
1.0769212e-08
8.5021341e-06
1.0892108e-09
-5.6919313e-09
8.565146e-06
5.2332968e-08
-2.1331967e-08
8.6686465e-06
1.3193019e-07
-3.7871007e-08
8.8350177e-06
2.5334878e-07
-5.3505654e-08
9.1056538e-06
4.3069362e-07
-6.3804195e-08
6.6710851e-07
-6.4695687e-08
9.07e-06
8.2344236e-08
8.8420641e-06
1.0416836e-07
8.6166562e-06
1.1006386e-07
8.3918378e-06
1.1309628e-07
8.1689246e-06
1.1418035e-07
7.9513941e-06
1.1303313e-07
7.7411645e-06
1.1021397e-07
7.5385918e-06
1.0638024e-07
7.3431462e-06
1.0192212e-07
7.1536514e-06
9.7017619e-08
6.968396e-06
9.1733584e-08
6.7855779e-06
8.6063174e-08
6.6043624e-06
7.9935943e-08
6.4271135e-06
7.3251867e-08
6.2593511e-06
6.594044e-08
6.1039081e-06
5.7981507e-08
5.9621109e-06
4.9425294e-08
5.8349383e-06
4.0304477e-08
5.7235379e-06
3.0273842e-08
5.6293216e-06
1.9102288e-08
5.5554752e-06
5.5859196e-09
5.5049634e-06
-8.874291e-09
5.4833876e-06
-2.572479e-08
5.4999726e-06
-4.607543e-08
5.5713244e-06
-7.0261756e-08
5.7205213e-06
-9.6862352e-08
5.9738101e-06
-1.2135608e-07
6.3672679e-06
-1.4010438e-07
6.9492323e-06
-1.512623e-07
-1.5966135e-07
9.1965159e-06
1.1839302e-07
3.6404479e-08
9.1099162e-06
1.2548091e-07
6.5286134e-08
9.0238604e-06
1.1655066e-07
7.9566227e-08
8.9371341e-06
1.1276404e-07
8.7054081e-08
8.8501943e-06
1.0947855e-07
9.1636515e-08
8.7648344e-06
1.0443628e-07
9.3955053e-08
8.6823851e-06
9.8340185e-08
9.4336385e-08
8.6039634e-06
9.1537223e-08
9.3319448e-08
8.5311396e-06
8.350662e-08
9.1393102e-08
8.4667117e-06
7.287515e-08
8.8939655e-08
8.4161181e-06
5.674289e-08
8.6379177e-08
8.3892776e-06
3.0029096e-08
8.4399248e-08
8.3991721e-06
-1.0369723e-08
8.3794994e-08
8.4147658e-06
-2.4630003e-08
8.9124878e-08
8.4286123e-06
-3.6142648e-08
1.0314961e-07
8.4364937e-06
-4.7569634e-08
1.246167e-07
8.4350487e-06
-5.8549649e-08
1.5104029e-07
8.4230548e-06
-6.9862906e-08
1.8000921e-07
8.4010298e-06
-8.1988158e-08
2.0933435e-07
8.3702586e-06
-9.4770719e-08
2.372968e-07
8.3320427e-06
-1.076538e-07
2.6267178e-07
8.2871116e-06
-1.1966044e-07
2.8443254e-07
8.2350952e-06
-1.2939425e-07
3.0154962e-07
8.1734676e-06
-1.3407101e-07
3.1273574e-07
8.0963617e-06
-1.2954161e-07
3.1642802e-07
7.9929441e-06
-1.095923e-07
3.1075519e-07
7.8458554e-06
-6.5178728e-08
2.9348799e-07
7.6274236e-06
1.9776042e-08
2.6109747e-07
7.2682865e-06
1.9343827e-07
2.0532524e-07
5.8976278e-07
1.2290689e-07
9.4341955e-06
-1.1376544e-10
3.7642266e-08
9.5989277e-06
-2.4284977e-10
6.8004616e-08
9.7461138e-06
-4.4454157e-10
8.3610704e-08
9.8853697e-06
-7.8238533e-10
9.2478314e-08
1.0018444e-05
-1.3531323e-09
9.855669e-08
1.0144014e-05
-2.3187755e-09
1.0246411e-07
1.0261989e-05
-3.9470984e-09
1.0450603e-07
1.0373202e-05
-6.6717036e-09
1.0517503e-07
1.0478601e-05
-1.1174015e-08
1.0487496e-07
1.0578723e-05
-1.8460835e-08
1.0382023e-07
1.0672537e-05
-2.979691e-08
1.0203959e-07
1.0755065e-05
-4.5929423e-08
9.9287643e-08
1.0816912e-05
-6.5421255e-08
9.5106382e-08
1.0883601e-05
-8.0559977e-08
8.7482026e-08
1.095108e-05
-8.7220384e-08
7.756236e-08
1.1019364e-05
-9.3048743e-08
6.6357245e-08
1.1089277e-05
-9.8996343e-08
5.4535785e-08
1.1160464e-05
-1.0528373e-07
4.286671e-08
1.1232243e-05
-1.1227654e-07
3.1703112e-08
1.1303894e-05
-1.2001228e-07
2.1273687e-08
1.1374984e-05
-1.282898e-07
1.150677e-08
1.1444808e-05
-1.3593237e-07
2.2998363e-09
1.1514116e-05
-1.4082379e-07
-8.8577992e-09
1.1582951e-05
-1.4003587e-07
-2.1482917e-08
1.1651744e-05
-1.2883384e-07
-3.715104e-08
1.1720909e-05
-9.9262808e-08
-5.7850691e-08
1.1790216e-05
-4.0266628e-08
-8.5855061e-08
1.1853388e-05
7.3500546e-08
-1.2347897e-07
1.1925935e-05
2.7350789e-07
-1.6969619e-07
5.6587569e-07
-2.170106e-07
9.434117e-06
-1.185493e-07
3.7641459e-08
9.5986878e-06
-1.2580223e-07
6.8002827e-08
9.7455647e-06
-1.1712448e-07
8.360714e-08
9.884259e-06
-1.1375554e-07
9.2470732e-08
1.0016338e-05
-1.1116753e-07
9.8540001e-08
1.0140174e-05
-1.0729801e-07
1.0242757e-07
1.0255173e-05
-1.0317978e-07
1.0442787e-07
1.0361374e-05
-9.9722451e-08
1.0501325e-07
1.0458574e-05
-9.7387112e-08
1.0455337e-07
1.0545958e-05
-9.6581739e-08
1.032146e-07
1.0621936e-05
-9.7732644e-08
1.0099116e-07
1.0684474e-05
-1.0096334e-07
9.7715793e-08
1.0732514e-05
-1.0552189e-07
9.3070194e-08
1.0771008e-05
-1.0897658e-07
8.6357389e-08
1.0806836e-05
-1.0902918e-07
7.729953e-08
1.0841311e-05
-1.0793843e-07
6.6059529e-08
1.0875768e-05
-1.0686795e-07
5.2866505e-08
1.0911262e-05
-1.0595026e-07
3.7921205e-08
1.0948691e-05
-1.0557477e-07
2.1362874e-08
1.0988407e-05
-1.0573551e-07
3.5919119e-09
1.1032548e-05
-1.0606175e-07
-1.78814e-08
1.1082775e-05
-1.066886e-07
-4.1521137e-08
1.1142227e-05
-1.0629935e-07
-6.8370553e-08
1.1214964e-05
-1.0246363e-07
-9.9538662e-08
1.1307889e-05
-9.1350362e-08
-1.3609778e-07
1.1433752e-05
-6.7138851e-08
-1.7931503e-07
1.1606943e-05
-2.0022513e-08
-2.313022e-07
1.1855972e-05
6.256885e-08
-2.9159762e-07
1.223881e-05
1.8527295e-07
-3.583986e-07
3.3847183e-07
-4.2385394e-07
9.1963372e-06
3.6401876e-08
9.1094233e-06
6.5280026e-08
9.0228086e-06
7.9554033e-08
8.9351196e-06
8.7029784e-08
8.8465451e-06
9.158723e-08
8.7584261e-06
9.385411e-08
8.671331e-06
9.4129341e-08
8.5850924e-06
9.2896391e-08
8.499093e-06
9.0534339e-08
8.4123216e-06
8.7207261e-08
8.3234245e-06
8.289804e-08
8.2310895e-06
7.7434823e-08
8.1350062e-06
7.049736e-08
8.0376389e-06
6.1642608e-08
7.9440228e-06
5.0527382e-08
7.8569301e-06
3.7135801e-08
7.77779e-06
2.1697444e-08
7.7071621e-06
4.9821263e-09
7.6472252e-06
-1.5364002e-08
7.5984311e-06
-3.7839109e-08
7.5607663e-06
-6.2810951e-08
7.5362762e-06
-9.1072775e-08
7.5282213e-06
-1.2396903e-07
7.5426527e-06
-1.6297027e-07
7.5906045e-06
-2.0956361e-07
7.6920337e-06
-2.6542996e-07
7.8822749e-06
-3.3161912e-07
8.2141869e-06
-4.0944654e-07
8.744377e-06
-4.9617773e-07
-5.8264617e-07
9.1676282e-06
1.1821102e-07
1.9534653e-08
9.0710951e-06
1.2506708e-07
3.6752216e-08
8.9872552e-06
1.1561388e-07
4.7792332e-08
8.9085448e-06
1.1144297e-07
5.4321596e-08
8.8338755e-06
1.0791402e-07
5.8392019e-08
8.7643297e-06
1.0265802e-07
6.0843043e-08
8.7003436e-06
9.6364663e-08
6.1958164e-08
8.6422596e-06
8.9381258e-08
6.2022501e-08
8.5911677e-06
8.1114479e-08
6.1370995e-08
8.5497204e-06
7.0026007e-08
6.0361454e-08
8.5237258e-06
5.2875085e-08
5.9499381e-08
8.5239701e-06
2.4413552e-08
5.9742281e-08
8.5678362e-06
-2.2321825e-08
6.2252661e-08
8.6126203e-06
-2.974257e-08
7.4116883e-08
8.6520473e-06
-3.5534905e-08
9.9318842e-08
8.6822257e-06
-4.1372382e-08
1.3589636e-07
8.6999404e-06
-4.733443e-08
1.8076713e-07
8.7045274e-06
-5.4671948e-08
2.3022002e-07
8.6975292e-06
-6.4285766e-08
2.8076007e-07
8.680819e-06
-7.6225882e-08
3.3038799e-07
8.6557444e-06
-9.0030016e-08
3.7794213e-07
8.6226161e-06
-1.0465585e-07
4.2239046e-07
8.5797553e-06
-1.1795053e-07
4.6254006e-07
8.5228782e-06
-1.2691485e-07
4.9670996e-07
8.4437366e-06
-1.2660917e-07
5.2236268e-07
8.3287726e-06
-1.0955763e-07
5.3546113e-07
8.1586512e-06
-6.5193554e-08
5.2898748e-07
7.905604e-06
2.4231521e-08
4.9009781e-07
7.5002192e-06
2.1086328e-07
4.0003041e-07
6.3781094e-07
2.5122832e-07
9.4047748e-06
-1.1534347e-10
2.0154765e-08
9.5599929e-06
-2.4666895e-10
3.8100237e-08
9.7097603e-06
-4.5217359e-10
4.9909371e-08
9.8571736e-06
-7.9729977e-10
5.7305269e-08
1.000266e-05
-1.3822436e-09
6.2366615e-08
1.0144242e-05
-2.375483e-09
6.5915391e-08
1.0280967e-05
-4.0570145e-09
6.8203324e-08
1.0412945e-05
-6.8827237e-09
6.9461067e-08
1.0540591e-05
-1.1572355e-08
6.9915706e-08
1.0663944e-05
-1.9189201e-08
6.9682384e-08
1.0781253e-05
-3.1045316e-08
6.8650848e-08
1.0886467e-05
-4.776154e-08
6.624887e-08
1.0966024e-05
-6.8250148e-08
6.1478019e-08
1.1054525e-05
-8.1830536e-08
5.1069637e-08
1.1144966e-05
-8.4763623e-08
3.6352104e-08
1.1237559e-05
-8.6450939e-08
1.8846015e-08
1.1333568e-05
-8.84823e-08
-3.2048174e-10
1.1431249e-05
-9.1778761e-08
-1.7699793e-08
1.1529373e-05
-9.7031828e-08
-3.3665243e-08
1.1626362e-05
-1.0463489e-07
-4.7294242e-08
1.1720666e-05
-1.1396208e-07
-5.8850051e-08
1.1811454e-05
-1.2396214e-07
-6.9164899e-08
1.1896603e-05
-1.3270601e-07
-7.9231929e-08
1.1975107e-05
-1.3625125e-07
-9.0629134e-08
1.2045544e-05
-1.2836505e-07
-1.0580756e-07
1.2105839e-05
-9.938782e-08
-1.2828876e-07
1.2153574e-05
-3.6061586e-08
-1.626925e-07
1.2178729e-05
9.1468898e-08
-2.1583636e-07
1.2197429e-05
3.193155e-07
-2.9680575e-07
6.6186281e-07
-4.1283664e-07
9.4046951e-06
-1.1836981e-07
2.0153332e-08
9.5597481e-06
-1.2539379e-07
3.8096945e-08
9.7091984e-06
-1.1619799e-07
4.9902582e-08
9.8560347e-06
-1.1245419e-07
5.7291333e-08
1.0000496e-05
-1.0964114e-07
6.2337937e-08
1.0140285e-05
-1.0559433e-07
6.5856649e-08
1.0273923e-05
-1.0135171e-07
6.8084515e-08
1.0400688e-05
-9.7860048e-08
6.9225696e-08
1.0519792e-05
-9.5587027e-08
6.9464019e-08
1.0629903e-05
-9.4945696e-08
6.8860792e-08
1.0728904e-05
-9.6356149e-08
6.7301033e-08
1.0814302e-05
-9.989108e-08
6.4446624e-08
1.0884074e-05
-1.0468062e-07
5.9729319e-08
1.0944438e-05
-1.0773774e-07
5.1900458e-08
1.1002932e-05
-1.0635805e-07
4.0399516e-08
1.1060735e-05
-1.0347155e-07
2.5277489e-08
1.1119185e-05
-1.0058171e-07
6.5164128e-09
1.1178718e-05
-9.820343e-08
-1.5187289e-08
1.1239246e-05
-9.6333006e-08
-3.9863246e-08
1.1301118e-05
-9.5222777e-08
-6.7691576e-08
1.1363511e-05
-9.5212979e-08
-9.9022467e-08
1.1427536e-05
-9.5576107e-08
-1.3393081e-07
1.1495107e-05
-9.5010253e-08
-1.7363568e-07
1.1570454e-05
-9.108466e-08
-2.200507e-07
1.1660946e-05
-7.9780649e-08
-2.751723e-07
1.1778089e-05
-5.364777e-08
-3.4219475e-07
1.1936275e-05
-1.4195599e-09
-4.2412733e-07
1.2161017e-05
1.000039e-07
-5.2486883e-07
1.251747e-05
2.5145063e-07
-6.4697753e-07
4.4813809e-07
-7.8220738e-07
9.1674455e-06
1.9530661e-08
9.0705889e-06
3.674282e-08
8.9861719e-06
4.7773051e-08
8.9064643e-06
5.4283187e-08
8.8300946e-06
5.8315777e-08
8.757663e-06
6.069141e-08
8.6887846e-06
6.165599e-08
8.6224013e-06
6.1419591e-08
8.5571819e-06
6.0166754e-08
8.4914935e-06
5.7949898e-08
8.4233916e-06
5.4643799e-08
8.3510078e-06
4.9927575e-08
8.2735483e-06
4.3276298e-08
8.1934735e-06
3.3979613e-08
8.1161667e-06
2.1476106e-08
8.044426e-06
5.4049244e-09
7.9791947e-06
-1.3652975e-08
7.9215469e-06
-3.5573462e-08
7.8703851e-06
-6.0535231e-08
7.8260216e-06
-8.8698331e-08
7.7889343e-06
-1.2093661e-07
7.7608027e-06
-1.585172e-07
7.7448865e-06
-2.0306296e-07
7.7471729e-06
-2.5634118e-07
7.7801698e-06
-3.2234083e-07
7.8675775e-06
-4.064851e-07
8.050766e-06
-5.1622643e-07
8.3951685e-06
-6.5384384e-07
8.9648358e-06
-8.1439165e-07
-9.7296055e-07
9.1617997e-06
1.18358e-07
8.3463557e-09
9.0569088e-06
1.2543978e-07
1.6203432e-08
8.966645e-06
1.1608961e-07
2.1966585e-08
8.8833029e-06
1.1193869e-07
2.5725121e-08
8.8051819e-06
1.0839637e-07
2.8116847e-08
8.7333609e-06
1.0307451e-07
2.9589788e-08
8.668333e-06
9.6640048e-08
3.0346304e-08
8.6104085e-06
8.9411801e-08
3.0535549e-08
8.5607459e-06
8.0700178e-08
3.0333962e-08
8.5224342e-06
6.8707034e-08
2.9966664e-08
8.5025186e-06
4.9607423e-08
2.9808257e-08
8.5136323e-06
1.7984442e-08
3.0645093e-08
8.5808482e-06
-3.8406149e-08
3.3444993e-08
8.6410104e-06
-3.2836669e-08
4.6822974e-08
8.6885263e-06
-2.1396544e-08
7.3257016e-08
8.7209147e-06
-7.7391728e-09
1.113277e-07
8.7358749e-06
8.9151118e-09
1.56994e-07
8.7339235e-06
2.6596078e-08
2.0569682e-07
8.7176069e-06
4.2130344e-08
2.5508515e-07
8.6881867e-06
5.5572189e-08
3.0438982e-07
8.6460359e-06
6.70777e-08
3.5318149e-07
8.5906572e-06
7.7152687e-08
4.0079284e-07
8.5195163e-06
8.7841834e-08
4.46023e-07
8.4276143e-06
1.0180716e-07
4.8699381e-07
8.3060789e-06
1.2341218e-07
5.2067807e-07
8.1397858e-06
1.5987456e-07
5.42073e-07
7.9027801e-06
2.2346733e-07
5.4271921e-07
7.5470981e-06
3.3798281e-07
5.0798909e-07
6.9774895e-06
5.5538603e-07
4.1444346e-07
1.0197949e-06
2.5531594e-07
9.3989722e-06
-1.1740405e-10
8.6188651e-09
9.5459181e-06
-2.5156644e-10
1.6845728e-08
9.6893516e-06
-4.6251825e-10
2.3028008e-08
9.8321375e-06
-8.1865363e-10
2.7276718e-08
9.9740944e-06
-1.4257906e-09
3.0231817e-08
1.0113224e-05
-2.4633705e-09
3.232369e-08
1.024857e-05
-4.2322022e-09
3.3729656e-08
1.038011e-05
-7.2262693e-09
3.4559125e-08
1.050805e-05
-1.2230792e-08
3.490667e-08
1.0632051e-05
-2.0403775e-08
3.4792382e-08
1.0749403e-05
-3.3119757e-08
3.4025532e-08
1.0852443e-05
-5.0721829e-08
3.1915399e-08
1.0920867e-05
-7.2615778e-08
2.7264079e-08
1.1004868e-05
-8.2150852e-08
1.6383092e-08
1.1092287e-05
-7.5580924e-08
3.1198283e-09
1.1183814e-05
-6.4486898e-08
-1.5929912e-08
1.1278067e-05
-5.1425947e-08
-3.4228503e-08
1.1373465e-05
-3.706097e-08
-4.9434857e-08
1.1466818e-05
-2.3325641e-08
-6.1554376e-08
1.1555952e-05
-1.0292143e-08
-7.0554073e-08
1.1637805e-05
2.8994326e-09
-7.651195e-08
1.1710641e-05
1.4899062e-08
-7.9730371e-08
1.1769754e-05
3.082476e-08
-8.1308254e-08
1.1809369e-05
5.4235047e-08
-8.26483e-08
1.1819902e-05
9.3053849e-08
-8.5953306e-08
1.1786876e-05
1.5930412e-07
-9.4659126e-08
1.1690257e-05
2.7172215e-07
-1.1428688e-07
1.1505987e-05
4.6093605e-07
-1.5447009e-07
1.12243e-05
7.74509e-07
-2.3417815e-07
1.2582555e-06
-3.8613103e-07
9.3988904e-06
-1.1851982e-07
8.6178194e-09
9.5456656e-06
-1.2577315e-07
1.6843297e-08
9.68877e-06
-1.1668724e-07
2.3022961e-08
9.8309534e-06
-1.1297717e-07
2.7266367e-08
9.9718334e-06
-1.1017847e-07
3.0210626e-08
1.0109068e-05
-1.0612182e-07
3.2280584e-08
1.0241129e-05
-1.018519e-07
3.3643006e-08
1.0367088e-05
-9.8347534e-08
3.4388475e-08
1.0485851e-05
-9.6111913e-08
3.4582018e-08
1.0595683e-05
-9.558986e-08
3.4214381e-08
1.0693927e-05
-9.7199815e-08
3.3136875e-08
1.0777569e-05
-1.0090374e-07
3.0986448e-08
1.0843111e-05
-1.0554516e-07
2.7116734e-08
1.0899617e-05
-1.0688476e-07
2.0128442e-08
1.0955981e-05
-1.0135897e-07
9.8136107e-09
1.1013065e-05
-9.3116106e-08
-3.1771396e-09
1.1073622e-05
-8.3425806e-08
-2.2040174e-08
1.1137724e-05
-7.3190014e-08
-4.3159854e-08
1.1204939e-05
-6.2815957e-08
-6.7587725e-08
1.1274911e-05
-5.276504e-08
-9.5190343e-08
1.1347824e-05
-4.3035755e-08
-1.2599977e-07
1.1422297e-05
-3.2963448e-08
-1.6054006e-07
1.1498432e-05
-1.972506e-08
-1.9922023e-07
1.1575031e-05
3.6670269e-10
-2.4277899e-07
1.1647855e-05
3.8233457e-08
-2.9317347e-07
1.1719614e-05
9.8213539e-08
-3.5285898e-07
1.1796977e-05
1.9582763e-07
-4.2558784e-07
1.1898321e-05
3.5161824e-07
-5.1688228e-07
1.2069758e-05
5.9225998e-07
-6.3614417e-07
9.3137156e-07
-7.9332999e-07
9.1616114e-06
8.3435543e-09
9.0563843e-06
1.619674e-08
8.9655174e-06
2.1952723e-08
8.881126e-06
2.5697384e-08
8.8012016e-06
2.8061702e-08
8.7262912e-06
2.9479974e-08
8.6559684e-06
3.01269e-08
8.5889451e-06
3.0095379e-08
8.5235537e-06
2.9446203e-08
8.4577528e-06
2.816096e-08
8.3891093e-06
2.6087517e-08
8.3152383e-06
2.2894837e-08
8.2349218e-06
1.8047591e-08
8.1511205e-06
1.0896145e-08
8.0695078e-06
1.7298503e-09
7.9941025e-06
-1.2305917e-08
7.9256672e-06
-2.8643452e-08
7.864165e-06
-4.7261346e-08
7.8089144e-06
-6.8100557e-08
7.7597397e-06
-9.2288647e-08
7.7172149e-06
-1.214476e-07
7.6830074e-06
-1.5727302e-07
7.662126e-06
-2.0190647e-07
7.6648281e-06
-2.5867652e-07
7.7114122e-06
-3.3069105e-07
7.8250239e-06
-4.2188233e-07
8.0412367e-06
-5.3660954e-07
8.4165287e-06
-6.7751335e-07
9.035632e-06
-8.412264e-07
-9.982103e-07
9.158936e-06
1.1837976e-07
2.7992927e-14
9.0496362e-06
1.2550319e-07
1.8203823e-14
8.9554828e-06
1.1612006e-07
1.5382301e-14
8.8693215e-06
1.1188657e-07
1.5441209e-14
8.7891904e-06
1.0824818e-07
1.147004e-14
8.7159666e-06
1.0281379e-07
1.246845e-14
8.6500771e-06
9.623611e-08
1.6574164e-14
8.5918071e-06
8.880589e-08
1.8811155e-14
8.5423995e-06
7.9742052e-08
1.1583063e-14
8.5053616e-06
6.7005145e-08
1.0700345e-14
8.4889415e-06
4.6229124e-08
-5.314422e-16
8.5073628e-06
1.2224789e-08
-4.6335329e-15
8.5941976e-06
-5.3387786e-08
4.2776865e-15
8.6634914e-06
-2.2442338e-08
1.6902569e-15
8.7211973e-06
1.5603392e-08
3.4518422e-15
8.7605449e-06
7.205357e-08
-3.2215487e-15
8.7779613e-06
1.3967072e-07
1.709152e-14
8.7781691e-06
2.0560113e-07
1.2013822e-14
8.7625765e-06
2.7080734e-07
2.5335366e-14
8.7315453e-06
3.3556646e-07
-7.6844574e-15
8.6844409e-06
4.0044475e-07
5.2546436e-16
8.61902e-06
4.6638397e-07
-1.7146914e-13
8.5305204e-06
5.3470153e-07
-1.2372074e-13
8.4104527e-06
6.0724728e-07
-1.5165029e-13
8.244393e-06
6.8692796e-07
-1.1071869e-13
8.0079257e-06
7.7873336e-07
-1.2818342e-13
7.6589412e-06
8.9189795e-07
-8.3327331e-14
7.1225367e-06
1.0445878e-06
5.4115464e-14
6.2661432e-06
1.27103e-06
2.8853564e-13
1.6617649e-06
6.7161697e-13
9.3960785e-06
-1.1900277e-10
2.7719724e-14
9.5386827e-06
-2.552726e-10
1.7180905e-14
9.678301e-06
-4.7022174e-10
1.591618e-14
9.8182986e-06
-8.3439205e-10
1.4187494e-14
9.9582363e-06
-1.4576584e-09
9.7606596e-15
1.0095901e-05
-2.5274436e-09
6.8371639e-15
1.0230227e-05
-4.3599378e-09
5.971337e-15
1.0361069e-05
-7.4774874e-09
5.7637672e-15
1.0488432e-05
-1.2713624e-08
3.4610246e-15
1.0611519e-05
-2.12898e-08
7.8054812e-15
1.0726345e-05
-3.4571571e-08
1.0045117e-14
1.0823049e-05
-5.2563445e-08
1.7430661e-14
1.0871705e-05
-7.4778973e-08
2.8369191e-14
1.0941385e-05
-7.5739095e-08
4.662684e-14
1.1010585e-05
-5.0476071e-08
3.5463621e-14
1.1078486e-05
-1.1775454e-08
4.4004772e-14
1.1145475e-05
3.8455797e-08
5.5976142e-14
1.120488e-05
9.6766747e-08
7.5546572e-14
1.1253434e-05
1.6070793e-07
8.8358921e-14
1.1287502e-05
2.3095851e-07
1.2089378e-13
1.1303048e-05
3.0840711e-07
1.6208106e-13
1.1295554e-05
3.9417484e-07
3.1047233e-13
1.1258889e-05
4.9009311e-07
2.8671995e-13
1.1184136e-05
5.9939726e-07
3.8233032e-13
1.1057601e-05
7.2756529e-07
4.9443586e-13
1.0857902e-05
8.8384008e-07
6.1483345e-13
1.0551248e-05
1.0843447e-06
7.590561e-13
1.0083922e-05
1.3575364e-06
9.3239177e-13
9.3677802e-06
1.7531018e-06
1.1912848e-12
2.3409056e-06
1.4500691e-12
9.3959952e-06
-1.1854388e-07
2.7901954e-14
9.5384247e-06
-1.2584157e-07
1.6648826e-14
9.6777052e-06
-1.1672774e-07
1.1731561e-14
9.8170823e-06
-1.1294515e-07
8.2715888e-15
9.9559058e-06
-1.1007055e-07
6.0147745e-15
1.0091601e-05
-1.0594235e-07
1.4471745e-14
1.0222498e-05
-1.0161331e-07
7.280125e-15
1.0347491e-05
-9.8081907e-08
1.0776337e-14
1.0465228e-05
-9.5868844e-08
1.3433828e-15
1.0573584e-05
-9.5432054e-08
5.7164438e-15
1.0669308e-05
-9.7158623e-08
7.9352515e-15
1.0748576e-05
-1.0084435e-07
1.7813135e-14
1.0805774e-05
-1.0486044e-07
3.3160261e-14
1.0853269e-05
-1.0310548e-07
4.0136258e-14
1.0902883e-05
-9.0276906e-08
3.8731233e-14
1.0958456e-05
-7.0525293e-08
4.7929055e-14
1.1020855e-05
-4.5983386e-08
4.9886721e-14
1.10895e-05
-1.5038143e-08
6.9971269e-14
1.1160084e-05
2.2535411e-08
8.7177177e-14
1.122879e-05
6.7062714e-08
1.0092894e-13
1.1293377e-05
1.1782131e-07
1.7616859e-13
1.1350786e-05
1.7622708e-07
2.7519383e-13
1.1396847e-05
2.4481568e-07
3.4864893e-13
1.1426032e-05
3.274395e-07
4.2224887e-13
1.1430738e-05
4.2969608e-07
4.8862721e-13
1.1401147e-05
5.6058866e-07
6.4779103e-13
1.1324841e-05
7.3508762e-07
8.0691123e-13
1.1186917e-05
9.7861516e-07
1.0410961e-12
1.096869e-05
1.3352365e-06
1.3028572e-12
1.8688813e-06
1.559466e-12
9.1587437e-06
2.5709166e-14
9.0490989e-06
1.4005999e-14
8.9543238e-06
1.1880692e-14
8.8670761e-06
1.3717209e-14
8.7850672e-06
1.0482814e-14
8.7086048e-06
1.168526e-14
8.6371184e-06
1.8381107e-14
8.5691318e-06
9.7135316e-15
8.5027091e-06
1.2662103e-14
8.435438e-06
7.0495932e-15
8.3643669e-06
9.9520859e-15
8.2864174e-06
1.2131235e-14
8.1996045e-06
1.8843061e-14
8.1073951e-06
2.1485531e-14
8.018848e-06
2.1538126e-14
7.9360168e-06
1.8635921e-14
7.8613899e-06
1.6087952e-14
7.7990904e-06
2.1716861e-14
7.7535252e-06
1.2957116e-14
7.7282993e-06
1.1849622e-14
7.7246729e-06
2.3511063e-14
7.743627e-06
5.5637614e-14
7.7865363e-06
8.504297e-14
7.8553e-06
1.443962e-13
7.9543066e-06
1.7213035e-13
8.0930164e-06
3.1115813e-13
8.2915011e-06
4.7526481e-13
8.5926151e-06
7.0938014e-13
9.0866463e-06
9.8971344e-13
1.2816576e-12
9.158936e-06
1.1837976e-07
-8.3463058e-09
9.0496362e-06
1.255032e-07
-1.6203402e-08
8.9554828e-06
1.1612006e-07
-2.1966556e-08
8.8693215e-06
1.1188657e-07
-2.57251e-08
8.7891904e-06
1.0824819e-07
-2.8116822e-08
8.7159666e-06
1.0281379e-07
-2.9589759e-08
8.6500771e-06
9.6236111e-08
-3.0346275e-08
8.5918071e-06
8.8805891e-08
-3.0535517e-08
8.5423995e-06
7.9742055e-08
-3.0333938e-08
8.5053616e-06
6.700515e-08
-2.9966649e-08
8.4889415e-06
4.6229138e-08
-2.9808253e-08
8.5073628e-06
1.2224794e-08
-3.0645091e-08
8.5941976e-06
-5.3387797e-08
-3.3444992e-08
8.6634913e-06
-2.2442311e-08
-4.6822981e-08
8.7211973e-06
1.5603389e-08
-7.325702e-08
8.7605449e-06
7.2053626e-08
-1.1132772e-07
8.7779613e-06
1.3967076e-07
-1.5699402e-07
8.778169e-06
2.0560117e-07
-2.0569684e-07
8.7625765e-06
2.7080736e-07
-2.5508516e-07
8.7315452e-06
3.3556654e-07
-3.0438982e-07
8.6844406e-06
4.0044488e-07
-3.5318145e-07
8.6190201e-06
4.6638319e-07
-4.0079285e-07
8.5305204e-06
5.347014e-07
-4.4602304e-07
8.4104527e-06
6.072471e-07
-4.8699403e-07
8.2443933e-06
6.8692763e-07
-5.2067818e-07
8.0079262e-06
7.7873301e-07
-5.4207306e-07
7.6589419e-06
8.9189749e-07
-5.4271913e-07
7.1225377e-06
1.0445872e-06
-5.0798883e-07
6.2661449e-06
1.2710292e-06
-4.1444288e-07
1.6617641e-06
-2.5531493e-07
9.3960785e-06
-1.1900158e-10
-8.6188174e-09
9.5386827e-06
-2.5527126e-10
-1.6845702e-08
9.678301e-06
-4.7022588e-10
-2.3027991e-08
9.8182986e-06
-8.3439895e-10
-2.7276704e-08
9.9582363e-06
-1.457657e-09
-3.0231808e-08
1.0095901e-05
-2.5274354e-09
-3.2323679e-08
1.0230227e-05
-4.3599326e-09
-3.3729646e-08
1.0361069e-05
-7.4774805e-09
-3.4559111e-08
1.0488432e-05
-1.2713617e-08
-3.4906656e-08
1.0611519e-05
-2.1289802e-08
-3.4792368e-08
1.0726345e-05
-3.4571562e-08
-3.4025515e-08
1.0823049e-05
-5.2563443e-08
-3.1915364e-08
1.0871705e-05
-7.4778973e-08
-2.7264022e-08
1.0941385e-05
-7.5739094e-08
-1.6383001e-08
1.1010585e-05
-5.0476058e-08
-3.1197474e-09
1.1078486e-05
-1.1775439e-08
1.5930033e-08
1.1145475e-05
3.8455804e-08
3.4228635e-08
1.120488e-05
9.6766756e-08
4.9435008e-08
1.1253434e-05
1.6070795e-07
6.1554537e-08
1.1287502e-05
2.3095854e-07
7.0554257e-08
1.1303048e-05
3.0840713e-07
7.6512177e-08
1.1295554e-05
3.941745e-07
7.9730753e-08
1.125889e-05
4.9009279e-07
8.1308793e-08
1.1184137e-05
5.9939706e-07
8.2648981e-08
1.1057602e-05
7.2756499e-07
8.5954124e-08
1.0857903e-05
8.838397e-07
9.4660106e-08
1.0551249e-05
1.0843442e-06
1.1428811e-07
1.0083924e-05
1.3575357e-06
1.544716e-07
9.3677822e-06
1.7531009e-06
2.3418001e-07
2.3409045e-06
3.8613321e-07
9.3959952e-06
-1.1854389e-07
-8.6177687e-09
9.5384247e-06
-1.2584158e-07
-1.6843272e-08
9.6777052e-06
-1.1672774e-07
-2.302294e-08
9.8170823e-06
-1.1294515e-07
-2.7266347e-08
9.9559058e-06
-1.1007055e-07
-3.0210618e-08
1.0091601e-05
-1.0594236e-07
-3.2280575e-08
1.0222498e-05
-1.016133e-07
-3.3642998e-08
1.034749e-05
-9.8081915e-08
-3.4388467e-08
1.0465228e-05
-9.5868836e-08
-3.4582007e-08
1.0573584e-05
-9.5432063e-08
-3.421437e-08
1.0669308e-05
-9.7158618e-08
-3.3136854e-08
1.0748576e-05
-1.0084435e-07
-3.098641e-08
1.0805774e-05
-1.0486043e-07
-2.7116673e-08
1.0853269e-05
-1.0310549e-07
-2.0128366e-08
1.0902883e-05
-9.0276908e-08
-9.8135329e-09
1.0958456e-05
-7.0525316e-08
3.1772561e-09
1.1020855e-05
-4.5983403e-08
2.2040283e-08
1.10895e-05
-1.5038156e-08
4.3159991e-08
1.1160085e-05
2.2535384e-08
6.7587885e-08
1.122879e-05
6.7062701e-08
9.5190522e-08
1.1293377e-05
1.1782131e-07
1.2600002e-07
1.1350787e-05
1.7622697e-07
1.6054044e-07
1.1396847e-05
2.4481554e-07
1.9922076e-07
1.1426032e-05
3.2743938e-07
2.427797e-07
1.1430739e-05
4.2969592e-07
2.9317423e-07
1.1401148e-05
5.605884e-07
3.5285993e-07
1.1324842e-05
7.3508735e-07
4.2558902e-07
1.1186918e-05
9.7861473e-07
5.1688379e-07
1.0968691e-05
1.3352359e-06
6.3614601e-07
1.8688804e-06
7.9333209e-07
9.1587437e-06
-8.343511e-09
9.0490989e-06
-1.6196708e-08
8.9543238e-06
-2.1952695e-08
8.8670761e-06
-2.5697359e-08
8.7850672e-06
-2.8061678e-08
8.7086048e-06
-2.9479954e-08
8.6371184e-06
-3.0126877e-08
8.5691318e-06
-3.0095354e-08
8.5027091e-06
-2.9446177e-08
8.435438e-06
-2.8160939e-08
8.3643669e-06
-2.608749e-08
8.2864174e-06
-2.2894805e-08
8.1996045e-06
-1.8047553e-08
8.1073951e-06
-1.0896109e-08
8.018848e-06
-1.7298182e-09
7.9360168e-06
1.2305959e-08
7.8613899e-06
2.8643492e-08
7.7990904e-06
4.726139e-08
7.7535252e-06
6.8100581e-08
7.7282993e-06
9.2288643e-08
7.724673e-06
1.2144761e-07
7.743627e-06
1.5727304e-07
7.7865364e-06
2.0190656e-07
7.8553e-06
2.5867666e-07
7.9543067e-06
3.3069121e-07
8.0930165e-06
4.2188261e-07
8.2915014e-06
5.3661004e-07
8.5926155e-06
6.7751413e-07
9.086647e-06
8.4122751e-07
9.9821174e-07
9.1617997e-06
1.18358e-07
-1.9534612e-08
9.0569088e-06
1.2543978e-07
-3.6752199e-08
8.966645e-06
1.160896e-07
-4.7792311e-08
8.8833029e-06
1.1193869e-07
-5.4321578e-08
8.8051819e-06
1.0839637e-07
-5.8392e-08
8.7333609e-06
1.0307452e-07
-6.0843028e-08
8.668333e-06
9.6640049e-08
-6.1958145e-08
8.6104086e-06
8.9411806e-08
-6.2022483e-08
8.5607459e-06
8.0700188e-08
-6.1370981e-08
8.5224342e-06
6.8707046e-08
-6.0361449e-08
8.5025186e-06
4.9607443e-08
-5.9499381e-08
8.5136323e-06
1.7984454e-08
-5.9742282e-08
8.5808481e-06
-3.840617e-08
-6.2252654e-08
8.6410103e-06
-3.2836684e-08
-7.4116867e-08
8.6885262e-06
-2.1396541e-08
-9.9318843e-08
8.7209147e-06
-7.7392082e-09
-1.3589636e-07
8.7358749e-06
8.9150142e-09
-1.8076711e-07
8.7339235e-06
2.6596013e-08
-2.3022e-07
8.717607e-06
4.2130238e-08
-2.8076001e-07
8.6881867e-06
5.5572182e-08
-3.3038793e-07
8.6460358e-06
6.7077833e-08
-3.7794203e-07
8.5906574e-06
7.7152063e-08
-4.2239031e-07
8.5195165e-06
8.7841529e-08
-4.6253981e-07
8.4276147e-06
1.0180642e-07
-4.9670962e-07
8.3060796e-06
1.2341124e-07
-5.2236218e-07
8.1397868e-06
1.5987355e-07
-5.354605e-07
7.9027815e-06
2.2346617e-07
-5.2898676e-07
7.5471003e-06
3.3798147e-07
-4.9009705e-07
6.977493e-06
5.5538444e-07
-4.0002969e-07
1.019793e-06
-2.5122775e-07
9.3989722e-06
-1.1740613e-10
-2.0154724e-08
9.5459181e-06
-2.5156877e-10
-3.8100219e-08
9.6893516e-06