/*--------------------------------*- C++ -*----------------------------------*\
| =========                 |                                                 |
| \\      /  F ield         | OpenFOAM: The Open Source CFD Toolbox           |
|  \\    /   O peration     | Version:  2412                                  |
|   \\  /    A nd           | Website:  www.openfoam.com                      |
|    \\/     M anipulation  |                                                 |
\*---------------------------------------------------------------------------*/
FoamFile
{
    version     2.0;
    format      ascii;
    arch        "LSB;label=32;scalar=64";
    class       volScalarField;
    location    "80/topAir";
    object      rho;
}
// * * * * * * * * * * * * * * * * * * * * * * * * * * * * * * * * * * * * * //

dimensions      [1 -3 0 0 0 0 0];

internalField   nonuniform List<scalar> 
1200
(
1.1586201
1.1586189
1.1586176
1.1586159
1.1586138
1.1586111
1.1586076
1.1586032
1.1585977
1.1585912
1.1585833
1.1585662
1.1583293
1.1524345
1.1472406
1.1428099
1.139175
1.1363371
1.1342683
1.1329125
1.1321921
1.1320157
1.1322912
1.1329374
1.133863
1.1349832
1.1362221
1.1375138
1.1388059
1.140009
1.1586201
1.15862
1.1586199
1.1586197
1.1586195
1.1586192
1.1586188
1.1586183
1.1586177
1.158617
1.1586161
1.1586147
1.1586043
1.1584628
1.1582111
1.1578708
1.1574637
1.1570111
1.1565325
1.1560454
1.1555643
1.1551
1.1546536
1.1542111
1.1537678
1.1533079
1.1527979
1.1521815
1.1513627
1.1502267
1.1586191
1.1586191
1.158619
1.158619
1.158619
1.158619
1.158619
1.1586189
1.1586189
1.1586188
1.1586187
1.1586186
1.1586182
1.1586145
1.1586052
1.1585886
1.1585635
1.158529
1.158485
1.1584317
1.1583696
1.1582994
1.1582217
1.1581361
1.1580283
1.1578817
1.1576727
1.1573601
1.156876
1.1561593
1.158618
1.158618
1.158618
1.158618
1.158618
1.158618
1.158618
1.158618
1.1586179
1.1586179
1.1586179
1.1586179
1.1586179
1.1586177
1.1586172
1.1586162
1.1586144
1.1586114
1.1586069
1.1586006
1.1585923
1.1585817
1.1585687
1.1585532
1.1585343
1.1585058
1.1584604
1.158384
1.1582513
1.1580385
1.1586201
1.1586189
1.1586175
1.1586158
1.1586137
1.1586109
1.1586074
1.1586029
1.1585972
1.1585903
1.158582
1.1585665
1.1583679
1.1526991
1.147653
1.1433246
1.1397754
1.1370248
1.135046
1.1337744
1.1331216
1.132988
1.1332705
1.1338668
1.1346766
1.1356017
1.1365449
1.1374389
1.1383694
1.1392619
1.1586201
1.15862
1.1586199
1.1586197
1.1586195
1.1586192
1.1586189
1.1586184
1.1586178
1.1586171
1.1586163
1.1586151
1.1586074
1.158492
1.1582854
1.1580055
1.157671
1.1572999
1.1569092
1.1565138
1.1561259
1.1557549
1.1554068
1.1550841
1.1547854
1.1545047
1.1542294
1.1539285
1.1534253
1.1525661
1.1586191
1.1586191
1.158619
1.158619
1.158619
1.158619
1.158619
1.1586189
1.1586189
1.1586188
1.1586188
1.1586187
1.1586184
1.1586158
1.1586094
1.1585978
1.1585803
1.1585564
1.1585261
1.1584895
1.158447
1.1583991
1.1583466
1.1582898
1.1582286
1.1581622
1.1580877
1.1579776
1.157779
1.1574465
1.158618
1.158618
1.158618
1.158618
1.158618
1.158618
1.158618
1.158618
1.1586179
1.1586179
1.1586179
1.1586179
1.1586179
1.1586178
1.1586175
1.1586169
1.1586159
1.1586141
1.1586116
1.158608
1.1586033
1.1585972
1.1585897
1.1585805
1.1585694
1.1585558
1.1585383
1.1585093
1.158456
1.1583662
1.15862
1.1586187
1.1586173
1.1586154
1.1586131
1.15861
1.1586059
1.1586006
1.1585938
1.1585851
1.1585741
1.1585538
1.1583125
1.1513482
1.1452058
1.1400032
1.1358315
1.1327267
1.1306237
1.1293993
1.1289097
1.1290107
1.1295649
1.1304443
1.13153
1.1327084
1.1338701
1.1349468
1.1360313
1.1370464
1.1586201
1.15862
1.1586199
1.1586197
1.1586195
1.1586192
1.1586188
1.1586183
1.1586176
1.1586168
1.1586158
1.1586144
1.1586053
1.1584663
1.158219
1.1578865
1.1574919
1.1570569
1.1566016
1.1561424
1.1556928
1.1552624
1.1548575
1.1544797
1.1541248
1.1537812
1.1534268
1.1530161
1.1523406
1.1512198
1.1586191
1.1586191
1.158619
1.158619
1.158619
1.158619
1.158619
1.1586189
1.1586189
1.1586188
1.1586187
1.1586186
1.1586183
1.1586153
1.1586078
1.1585944
1.1585743
1.158547
1.1585123
1.1584703
1.158421
1.1583645
1.1583003
1.1582272
1.1581427
1.1580412
1.1579118
1.1577072
1.1573477
1.156763
1.158618
1.158618
1.158618
1.158618
1.158618
1.158618
1.158618
1.158618
1.1586179
1.1586179
1.1586179
1.1586179
1.1586179
1.1586178
1.1586175
1.1586168
1.1586157
1.1586138
1.158611
1.158607
1.1586016
1.1585945
1.1585851
1.1585725
1.1585549
1.1585284
1.1584855
1.1584039
1.1582521
1.1580024
1.15862
1.1586186
1.158617
1.1586151
1.1586125
1.158609
1.1586043
1.158598
1.1585896
1.1585785
1.1585635
1.1585347
1.1582101
1.148959
1.1408189
1.1339374
1.1285169
1.1247397
1.1223905
1.1211886
1.1208769
1.1212405
1.1221044
1.1233259
1.1247883
1.1263932
1.1280559
1.1297029
1.1312777
1.1326931
1.1586201
1.15862
1.1586199
1.1586197
1.1586194
1.1586191
1.1586187
1.1586181
1.1586173
1.1586164
1.1586151
1.1586133
1.1586011
1.1584153
1.1580838
1.1576326
1.1570672
1.1563916
1.155637
1.1548333
1.1540082
1.1531871
1.1523828
1.1515983
1.1508249
1.1500397
1.1492003
1.1482352
1.1470231
1.1454058
1.1586191
1.1586191
1.158619
1.158619
1.158619
1.158619
1.158619
1.1586189
1.1586189
1.1586188
1.1586187
1.1586186
1.1586181
1.1586141
1.1586041
1.1585859
1.1585576
1.1585169
1.1584617
1.1583898
1.1582972
1.1581766
1.1580203
1.1578169
1.1575493
1.1571883
1.1566886
1.1559791
1.1549524
1.1535164
1.158618
1.158618
1.158618
1.158618
1.158618
1.158618
1.158618
1.158618
1.1586179
1.1586179
1.1586179
1.1586179
1.1586179
1.1586177
1.1586173
1.1586165
1.1586148
1.1586121
1.1586077
1.158601
1.1585908
1.1585753
1.1585514
1.158514
1.1584509
1.1583441
1.158163
1.1578581
1.1573567
1.156609
1.1586199
1.1586185
1.1586169
1.1586148
1.1586121
1.1586083
1.1586032
1.1585963
1.1585867
1.1585736
1.158555
1.1585163
1.1580747
1.1455496
1.134517
1.125195
1.1179925
1.1138556
1.1117383
1.1110054
1.1112436
1.1121678
1.1135723
1.1153038
1.1172458
1.1193075
1.1214169
1.1235151
1.1255536
1.1274485
1.1586201
1.15862
1.1586199
1.1586197
1.1586194
1.1586191
1.1586186
1.158618
1.1586171
1.158616
1.1586147
1.1586124
1.158596
1.1583426
1.1578535
1.1570303
1.1558377
1.1543517
1.1526521
1.1508173
1.1489189
1.1470182
1.1451649
1.143397
1.1417409
1.1402113
1.1388102
1.1375258
1.1363347
1.1352158
1.1586191
1.1586191
1.158619
1.158619
1.158619
1.158619
1.1586189
1.1586189
1.1586188
1.1586188
1.1586187
1.1586185
1.158618
1.1586125
1.158598
1.1585683
1.1585083
1.1583975
1.1582163
1.1579446
1.157563
1.1570538
1.1564015
1.155592
1.154611
1.1534409
1.1520556
1.1504141
1.1484563
1.1461772
1.158618
1.158618
1.158618
1.158618
1.158618
1.158618
1.158618
1.158618
1.1586179
1.1586179
1.1586179
1.1586179
1.1586179
1.1586177
1.1586171
1.1586158
1.1586128
1.158607
1.1585952
1.1585721
1.1585304
1.1584595
1.1583452
1.1581682
1.1579024
1.1575123
1.1569478
1.156137
1.154979
1.1534133
1.1586199
1.1586185
1.1586169
1.1586148
1.1586121
1.1586083
1.1586032
1.1585963
1.1585867
1.1585736
1.158555
1.1585163
1.1580747
1.1455496
1.134517
1.125195
1.1179925
1.1138556
1.1117383
1.1110054
1.1112437
1.1121679
1.1135723
1.1153038
1.1172458
1.1193075
1.1214169
1.1235151
1.1255536
1.1274485
1.1586201
1.15862
1.1586199
1.1586197
1.1586194
1.1586191
1.1586186
1.158618
1.1586171
1.158616
1.1586147
1.1586124
1.158596
1.1583426
1.1578535
1.1570303
1.1558377
1.1543517
1.1526521
1.1508173
1.1489189
1.1470182
1.1451649
1.143397
1.1417409
1.1402113
1.1388102
1.1375258
1.1363347
1.1352158
1.1586191
1.1586191
1.158619
1.158619
1.158619
1.158619
1.1586189
1.1586189
1.1586188
1.1586188
1.1586187
1.1586185
1.158618
1.1586125
1.158598
1.1585683
1.1585083
1.1583975
1.1582163
1.1579446
1.157563
1.1570538
1.1564015
1.155592
1.154611
1.1534409
1.1520556
1.1504141
1.1484563
1.1461772
1.158618
1.158618
1.158618
1.158618
1.158618
1.158618
1.158618
1.158618
1.1586179
1.1586179
1.1586179
1.1586179
1.1586179
1.1586177
1.1586171
1.1586158
1.1586128
1.158607
1.1585952
1.1585721
1.1585304
1.1584595
1.1583452
1.1581682
1.1579024
1.1575123
1.1569478
1.156137
1.154979
1.1534133
1.15862
1.1586186
1.158617
1.1586151
1.1586125
1.158609
1.1586043
1.158598
1.1585896
1.1585785
1.1585635
1.1585347
1.1582101
1.148959
1.1408189
1.1339374
1.1285169
1.1247397
1.1223905
1.1211886
1.1208769
1.1212406
1.1221044
1.123326
1.1247883
1.1263932
1.1280559
1.1297029
1.1312777
1.1326931
1.1586201
1.15862
1.1586199
1.1586197
1.1586194
1.1586191
1.1586187
1.1586181
1.1586173
1.1586164
1.1586151
1.1586133
1.1586011
1.1584153
1.1580838
1.1576326
1.1570672
1.1563916
1.155637
1.1548333
1.1540082
1.1531871
1.1523828
1.1515983
1.1508249
1.1500397
1.1492003
1.1482352
1.1470231
1.1454058
1.1586191
1.1586191
1.158619
1.158619
1.158619
1.158619
1.158619
1.1586189
1.1586189
1.1586188
1.1586187
1.1586186
1.1586181
1.1586141
1.1586041
1.1585859
1.1585576
1.1585169
1.1584617
1.1583898
1.1582972
1.1581766
1.1580203
1.1578169
1.1575493
1.1571883
1.1566886
1.1559791
1.1549524
1.1535164
1.158618
1.158618
1.158618
1.158618
1.158618
1.158618
1.158618
1.158618
1.1586179
1.1586179
1.1586179
1.1586179
1.1586179
1.1586177
1.1586173
1.1586165
1.1586148
1.1586121
1.1586077
1.158601
1.1585908
1.1585753
1.1585514
1.158514
1.1584509
1.1583441
1.158163
1.1578581
1.1573567
1.156609
1.15862
1.1586187
1.1586173
1.1586154
1.1586131
1.15861
1.1586059
1.1586006
1.1585938
1.1585851
1.1585741
1.1585538
1.1583125
1.1513482
1.1452058
1.1400032
1.1358315
1.1327267
1.1306237
1.1293993
1.1289097
1.1290108
1.1295649
1.1304443
1.13153
1.1327084
1.1338701
1.1349468
1.1360313
1.1370464
1.1586201
1.15862
1.1586199
1.1586197
1.1586195
1.1586192
1.1586188
1.1586183
1.1586176
1.1586168
1.1586158
1.1586144
1.1586053
1.1584663
1.158219
1.1578865
1.1574919
1.1570569
1.1566016
1.1561424
1.1556928
1.1552624
1.1548575
1.1544797
1.1541248
1.1537812
1.1534268
1.1530161
1.1523406
1.1512198
1.1586191
1.1586191
1.158619
1.158619
1.158619
1.158619
1.158619
1.1586189
1.1586189
1.1586188
1.1586187
1.1586186
1.1586183
1.1586153
1.1586078
1.1585944
1.1585743
1.158547
1.1585123
1.1584703
1.158421
1.1583645
1.1583003
1.1582272
1.1581427
1.1580412
1.1579118
1.1577072
1.1573477
1.156763
1.158618
1.158618
1.158618
1.158618
1.158618
1.158618
1.158618
1.158618
1.1586179
1.1586179
1.1586179
1.1586179
1.1586179
1.1586178
1.1586175
1.1586168
1.1586157
1.1586138
1.158611
1.158607
1.1586016
1.1585945
1.1585851
1.1585725
1.1585549
1.1585284
1.1584855
1.1584039
1.1582521
1.1580024
1.1586201
1.1586189
1.1586175
1.1586158
1.1586137
1.1586109
1.1586074
1.1586029
1.1585972
1.1585903
1.158582
1.1585665
1.1583679
1.1526991
1.147653
1.1433246
1.1397754
1.1370248
1.135046
1.1337744
1.1331216
1.132988
1.1332705
1.1338668
1.1346766
1.1356017
1.1365449
1.1374389
1.1383694
1.1392619
1.1586201
1.15862
1.1586199
1.1586197
1.1586195
1.1586192
1.1586189
1.1586184
1.1586178
1.1586171
1.1586163
1.1586151
1.1586074
1.158492
1.1582854
1.1580055
1.157671
1.1572999
1.1569092
1.1565138
1.1561259
1.1557549
1.1554068
1.1550841
1.1547854
1.1545047
1.1542294
1.1539285
1.1534253
1.1525661
1.1586191
1.1586191
1.158619
1.158619
1.158619
1.158619
1.158619
1.1586189
1.1586189
1.1586188
1.1586188
1.1586187
1.1586184
1.1586158
1.1586094
1.1585978
1.1585803
1.1585564
1.1585261
1.1584895
1.158447
1.1583991
1.1583466
1.1582898
1.1582286
1.1581622
1.1580877
1.1579776
1.157779
1.1574465
1.158618
1.158618
1.158618
1.158618
1.158618
1.158618
1.158618
1.158618
1.1586179
1.1586179
1.1586179
1.1586179
1.1586179
1.1586178
1.1586175
1.1586169
1.1586159
1.1586141
1.1586116
1.158608
1.1586033
1.1585972
1.1585897
1.1585805
1.1585694
1.1585558
1.1585383
1.1585093
1.158456
1.1583662
1.1586201
1.1586189
1.1586176
1.1586159
1.1586138
1.1586111
1.1586076
1.1586032
1.1585977
1.1585912
1.1585833
1.1585662
1.1583293
1.1524346
1.1472406
1.1428099
1.139175
1.1363371
1.1342683
1.1329125
1.132192
1.1320158
1.1322912
1.1329374
1.1338629
1.1349832
1.136222
1.1375137
1.1388059
1.1400089
1.1586201
1.15862
1.1586199
1.1586197
1.1586195
1.1586192
1.1586188
1.1586183
1.1586177
1.158617
1.1586161
1.1586147
1.1586043
1.1584628
1.1582111
1.1578708
1.1574637
1.1570111
1.1565325
1.1560454
1.1555643
1.1551
1.1546536
1.1542111
1.1537678
1.1533079
1.1527979
1.1521815
1.1513626
1.1502267
1.1586191
1.1586191
1.158619
1.158619
1.158619
1.158619
1.158619
1.1586189
1.1586189
1.1586188
1.1586187
1.1586186
1.1586182
1.1586145
1.1586052
1.1585886
1.1585635
1.158529
1.158485
1.1584317
1.1583696
1.1582994
1.1582217
1.1581361
1.1580283
1.1578817
1.1576727
1.1573601
1.156876
1.1561592
1.158618
1.158618
1.158618
1.158618
1.158618
1.158618
1.158618
1.158618
1.1586179
1.1586179
1.1586179
1.1586179
1.1586179
1.1586177
1.1586172
1.1586162
1.1586144
1.1586114
1.1586069
1.1586006
1.1585923
1.1585817
1.1585687
1.1585532
1.1585343
1.1585058
1.1584604
1.158384
1.1582513
1.1580385
)
;

boundaryField
{
    maxY
    {
        type            calculated;
        value           nonuniform List<scalar> 
300
(
1.1586175
1.1586175
1.1586175
1.1586175
1.1586175
1.1586175
1.1586175
1.1586175
1.1586175
1.1586175
1.1586175
1.1586175
1.1586175
1.1586175
1.1586175
1.1586175
1.1586175
1.1586175
1.1586175
1.1586175
1.1586175
1.1586175
1.1586175
1.1586175
1.1586175
1.1586175
1.1586175
1.1586175
1.1586175
1.1586175
1.1586175
1.1586175
1.1586175
1.1586175
1.1586175
1.1586175
1.1586175
1.1586175
1.1586175
1.1586175
1.1586175
1.1586175
1.1586175
1.1586175
1.1586175
1.1586175
1.1586175
1.1586175
1.1586175
1.1586175
1.1586174
1.1586174
1.1586174
1.1586174
1.1586174
1.1586174
1.1586174
1.1586174
1.1586174
1.1586174
1.1586174
1.1586174
1.1586174
1.1586174
1.1586174
1.1586174
1.1586174
1.1586174
1.1586174
1.1586174
1.1586174
1.1586174
1.1586174
1.1586174
1.1586174
1.1586174
1.1586174
1.1586174
1.1586174
1.1586174
1.1586174
1.1586174
1.1586174
1.1586174
1.1586174
1.1586174
1.1586174
1.1586174
1.1586174
1.1586174
1.1586174
1.1586174
1.1586174
1.1586174
1.1586174
1.1586174
1.1586174
1.1586174
1.1586174
1.1586174
1.1586174
1.1586174
1.1586174
1.1586174
1.1586174
1.1586174
1.1586174
1.1586174
1.1586174
1.1586174
1.1586174
1.1586174
1.1586174
1.1586174
1.1586174
1.1586174
1.1586174
1.1586174
1.1586174
1.1586174
1.1586173
1.1586174
1.1586174
1.1586173
1.1586173
1.1586173
1.1586173
1.1586174
1.1586174
1.1586173
1.1586172
1.1586173
1.1586173
1.1586172
1.1586172
1.1586172
1.1586172
1.1586173
1.1586173
1.1586172
1.1586167
1.158617
1.158617
1.1586168
1.1586166
1.1586166
1.1586168
1.158617
1.158617
1.1586167
1.1586157
1.1586164
1.1586163
1.1586159
1.1586152
1.1586152
1.1586159
1.1586163
1.1586164
1.1586157
1.1586139
1.1586153
1.1586151
1.1586143
1.1586123
1.1586123
1.1586143
1.1586151
1.1586153
1.1586139
1.1586109
1.1586136
1.1586132
1.1586115
1.1586064
1.1586064
1.1586115
1.1586132
1.1586136
1.1586109
1.1586064
1.1586111
1.1586104
1.1586072
1.1585947
1.1585947
1.1586072
1.1586104
1.1586111
1.1586064
1.1586001
1.1586075
1.1586065
1.1586005
1.1585716
1.1585716
1.1586005
1.1586065
1.1586075
1.1586001
1.1585918
1.1586028
1.1586011
1.1585903
1.1585299
1.1585299
1.1585903
1.1586011
1.1586028
1.1585918
1.1585811
1.1585967
1.158594
1.1585748
1.158459
1.158459
1.1585748
1.158594
1.1585967
1.1585811
1.1585682
1.1585892
1.1585846
1.1585509
1.1583447
1.1583447
1.1585509
1.1585846
1.1585892
1.1585682
1.1585526
1.15858
1.158572
1.1585135
1.1581676
1.1581676
1.1585135
1.158572
1.15858
1.1585526
1.1585338
1.1585689
1.1585543
1.1584504
1.1579019
1.1579019
1.1584504
1.1585543
1.1585689
1.1585338
1.1585053
1.1585553
1.1585279
1.1583436
1.1575118
1.1575118
1.1583436
1.1585279
1.1585553
1.1585053
1.1584599
1.1585377
1.1584849
1.1581625
1.1569473
1.1569473
1.1581625
1.1584849
1.1585377
1.1584599
1.1583834
1.1585087
1.1584033
1.1578576
1.1561364
1.1561364
1.1578576
1.1584033
1.1585087
1.1583834
1.1582508
1.1584555
1.1582516
1.1573562
1.1549785
1.1549785
1.1573562
1.1582516
1.1584555
1.1582508
1.158038
1.1583657
1.1580019
1.1566085
1.1534128
1.1534128
1.1566085
1.1580019
1.1583657
1.158038
)
;
    }
    minX
    {
        type            calculated;
        value           nonuniform List<scalar> 
40
(
1.1586212
1.1586201
1.1586191
1.158618
1.1586212
1.1586201
1.1586191
1.158618
1.1586212
1.1586201
1.1586191
1.158618
1.1586212
1.1586201
1.1586191
1.158618
1.1586212
1.1586201
1.1586191
1.158618
1.1586212
1.1586201
1.1586191
1.158618
1.1586212
1.1586201
1.1586191
1.158618
1.1586212
1.1586201
1.1586191
1.158618
1.1586212
1.1586201
1.1586191
1.158618
1.1586212
1.1586201
1.1586191
1.158618
)
;
    }
    maxX
    {
        type            calculated;
        value           nonuniform List<scalar> 
40
(
1.1400192
1.1502328
1.1561618
1.1580392
1.1392711
1.1525692
1.1574472
1.1583664
1.1370554
1.1512227
1.1567638
1.1580027
1.1327024
1.14541
1.1535182
1.1566098
1.127458
1.1352221
1.1461809
1.153415
1.127458
1.1352221
1.1461809
1.1534151
1.1327024
1.14541
1.1535182
1.1566098
1.1370554
1.1512227
1.1567638
1.1580027
1.1392711
1.1525692
1.1574472
1.1583664
1.1400191
1.1502328
1.1561617
1.1580392
)
;
    }
    minZ
    {
        type            calculated;
        value           nonuniform List<scalar> 
120
(
1.1586201
1.1586201
1.1586191
1.158618
1.1586189
1.15862
1.1586191
1.158618
1.1586176
1.1586199
1.158619
1.158618
1.1586159
1.1586197
1.158619
1.158618
1.1586138
1.1586195
1.158619
1.158618
1.1586111
1.1586192
1.158619
1.158618
1.1586076
1.1586188
1.158619
1.158618
1.1586032
1.1586183
1.1586189
1.158618
1.1585977
1.1586177
1.1586189
1.1586179
1.1585912
1.158617
1.1586188
1.1586179
1.1585833
1.1586161
1.1586187
1.1586179
1.1585662
1.1586147
1.1586186
1.1586179
1.1583293
1.1586043
1.1586182
1.1586179
1.1524345
1.1584628
1.1586145
1.1586177
1.1472406
1.1582111
1.1586052
1.1586172
1.1428099
1.1578708
1.1585886
1.1586162
1.139175
1.1574637
1.1585635
1.1586144
1.1363371
1.1570111
1.158529
1.1586114
1.1342683
1.1565325
1.158485
1.1586069
1.1329125
1.1560454
1.1584317
1.1586006
1.1321921
1.1555643
1.1583696
1.1585923
1.1320157
1.1551
1.1582994
1.1585817
1.1322912
1.1546536
1.1582217
1.1585687
1.1329374
1.1542111
1.1581361
1.1585532
1.133863
1.1537678
1.1580283
1.1585343
1.1349832
1.1533079
1.1578817
1.1585058
1.1362221
1.1527979
1.1576727
1.1584604
1.1375138
1.1521815
1.1573601
1.158384
1.1388059
1.1513627
1.156876
1.1582513
1.140009
1.1502267
1.1561593
1.1580385
)
;
    }
    maxZ
    {
        type            calculated;
        value           nonuniform List<scalar> 
120
(
1.1586201
1.1586201
1.1586191
1.158618
1.1586189
1.15862
1.1586191
1.158618
1.1586176
1.1586199
1.158619
1.158618
1.1586159
1.1586197
1.158619
1.158618
1.1586138
1.1586195
1.158619
1.158618
1.1586111
1.1586192
1.158619
1.158618
1.1586076
1.1586188
1.158619
1.158618
1.1586032
1.1586183
1.1586189
1.158618
1.1585977
1.1586177
1.1586189
1.1586179
1.1585912
1.158617
1.1586188
1.1586179
1.1585833
1.1586161
1.1586187
1.1586179
1.1585662
1.1586147
1.1586186
1.1586179
1.1583293
1.1586043
1.1586182
1.1586179
1.1524346
1.1584628
1.1586145
1.1586177
1.1472406
1.1582111
1.1586052
1.1586172
1.1428099
1.1578708
1.1585886
1.1586162
1.139175
1.1574637
1.1585635
1.1586144
1.1363371
1.1570111
1.158529
1.1586114
1.1342683
1.1565325
1.158485
1.1586069
1.1329125
1.1560454
1.1584317
1.1586006
1.132192
1.1555643
1.1583696
1.1585923
1.1320158
1.1551
1.1582994
1.1585817
1.1322912
1.1546536
1.1582217
1.1585687
1.1329374
1.1542111
1.1581361
1.1585532
1.1338629
1.1537678
1.1580283
1.1585343
1.1349832
1.1533079
1.1578817
1.1585058
1.136222
1.1527979
1.1576727
1.1584604
1.1375137
1.1521815
1.1573601
1.158384
1.1388059
1.1513626
1.156876
1.1582513
1.1400089
1.1502267
1.1561592
1.1580385
)
;
    }
    topAir_to_rightSolid
    {
        type            calculated;
        value           nonuniform List<scalar> 
130
(
1.0823383
1.0909843
1.0999316
1.1086811
1.116857
1.1242112
1.1306058
1.135988
1.1403629
1.1437695
1.1462607
1.1478883
1.1486918
1.0743311
1.0846952
1.0951936
1.1052238
1.1143945
1.1224888
1.1294169
1.1351743
1.1398075
1.1433875
1.1459907
1.1476849
1.1485196
1.0584935
1.0727022
1.0864682
1.0990463
1.1101027
1.1195465
1.127418
1.1338233
1.138894
1.1427636
1.145552
1.1473556
1.1482411
1.0356585
1.0568252
1.0757113
1.0918443
1.1053083
1.1163636
1.125307
1.1324214
1.1379581
1.14213
1.1451088
1.1470239
1.1479609
1.0101858
1.0423546
1.0671451
1.0866055
1.1020265
1.1142721
1.1239571
1.1315407
1.1373764
1.1417384
1.1448354
1.146819
1.1477875
1.0101859
1.0423546
1.0671451
1.0866055
1.1020265
1.1142721
1.1239571
1.1315407
1.1373764
1.1417384
1.1448354
1.146819
1.1477875
1.0356585
1.0568253
1.0757113
1.0918443
1.1053083
1.1163636
1.125307
1.1324214
1.1379581
1.14213
1.1451088
1.1470239
1.1479609
1.0584934
1.0727021
1.0864682
1.0990462
1.1101027
1.1195464
1.1274179
1.1338232
1.138894
1.1427636
1.145552
1.1473556
1.1482411
1.074331
1.0846952
1.0951936
1.1052238
1.1143945
1.1224887
1.1294168
1.1351743
1.1398075
1.1433875
1.1459907
1.1476849
1.1485196
1.0823381
1.0909842
1.0999315
1.108681
1.116857
1.1242111
1.1306057
1.135988
1.1403629
1.1437695
1.1462607
1.1478882
1.1486918
)
;
    }
    topAir_to_heater
    {
        type            calculated;
        value           nonuniform List<scalar> 
40
(
1.0615098
1.0637862
1.0682321
1.0745734
1.049201
1.0519031
1.0572278
1.0649006
1.0241531
1.0276216
1.0346598
1.0451932
0.98590268
0.99008354
0.9991813
1.0142733
0.93505893
0.93873194
0.94802585
0.96731476
0.9350589
0.93873191
0.94802582
0.96731473
0.98590266
0.99008352
0.99918129
1.0142733
1.0241531
1.0276216
1.0346598
1.0451932
1.049201
1.0519031
1.0572278
1.0649006
1.06151
1.0637862
1.0682321
1.0745733
)
;
    }
    topAir_to_leftSolid
    {
        type            calculated;
        value           nonuniform List<scalar> 
130
(
1.1585963
1.1585937
1.1585885
1.1585805
1.1585694
1.1585549
1.158537
1.1585156
1.1584913
1.1584652
1.1584393
1.1584166
1.1584006
1.1585954
1.1585927
1.1585871
1.1585784
1.1585661
1.1585499
1.1585293
1.1585041
1.1584744
1.1584408
1.1584055
1.1583722
1.1583472
1.1585941
1.158591
1.1585847
1.1585748
1.1585607
1.1585414
1.1585162
1.1584838
1.1584435
1.1583946
1.1583379
1.1582772
1.158223
1.1585927
1.1585893
1.1585823
1.1585712
1.158555
1.1585324
1.1585018
1.158461
1.158407
1.1583364
1.1582456
1.1581321
1.1580046
1.1585918
1.1585883
1.1585808
1.1585689
1.1585513
1.1585265
1.1584922
1.1584451
1.1583803
1.1582907
1.1581648
1.1579834
1.1577266
1.1585918
1.1585883
1.1585808
1.1585689
1.1585513
1.1585265
1.1584922
1.1584451
1.1583803
1.1582907
1.1581648
1.1579834
1.1577266
1.1585927
1.1585893
1.1585823
1.1585712
1.158555
1.1585324
1.1585018
1.158461
1.158407
1.1583364
1.1582456
1.1581321
1.1580046
1.1585941
1.158591
1.1585847
1.1585748
1.1585607
1.1585414
1.1585162
1.1584838
1.1584435
1.1583946
1.1583379
1.1582772
1.158223
1.1585954
1.1585927
1.1585871
1.1585784
1.1585661
1.1585499
1.1585293
1.1585041
1.1584744
1.1584408
1.1584055
1.1583722
1.1583472
1.1585963
1.1585937
1.1585885
1.1585805
1.1585694
1.1585549
1.158537
1.1585156
1.1584913
1.1584652
1.1584393
1.1584166
1.1584006
)
;
    }
}


// ************************************************************************* //
