/*--------------------------------*- C++ -*----------------------------------*\
| =========                 |                                                 |
| \\      /  F ield         | OpenFOAM: The Open Source CFD Toolbox           |
|  \\    /   O peration     | Version:  2412                                  |
|   \\  /    A nd           | Website:  www.openfoam.com                      |
|    \\/     M anipulation  |                                                 |
\*---------------------------------------------------------------------------*/
FoamFile
{
    version     2.0;
    format      ascii;
    arch        "LSB;label=32;scalar=64";
    class       volScalarField;
    location    "80/topAir";
    object      T;
}
// * * * * * * * * * * * * * * * * * * * * * * * * * * * * * * * * * * * * * //

dimensions      [0 0 0 1 0 0 0];

internalField   nonuniform List<scalar> 
1200
(
300.00028
300.00058
300.00093
300.00136
300.00191
300.00261
300.00352
300.00466
300.00607
300.00777
300.00981
300.01422
300.07558
301.61048
302.97597
304.15061
305.12111
305.88312
306.44102
306.80775
307.00298
307.0508
306.97609
306.801
306.55056
306.24799
305.91407
305.56669
305.21998
304.89789
300.00001
300.00003
300.00006
300.0001
300.00015
300.00023
300.00033
300.00045
300.00061
300.0008
300.00103
300.00139
300.00408
300.04072
300.10594
300.19414
300.29971
300.41719
300.5415
300.66814
300.79333
300.91423
301.03056
301.14597
301.26167
301.3818
301.51513
301.67645
301.89099
302.18913
300
300
300
300.00001
300.00001
300.00002
300.00002
300.00003
300.00005
300.00006
300.00008
300.00011
300.00023
300.00118
300.00357
300.00787
300.01438
300.02331
300.0347
300.0485
300.06459
300.08278
300.10291
300.12508
300.15304
300.19102
300.24521
300.32632
300.45198
300.63825
300
300
300
300
300.00001
300.00001
300.00001
300.00001
300.00001
300.00001
300.00002
300.00002
300.00003
300.00007
300.00019
300.00045
300.00093
300.00171
300.00287
300.00449
300.00665
300.00939
300.01276
300.01677
300.02166
300.02903
300.04079
300.06059
300.09495
300.15011
300.00028
300.00059
300.00095
300.00138
300.00194
300.00265
300.00357
300.00474
300.00619
300.00798
300.01013
300.01414
300.06557
301.54127
302.86711
304.0137
304.96037
305.69811
306.23105
306.57452
306.75112
306.78731
306.71082
306.54953
306.33074
306.08119
305.82719
305.5868
305.33703
305.09783
300.00001
300.00003
300.00006
300.0001
300.00015
300.00022
300.00032
300.00044
300.00059
300.00077
300.00098
300.0013
300.00328
300.03318
300.08669
300.15921
300.24595
300.34221
300.44364
300.54637
300.64721
300.7437
300.83431
300.91837
300.99619
301.06937
301.1412
301.21972
301.35112
301.57577
300
300
300
300.00001
300.00001
300.00002
300.00002
300.00003
300.00004
300.00006
300.00007
300.0001
300.00017
300.00084
300.0025
300.0055
300.01003
300.01621
300.02406
300.03354
300.04455
300.05694
300.07056
300.08528
300.10111
300.11832
300.13764
300.16616
300.21767
300.30388
300
300
300
300
300
300.00001
300.00001
300.00001
300.00001
300.00001
300.00002
300.00002
300.00002
300.00005
300.00012
300.00027
300.00054
300.00099
300.00165
300.00258
300.0038
300.00537
300.00732
300.00969
300.01256
300.01608
300.02063
300.02814
300.04194
300.06519
300.0003
300.00063
300.00101
300.00148
300.00209
300.00289
300.00394
300.00532
300.00709
300.00934
300.01219
300.01743
300.07992
301.89506
303.5143
304.89944
306.01928
306.85807
307.42884
307.76214
307.89559
307.86805
307.71702
307.47762
307.18261
306.86303
306.54864
306.25781
305.96545
305.6923
300.00001
300.00003
300.00006
300.0001
300.00016
300.00024
300.00034
300.00047
300.00064
300.00085
300.00111
300.00148
300.00384
300.03983
300.10388
300.19007
300.29241
300.40528
300.52356
300.64291
300.75988
300.87192
300.9774
301.0759
301.16848
301.25817
301.35075
301.45807
301.63478
301.92845
300
300
300
300.00001
300.00001
300.00002
300.00002
300.00003
300.00004
300.00006
300.00008
300.00011
300.00019
300.00097
300.00291
300.00637
300.01157
300.01864
300.02763
300.03852
300.05128
300.06592
300.08255
300.10148
300.12339
300.1497
300.18323
300.23626
300.32954
300.48133
300
300
300
300
300
300.00001
300.00001
300.00001
300.00001
300.00001
300.00002
300.00002
300.00002
300.00005
300.00013
300.00029
300.0006
300.00109
300.00181
300.00284
300.00423
300.00607
300.0085
300.01176
300.01633
300.02318
300.03431
300.05544
300.09475
300.15945
300.00031
300.00066
300.00107
300.00158
300.00225
300.00315
300.00436
300.00599
300.00816
300.01105
300.01493
300.02238
300.10646
302.52284
304.68145
306.53044
308.00278
309.03714
309.68397
310.01595
310.10216
310.00159
309.76292
309.42607
309.02379
308.58349
308.12865
307.67942
307.2511
306.86718
300.00001
300.00003
300.00006
300.00011
300.00017
300.00026
300.00037
300.00052
300.00072
300.00097
300.00128
300.00176
300.00491
300.05302
300.13893
300.2559
300.40263
300.57812
300.7744
300.98372
301.19892
301.41338
301.62375
301.82923
302.03205
302.23829
302.45904
302.71325
303.03314
303.46101
300
300
300
300.00001
300.00001
300.00002
300.00002
300.00003
300.00005
300.00007
300.00009
300.00012
300.00023
300.00127
300.00388
300.00858
300.01591
300.02644
300.04073
300.05937
300.08335
300.1146
300.1551
300.20782
300.27724
300.3709
300.50066
300.68512
300.95241
301.32704
300
300
300
300
300.00001
300.00001
300.00001
300.00001
300.00001
300.00001
300.00002
300.00002
300.00003
300.00006
300.00016
300.00039
300.00081
300.00153
300.00266
300.00439
300.00703
300.01104
300.01722
300.02691
300.04325
300.07092
300.11785
300.19686
300.32692
300.52106
300.00032
300.00068
300.0011
300.00164
300.00236
300.00332
300.00464
300.00644
300.00891
300.01231
300.01713
300.02714
300.14154
303.42322
306.37383
308.9121
310.90221
312.05691
312.65123
312.85746
312.79039
312.53047
312.13629
311.65169
311.10999
310.53693
309.95282
309.37397
308.81367
308.29463
300.00001
300.00003
300.00007
300.00011
300.00018
300.00027
300.00039
300.00056
300.00077
300.00105
300.00141
300.00199
300.00624
300.07187
300.19861
300.41219
300.72216
301.10928
301.55329
302.03407
302.53313
303.03445
303.52487
303.99418
304.43511
304.84351
305.21857
305.56319
305.88348
306.18497
300
300
300
300.00001
300.00001
300.00002
300.00003
300.00004
300.00005
300.00007
300.00009
300.00013
300.00028
300.00169
300.00544
300.01312
300.02868
300.05736
300.10432
300.17474
300.27369
300.40582
300.57527
300.78583
301.04139
301.34679
301.70913
302.13963
302.65471
303.2565
300
300
300
300
300.00001
300.00001
300.00001
300.00001
300.00001
300.00001
300.00002
300.00002
300.00003
300.00007
300.00022
300.00057
300.00133
300.00285
300.0059
300.01187
300.02268
300.04103
300.07064
300.11651
300.18539
300.28657
300.43308
300.64378
300.94521
301.35372
300.00032
300.00068
300.0011
300.00164
300.00236
300.00332
300.00464
300.00644
300.00891
300.01231
300.01713
300.02714
300.14154
303.42322
306.37384
308.9121
310.90221
312.05691
312.65123
312.85746
312.79038
312.53045
312.13629
311.65169
311.10998
310.53693
309.95281
309.37397
308.81366
308.29463
300.00001
300.00003
300.00007
300.00011
300.00018
300.00027
300.00039
300.00056
300.00077
300.00105
300.00141
300.00199
300.00624
300.07187
300.19861
300.41219
300.72216
301.10928
301.55329
302.03407
302.53313
303.03445
303.52487
303.99418
304.43511
304.84351
305.21857
305.56319
305.88348
306.18496
300
300
300
300.00001
300.00001
300.00002
300.00003
300.00004
300.00005
300.00007
300.00009
300.00013
300.00028
300.00169
300.00544
300.01312
300.02868
300.05736
300.10432
300.17474
300.27369
300.40582
300.57527
300.78583
301.04139
301.34679
301.70913
302.13963
302.6547
303.2565
300
300
300
300
300.00001
300.00001
300.00001
300.00001
300.00001
300.00001
300.00002
300.00002
300.00003
300.00007
300.00022
300.00057
300.00133
300.00285
300.0059
300.01187
300.02268
300.04103
300.07064
300.11651
300.18539
300.28657
300.43308
300.64378
300.9452
301.35372
300.00031
300.00066
300.00107
300.00158
300.00225
300.00315
300.00436
300.00599
300.00816
300.01105
300.01493
300.02238
300.10646
302.52284
304.68145
306.53044
308.00278
309.03714
309.68397
310.01595
310.10215
310.00157
309.76292
309.42605
309.02377
308.58347
308.12864
307.67941
307.2511
306.86717
300.00001
300.00003
300.00006
300.00011
300.00017
300.00026
300.00037
300.00052
300.00072
300.00097
300.00128
300.00176
300.00491
300.05302
300.13893
300.2559
300.40263
300.57812
300.7744
300.98372
301.19891
301.41337
301.62375
301.82922
302.03205
302.23829
302.45904
302.71325
303.03313
303.46101
300
300
300
300.00001
300.00001
300.00002
300.00002
300.00003
300.00005
300.00007
300.00009
300.00012
300.00023
300.00127
300.00388
300.00858
300.01591
300.02644
300.04073
300.05937
300.08335
300.1146
300.1551
300.20782
300.27724
300.3709
300.50066
300.68512
300.95241
301.32704
300
300
300
300
300.00001
300.00001
300.00001
300.00001
300.00001
300.00001
300.00002
300.00002
300.00003
300.00006
300.00016
300.00039
300.00081
300.00153
300.00266
300.00439
300.00703
300.01104
300.01722
300.02691
300.04325
300.07092
300.11785
300.19686
300.32692
300.52106
300.0003
300.00063
300.00101
300.00148
300.00209
300.00289
300.00394
300.00532
300.00709
300.00934
300.01219
300.01743
300.07992
301.89506
303.5143
304.89944
306.01928
306.85807
307.42884
307.76214
307.89559
307.86803
307.71702
307.47761
307.18261
306.86302
306.54864
306.25781
305.96545
305.6923
300.00001
300.00003
300.00006
300.0001
300.00016
300.00024
300.00034
300.00047
300.00064
300.00085
300.00111
300.00148
300.00384
300.03983
300.10388
300.19007
300.29241
300.40528
300.52356
300.64291
300.75988
300.87192
300.9774
301.0759
301.16848
301.25817
301.35075
301.45807
301.63478
301.92845
300
300
300
300.00001
300.00001
300.00002
300.00002
300.00003
300.00004
300.00006
300.00008
300.00011
300.00019
300.00097
300.00291
300.00637
300.01157
300.01864
300.02763
300.03852
300.05128
300.06592
300.08255
300.10148
300.12339
300.1497
300.18323
300.23626
300.32954
300.48133
300
300
300
300
300
300.00001
300.00001
300.00001
300.00001
300.00001
300.00002
300.00002
300.00002
300.00005
300.00013
300.00029
300.0006
300.00109
300.00181
300.00284
300.00423
300.00607
300.0085
300.01176
300.01633
300.02318
300.03431
300.05544
300.09475
300.15945
300.00028
300.00059
300.00095
300.00138
300.00194
300.00265
300.00357
300.00474
300.00619
300.00798
300.01013
300.01414
300.06557
301.54127
302.86711
304.0137
304.96037
305.69811
306.23105
306.57452
306.75113
306.7873
306.71082
306.54953
306.33074
306.08119
305.82719
305.58681
305.33704
305.09783
300.00001
300.00003
300.00006
300.0001
300.00015
300.00022
300.00032
300.00044
300.00059
300.00077
300.00098
300.0013
300.00328
300.03318
300.08669
300.15921
300.24595
300.34221
300.44364
300.54637
300.64721
300.7437
300.83431
300.91837
300.99619
301.06937
301.1412
301.21972
301.35112
301.57577
300
300
300
300.00001
300.00001
300.00002
300.00002
300.00003
300.00004
300.00006
300.00007
300.0001
300.00017
300.00084
300.0025
300.0055
300.01003
300.01621
300.02406
300.03354
300.04455
300.05694
300.07056
300.08528
300.10111
300.11832
300.13764
300.16616
300.21767
300.30388
300
300
300
300
300
300.00001
300.00001
300.00001
300.00001
300.00001
300.00002
300.00002
300.00002
300.00005
300.00012
300.00027
300.00054
300.00099
300.00165
300.00258
300.0038
300.00537
300.00732
300.00969
300.01256
300.01608
300.02063
300.02814
300.04194
300.06519
300.00028
300.00058
300.00093
300.00136
300.00191
300.00261
300.00352
300.00466
300.00607
300.00777
300.00981
300.01422
300.07558
301.61048
302.97596
304.15061
305.12111
305.88312
306.44103
306.80776
307.00298
307.05079
306.9761
306.80101
306.55058
306.248
305.91409
305.56671
305.21999
304.8979
300.00001
300.00003
300.00006
300.0001
300.00015
300.00023
300.00033
300.00045
300.00061
300.0008
300.00103
300.00139
300.00408
300.04072
300.10594
300.19414
300.29971
300.41719
300.5415
300.66814
300.79333
300.91423
301.03056
301.14597
301.26167
301.3818
301.51513
301.67645
301.89099
302.18914
300
300
300
300.00001
300.00001
300.00002
300.00002
300.00003
300.00005
300.00006
300.00008
300.00011
300.00023
300.00118
300.00357
300.00787
300.01438
300.02331
300.0347
300.0485
300.06459
300.08278
300.10291
300.12508
300.15304
300.19102
300.24521
300.32632
300.45198
300.63825
300
300
300
300
300.00001
300.00001
300.00001
300.00001
300.00001
300.00001
300.00002
300.00002
300.00003
300.00007
300.00019
300.00045
300.00093
300.00171
300.00287
300.00449
300.00665
300.00939
300.01276
300.01677
300.02166
300.02903
300.04079
300.06059
300.09495
300.15011
)
;

boundaryField
{
    maxY
    {
        type            zeroGradient;
    }
    minX
    {
        type            fixedValue;
        value           uniform 300;
    }
    maxX
    {
        type            inletOutlet;
        inletValue      uniform 300;
        value           nonuniform List<scalar> 
40
(
304.89516
302.18753
300.63759
300.14992
305.09535
301.57497
300.3037
300.06515
305.68988
301.92769
300.48112
300.15938
306.86466
303.45991
301.32658
300.52086
308.29204
306.18329
303.25554
301.35325
308.29204
306.18329
303.25554
301.35325
306.86465
303.45991
301.32658
300.52086
305.68988
301.92769
300.48112
300.15938
305.09536
301.57497
300.3037
300.06515
304.89517
302.18754
300.6376
300.14992
)
;
    }
    minZ
    {
        type            zeroGradient;
    }
    maxZ
    {
        type            zeroGradient;
    }
    topAir_to_rightSolid
    {
        type            compressible::turbulentTemperatureRadCoupledMixed;
        refValue        nonuniform List<scalar> 
130
(
321.14894
318.60288
316.01033
313.5156
311.21976
309.18326
307.43404
305.97707
304.80292
303.89491
303.23435
302.80438
302.59259
323.54332
320.45079
317.37793
314.49669
311.90777
309.65793
307.75786
306.19653
304.95156
303.99652
303.30582
302.85801
302.63791
328.3854
324.03422
319.9272
316.26461
313.11368
310.47169
308.30338
306.56123
305.19598
304.1623
303.4218
302.94476
302.71114
335.62737
328.90302
323.12668
318.35069
314.47159
311.35648
308.88129
306.94026
305.44651
304.33059
303.5388
303.03199
302.78468
344.09202
333.46949
325.72037
319.88515
315.40756
311.94032
309.25167
307.17857
305.60215
304.43442
303.61077
303.08564
302.82997
344.09201
333.46948
325.72037
319.88515
315.40756
311.94032
309.25168
307.17857
305.60215
304.43442
303.61077
303.08564
302.82998
335.62736
328.90301
323.12668
318.35069
314.4716
311.35649
308.8813
306.94026
305.44651
304.33059
303.53881
303.03199
302.78469
328.38542
324.03423
319.92721
316.26463
313.11369
310.47169
308.3034
306.56124
305.19599
304.1623
303.4218
302.94477
302.71115
323.54335
320.45081
317.37795
314.4967
311.90778
309.65794
307.75789
306.19654
304.95157
303.99652
303.30582
302.85801
302.63792
321.14899
318.60292
316.01036
313.51562
311.21978
309.18328
307.43406
305.97708
304.80293
303.89492
303.23435
302.80438
302.5926
)
;
        refGradient     uniform 0;
        valueFraction   uniform 0.99967867;
        source          uniform 0;
        logInterval     -1;
        writePrecision  8;
        updateHeader    1;
        writeToFile     0;
        useUserTime     1;
        kappaMethod     fluidThermo;
        value           nonuniform List<scalar> 
130
(
321.14404
318.59898
316.00737
313.5135
311.21842
309.18255
307.43384
305.97725
304.80339
303.89556
303.2351
302.80515
302.59333
323.53759
320.44622
317.37446
314.4942
311.90612
309.65699
307.75747
306.19657
304.95192
303.9971
303.30655
302.8588
302.6387
328.37848
324.02888
319.92329
316.26193
313.112
310.4708
308.30311
306.56143
305.19651
304.16306
303.42271
302.94573
302.7121
335.61882
328.89684
323.12246
318.34803
314.47016
311.35597
308.88146
306.94093
305.44751
304.3318
303.54013
303.03334
302.78599
344.08172
333.4628
325.71624
319.88287
315.40664
311.94038
309.25244
307.17984
305.60373
304.43619
303.61262
303.08748
302.83172
344.08171
333.46279
325.71624
319.88287
315.40664
311.94039
309.25245
307.17984
305.60373
304.43619
303.61263
303.08748
302.83173
335.61882
328.89684
323.12247
318.34804
314.47016
311.35597
308.88147
306.94093
305.44752
304.33181
303.54014
303.03335
302.786
328.3785
324.0289
319.9233
316.26194
313.11201
310.47081
308.30313
306.56144
305.19652
304.16307
303.42271
302.94574
302.7121
323.53762
320.44624
317.37448
314.49422
311.90614
309.657
307.7575
306.19658
304.95193
303.99711
303.30656
302.85881
302.63871
321.14408
318.59901
316.0074
313.51352
311.21844
309.18257
307.43386
305.97726
304.8034
303.89557
303.2351
302.80516
302.59334
)
;
    }
    topAir_to_heater
    {
        type            compressible::turbulentTemperatureRadCoupledMixed;
        refValue        nonuniform List<scalar> 
40
(
327.4537
326.75233
325.39162
323.47052
331.29641
330.44471
328.77957
326.40964
339.40126
338.25481
335.95275
332.5657
352.57268
351.08275
347.88458
342.70625
371.74879
370.2929
366.66097
359.34689
371.7488
370.29291
366.66098
359.34689
352.57269
351.08276
347.88459
342.70626
339.40126
338.25482
335.95276
332.56571
331.2964
330.44471
328.77958
326.40966
327.45365
326.75232
325.39164
323.47057
)
;
        refGradient     uniform 0;
        valueFraction   uniform 0.99967867;
        source          uniform 0;
        logInterval     -1;
        writePrecision  8;
        updateHeader    1;
        writeToFile     0;
        useUserTime     1;
        kappaMethod     fluidThermo;
        value           nonuniform List<scalar> 
40
(
327.44539
326.74469
325.38479
323.46462
331.28685
330.43585
328.77161
326.40275
339.3892
338.24365
335.94277
332.55717
352.5566
351.06784
347.87129
342.6951
371.72684
370.27236
366.64242
359.33132
371.72685
370.27237
366.64243
359.33133
352.5566
351.06785
347.8713
342.6951
339.38921
338.24365
335.94278
332.55718
331.28684
330.43585
328.77163
326.40277
327.44535
326.74468
325.38481
323.46467
)
;
    }
    topAir_to_leftSolid
    {
        type            compressible::turbulentTemperatureRadCoupledMixed;
        refValue        nonuniform List<scalar> 
130
(
300.00659
300.00725
300.00859
300.01067
300.01355
300.01729
300.02194
300.02747
300.03377
300.04052
300.04723
300.05313
300.05725
300.00681
300.00751
300.00896
300.01122
300.01439
300.01859
300.02392
300.03045
300.03816
300.04685
300.056
300.06463
300.07109
300.00716
300.00795
300.00957
300.01214
300.0158
300.02078
300.02733
300.0357
300.04616
300.05884
300.07351
300.08924
300.10327
300.00752
300.00838
300.01019
300.01308
300.01728
300.02313
300.03105
300.04163
300.05562
300.07389
300.09744
300.12686
300.15987
300.00774
300.00866
300.01058
300.01368
300.01824
300.02466
300.03355
300.04575
300.06252
300.08573
300.11838
300.16539
300.23196
300.00774
300.00866
300.01058
300.01368
300.01824
300.02466
300.03355
300.04575
300.06252
300.08573
300.11838
300.16539
300.23196
300.00752
300.00838
300.01019
300.01308
300.01728
300.02313
300.03105
300.04163
300.05562
300.07389
300.09744
300.12686
300.15987
300.00716
300.00795
300.00957
300.01214
300.0158
300.02078
300.02733
300.0357
300.04616
300.05884
300.07351
300.08924
300.10327
300.00681
300.00751
300.00896
300.01122
300.01439
300.01859
300.02392
300.03045
300.03816
300.04685
300.056
300.06463
300.07109
300.00659
300.00725
300.00859
300.01067
300.01355
300.01729
300.02194
300.02747
300.03377
300.04052
300.04723
300.05313
300.05725
)
;
        refGradient     uniform 0;
        valueFraction   uniform 0.99967867;
        source          uniform 0;
        logInterval     -1;
        writePrecision  8;
        updateHeader    1;
        writeToFile     0;
        useUserTime     1;
        kappaMethod     fluidThermo;
        value           nonuniform List<scalar> 
130
(
300.00659
300.00725
300.00859
300.01067
300.01354
300.01729
300.02193
300.02747
300.03376
300.04051
300.04722
300.05311
300.05725
300.0068
300.00751
300.00896
300.01122
300.01439
300.01858
300.02391
300.03044
300.03815
300.04684
300.05598
300.06461
300.07109
300.00716
300.00794
300.00957
300.01213
300.0158
300.02078
300.02732
300.03569
300.04615
300.05882
300.07349
300.08922
300.10326
300.00751
300.00838
300.01019
300.01308
300.01728
300.02312
300.03104
300.04162
300.0556
300.07387
300.09741
300.12683
300.15986
300.00774
300.00866
300.01058
300.01368
300.01823
300.02465
300.03354
300.04574
300.0625
300.08571
300.11835
300.16535
300.23193
300.00774
300.00866
300.01058
300.01368
300.01823
300.02465
300.03354
300.04574
300.0625
300.08571
300.11835
300.16535
300.23193
300.00751
300.00838
300.01019
300.01308
300.01728
300.02312
300.03104
300.04162
300.0556
300.07387
300.09741
300.12683
300.15986
300.00716
300.00794
300.00957
300.01213
300.0158
300.02078
300.02732
300.03569
300.04615
300.05882
300.07349
300.08922
300.10326
300.0068
300.00751
300.00896
300.01122
300.01439
300.01858
300.02391
300.03044
300.03815
300.04684
300.05598
300.06461
300.07109
300.00659
300.00725
300.00859
300.01067
300.01354
300.01729
300.02193
300.02747
300.03376
300.04051
300.04722
300.05311
300.05725
)
;
    }
}


// ************************************************************************* //
