/*--------------------------------*- C++ -*----------------------------------*\
| =========                 |                                                 |
| \\      /  F ield         | OpenFOAM: The Open Source CFD Toolbox           |
|  \\    /   O peration     | Version:  2412                                  |
|   \\  /    A nd           | Website:  www.openfoam.com                      |
|    \\/     M anipulation  |                                                 |
\*---------------------------------------------------------------------------*/
FoamFile
{
    version     2.0;
    format      ascii;
    arch        "LSB;label=32;scalar=64";
    class       volVectorField;
    location    "80/topAir";
    object      U;
}
// * * * * * * * * * * * * * * * * * * * * * * * * * * * * * * * * * * * * * //

dimensions      [0 1 -1 0 0 0 0];

internalField   nonuniform List<vector> 
1200
(
(0.097235987 0.00096925074 0.00080487327)
(0.096238044 0.0013034758 0.0012065861)
(0.094388868 0.0013376308 0.0013616423)
(0.091911539 0.0013061594 0.0014248987)
(0.089377786 0.0012553834 0.0014463893)
(0.086982498 0.0011863828 0.0014357664)
(0.084719531 0.0011036789 0.0014001295)
(0.082569851 0.0010118184 0.0013479688)
(0.080544037 0.00090956251 0.0012860893)
(0.078672301 0.00078659949 0.0012190683)
(0.077006522 0.0006138751 0.0011501735)
(0.075630708 0.00031874035 0.0010827129)
(0.074839735 -0.00019348719 0.001024512)
(0.074583106 -0.00032335609 0.00097949854)
(0.074503797 -0.00034292502 0.00095897272)
(0.074318244 -0.00031896645 0.00095709609)
(0.073940588 -0.00026882442 0.00096388458)
(0.073366756 -0.00020754373 0.00097140088)
(0.072606355 -0.00014738218 0.00097322224)
(0.071672632 -9.3757233e-05 0.00096397802)
(0.07058486 -4.5992222e-05 0.00093901582)
(0.069364843 2.4261828e-07 0.00089322396)
(0.068031705 5.1330897e-05 0.00081956358)
(0.066605265 0.00012335659 0.0007107841)
(0.065065357 0.00025269143 0.00055863736)
(0.063347147 0.0004951132 0.00035672418)
(0.061298668 0.00095248181 0.0001112273)
(0.058589558 0.0018459266 -0.00014294221)
(0.054501648 0.0036825652 -0.00044338096)
(0.042686696 0.0080633416 -0.00075083907)
(0.099370506 0.00098038649 0.00083069103)
(0.10013394 0.0013340413 0.0012601866)
(0.10060715 0.0014033926 0.0014433518)
(0.10061398 0.0014116492 0.0015356516)
(0.10044289 0.0013959458 0.0015851314)
(0.10024747 0.001355285 0.0016015382)
(0.10003807 0.0012924857 0.0015923527)
(0.099800335 0.001208395 0.0015658433)
(0.099537622 0.0010961622 0.0015282414)
(0.099260799 0.00093859904 0.001483305)
(0.098968818 0.00070237318 0.0014333354)
(0.098636932 0.00032612814 0.0013805544)
(0.098148744 -0.00024702952 0.0013242601)
(0.097550545 -0.00045477133 0.0012718298)
(0.097034198 -0.00052289001 0.0012240305)
(0.096621863 -0.00052921981 0.0011794388)
(0.096287299 -0.00049757899 0.001136284)
(0.096014767 -0.0004444165 0.0010934415)
(0.095795029 -0.00038243362 0.0010499198)
(0.095618277 -0.00031616769 0.001004319)
(0.095473464 -0.00024119623 0.00095442216)
(0.095348112 -0.00014394323 0.00089818433)
(0.095224586 4.0688576e-07 0.00083318185)
(0.095075307 0.00023753037 0.00075919401)
(0.09485494 0.00063019056 0.00067296728)
(0.094485828 0.0012897096 0.00057545238)
(0.093866727 0.0024080177 0.0004704054)
(0.092909741 0.0043203861 0.00036955862)
(0.091693985 0.0076385455 0.00032281729)
(0.088949092 0.013273649 0.00047735505)
(0.09937021 -0.00098290449 0.00083069894)
(0.10013252 -0.0013397153 0.0012602035)
(0.10060328 -0.0014139341 0.00144338)
(0.10060549 -0.0014302941 0.0015356895)
(0.10042609 -0.0014283482 0.0015851691)
(0.10021593 -0.0014111511 0.0016015459)
(0.099980811 -0.0013882945 0.0015922602)
(0.099698937 -0.0013718426 0.0015655084)
(0.099362308 -0.0013732963 0.0015274157)
(0.0989669 -0.0014048527 0.0014816246)
(0.098499352 -0.0014781849 0.0014301973)
(0.097935113 -0.0015935495 0.0013746167)
(0.097245147 -0.0017228069 0.0013163563)
(0.096442711 -0.0017621832 0.0012558668)
(0.095605112 -0.0017327466 0.0011945209)
(0.094796963 -0.0016722978 0.0011337755)
(0.094042195 -0.0015970807 0.001074389)
(0.093351474 -0.0015131289 0.0010164137)
(0.092735052 -0.0014237561 0.00095892783)
(0.092203463 -0.0013280882 0.00090043121)
(0.091769287 -0.0012178456 0.00083622888)
(0.091450596 -0.0010743412 0.00076265259)
(0.091274071 -0.00086841655 0.00067727379)
(0.091271579 -0.00055058853 0.00057904596)
(0.091535901 -3.6302905e-05 0.00047585729)
(0.09206319 0.00079856938 0.00037550691)
(0.092964419 0.0021317136 0.00029782818)
(0.094429225 0.0042283026 0.00027051811)
(0.096863021 0.0074488709 0.0003603117)
(0.10220457 0.011939414 0.00058482475)
(0.097235261 -0.00097019548 0.00080487797)
(0.096234873 -0.0013055722 0.0012065898)
(0.09438092 -0.0013414773 0.0013616442)
(0.091895251 -0.0013128666 0.0014248903)
(0.089347239 -0.0012669004 0.0014463447)
(0.086927696 -0.0012060924 0.0014356185)
(0.084623542 -0.0011374236 0.0013997231)
(0.082403959 -0.0010697473 0.0013469715)
(0.080259322 -0.0010096569 0.0012838144)
(0.078184398 -0.00096201725 0.001214128)
(0.076166278 -0.00093030427 0.0011400218)
(0.074185505 -0.00091429109 0.0010625432)
(0.072225263 -0.00090642805 0.00098208456)
(0.07028956 -0.00088582031 0.00089873389)
(0.068418314 -0.00084475236 0.00081358535)
(0.066662925 -0.00079319748 0.00072831173)
(0.06505295 -0.00073831732 0.00064461075)
(0.063599661 -0.00068240652 0.00056362533)
(0.062311095 -0.00062661649 0.0004828348)
(0.061199318 -0.00057044675 0.00039984044)
(0.060281855 -0.00050930427 0.00030740875)
(0.059602236 -0.00043369332 0.0001918124)
(0.0592069 -0.00033363019 4.8765772e-05)
(0.05916299 -0.00019054113 -0.00012092172)
(0.059563457 5.1987836e-05 -0.00031903205)
(0.060725025 0.00045856408 -0.0005210786)
(0.062854263 0.001108652 -0.00066336562)
(0.066279653 0.0021141407 -0.0006757994)
(0.071519414 0.0035751096 -0.00049263025)
(0.082550665 0.0056048456 -0.00026649202)
(0.098510328 0.00099302377 0.0010638431)
(0.098437684 0.0013474438 0.0016309173)
(0.097925598 0.001398469 0.0018722267)
(0.096986292 0.0013829887 0.0019876487)
(0.095968195 0.0013461356 0.0020451017)
(0.095007789 0.0012890413 0.0020578907)
(0.094103361 0.0012168009 0.0020353481)
(0.093239273 0.0011344514 0.0019888616)
(0.092421865 0.0010413822 0.0019275492)
(0.091675497 0.00092859316 0.0018575505)
(0.091043913 0.00077079873 0.0017838914)
(0.090605362 0.00050611748 0.0017122225)
(0.090588591 3.6826028e-05 0.0016538809)
(0.091050195 -0.00014750889 0.0016573469)
(0.091679467 -0.0002780083 0.0017584987)
(0.092205029 -0.00040157194 0.0019446379)
(0.09254413 -0.00052191152 0.0021868439)
(0.092693946 -0.00064440869 0.0024568267)
(0.092666118 -0.00077394035 0.0027293625)
(0.092476826 -0.00091026521 0.0029839365)
(0.092147077 -0.0010485537 0.0032042045)
(0.091697475 -0.0011793932 0.0033753443)
(0.091141452 -0.0012899047 0.0034815603)
(0.090474832 -0.001356238 0.0035056823)
(0.089664359 -0.0013407077 0.0034278319)
(0.088633369 -0.0011865536 0.0032269978)
(0.0872307 -0.00081291103 0.0028893404)
(0.085150406 -7.7334575e-05 0.0024168543)
(0.082065353 0.0014594065 0.0017674029)
(0.073345752 0.0052710447 0.00084381379)
(0.10070323 0.0010001172 0.001095821)
(0.10245037 0.0013601079 0.0016849164)
(0.10432936 0.0014292107 0.0019456338)
(0.10595696 0.0014367734 0.0020836053)
(0.10740722 0.0014212158 0.0021665189)
(0.10877983 0.0013818172 0.0022071599)
(0.11009034 0.001321687 0.0022144507)
(0.11132875 0.0012421949 0.0021989523)
(0.11249627 0.0011374825 0.0021686096)
(0.11360146 0.00099223286 0.0021277945)
(0.11464479 0.00077686717 0.002078232)
(0.11560468 0.00043789354 0.0020196244)
(0.11641911 -8.4936623e-05 0.0019466186)
(0.11710399 -0.00033510528 0.0018492104)
(0.11781365 -0.00051090227 0.0017334)
(0.11856977 -0.00067133608 0.0016067519)
(0.11935406 -0.00082745768 0.0014744036)
(0.12015638 -0.00098730686 0.00134234)
(0.12097041 -0.0011576039 0.0012134785)
(0.12178825 -0.0013384135 0.0010877325)
(0.12260201 -0.0015247677 0.0009617197)
(0.12340375 -0.0017021988 0.00082895775)
(0.12419336 -0.0018450664 0.0006820457)
(0.12497399 -0.0019125175 0.00051057238)
(0.12574952 -0.0018420927 0.0002993937)
(0.12652514 -0.0015336895 3.4275531e-05)
(0.12732635 -0.00082960983 -0.00029975081)
(0.12819714 0.00052806174 -0.00071207224)
(0.12915837 0.0030565054 -0.0011420436)
(0.13098565 0.007641603 -0.0014069209)
(0.10070294 -0.001002654 0.0010958195)
(0.10244897 -0.0013658143 0.0016849188)
(0.10432557 -0.0014397537 0.0019456417)
(0.10594872 -0.0014552816 0.0020836088)
(0.10739102 -0.001453102 0.0021664859)
(0.1087497 -0.0014362792 0.002207008)
(0.11003614 -0.0014141907 0.0022139935)
(0.11123368 -0.0013984979 0.0021978054)
(0.11233345 -0.0014000259 0.0021660426)
(0.11333088 -0.0014299133 0.0021225573)
(0.11421523 -0.001498761 0.0020684359)
(0.11496715 -0.0016080648 0.0020027615)
(0.11556654 -0.0017318182 0.001922883)
(0.11602743 -0.0017922915 0.0018241864)
(0.11641472 -0.0018082083 0.0017041546)
(0.11678304 -0.0018108941 0.0015642026)
(0.11715212 -0.0018128557 0.001406401)
(0.11753018 -0.0018185121 0.0012327517)
(0.11792475 -0.0018324599 0.0010434272)
(0.11834141 -0.001855107 0.00083547483)
(0.11879524 -0.001883172 0.00060264955)
(0.11930379 -0.001909482 0.0003363042)
(0.11989212 -0.0019123642 2.7091602e-05)
(0.1206015 -0.0018555902 -0.00033573975)
(0.12148694 -0.0016803585 -0.00075543324)
(0.12263785 -0.0012888044 -0.0012331301)
(0.12424954 -0.0005164032 -0.0017706845)
(0.12649544 0.0008717115 -0.0023494091)
(0.12984712 0.0031239184 -0.0029063767)
(0.13722324 0.0062060776 -0.0033121376)
(0.098509609 -0.00099397502 0.0010638297)
(0.098434558 -0.0013495518 0.0016308971)
(0.097917816 -0.001402319 0.0018721937)
(0.09697047 -0.0013896594 0.0019875709)
(0.095938763 -0.0013575037 0.0020448924)
(0.094955428 -0.0013083304 0.0020573439)
(0.094012453 -0.0012495259 0.0020340042)
(0.093083609 -0.0011901024 0.0019857427)
(0.092157314 -0.0011366103 0.0019206432)
(0.091227079 -0.001093767 0.0018428091)
(0.090282211 -0.0010649139 0.0017533814)
(0.089308069 -0.0010502626 0.001651338)
(0.088293766 -0.0010437904 0.0015338193)
(0.0872474 -0.0010304565 0.0013967237)
(0.086207457 -0.0010043167 0.0012367791)
(0.085221467 -0.00097385469 0.0010535152)
(0.084318129 -0.00094454782 0.0008486318)
(0.083506899 -0.00091746465 0.00062340323)
(0.082800179 -0.0008950206 0.0003773074)
(0.082210629 -0.00087738555 0.00010461048)
(0.081748454 -0.00086175708 -0.00020516223)
(0.081412042 -0.00084767066 -0.00056618595)
(0.08122683 -0.00082631553 -0.00099018145)
(0.081247822 -0.00077879916 -0.001489339)
(0.081562298 -0.00067267177 -0.0020813455)
(0.082329079 -0.00045737702 -0.0027682054)
(0.083776652 -4.8221471e-05 -0.0035139501)
(0.086473817 0.00065449191 -0.0042746833)
(0.091041499 0.0016730744 -0.0050032544)
(0.10122918 0.002969459 -0.005647473)
(0.098382781 0.00098809301 0.00041097306)
(0.098087324 0.0013366483 0.00070779232)
(0.09748584 0.0013814367 0.00088321575)
(0.096601385 0.0013612815 0.00099085297)
(0.095710026 0.0013212556 0.0010623059)
(0.094909995 0.0012618698 0.0011061956)
(0.094192215 0.001187961 0.0011263445)
(0.093538198 0.0011043491 0.0011280522)
(0.092949062 0.0010098511 0.0011169841)
(0.092445002 0.00089396794 0.0010987114)
(0.092069995 0.00072755325 0.0010807959)
(0.091903725 0.00044026874 0.0010772148)
(0.092250705 -6.9128239e-05 0.0011056301)
(0.093130568 -0.00021907213 0.0012684315)
(0.094171802 -0.00029577033 0.0016184796)
(0.095052967 -0.00036156752 0.0021297467)
(0.09568321 -0.0004284692 0.0027528239)
(0.096067077 -0.00050815154 0.003435352)
(0.096228618 -0.00061021626 0.0041297192)
(0.096197713 -0.00073695069 0.0048020579)
(0.096004746 -0.0008843842 0.0054286282)
(0.095673357 -0.0010430398 0.0059894461)
(0.095210403 -0.0011934047 0.0064651579)
(0.094597682 -0.0013069625 0.0068328131)
(0.093781002 -0.0013391822 0.0070624782)
(0.092656488 -0.0012236405 0.0071121396)
(0.091043055 -0.00086866831 0.0069161177)
(0.088630818 -0.00011644228 0.0063448173)
(0.085102522 0.0014904647 0.0051428716)
(0.075512931 0.0055116586 0.0032323504)
(0.10057288 0.00099958281 0.00042324073)
(0.10209777 0.0013597547 0.0007344927)
(0.10389048 0.0014260881 0.00092555619)
(0.10557574 0.0014302573 0.0010512189)
(0.10715422 0.0014116311 0.0011428108)
(0.10868863 0.0013693122 0.0012085099)
(0.11018807 0.0013062036 0.0012517178)
(0.11164016 0.0012234296 0.0012768826)
(0.11304085 0.001114512 0.0012880306)
(0.1143926 0.00096265051 0.0012872393)
(0.11568946 0.00073506125 0.0012735166)
(0.11690384 0.00037195322 0.0012399503)
(0.11793754 -0.0001885685 0.001174146)
(0.11883558 -0.0003987302 0.0010338437)
(0.11978401 -0.00050786985 0.0008370375)
(0.12080178 -0.00059404177 0.00060636552)
(0.1218664 -0.00067900874 0.00036067794)
(0.12296161 -0.00077962664 0.00011488681)
(0.12407148 -0.00090915999 -0.00011691062)
(0.12517913 -0.00107321 -0.00032897889)
(0.1262663 -0.0012661508 -0.00052327948)
(0.12731832 -0.001473505 -0.0007104783)
(0.12831833 -0.0016672162 -0.0009033468)
(0.12924974 -0.001799357 -0.001125777)
(0.13009938 -0.001792067 -0.0014126709)
(0.13085194 -0.00152374 -0.0018117928)
(0.13150831 -0.00081267618 -0.0023842682)
(0.13208184 0.00064949703 -0.0032116469)
(0.13260334 0.0034499874 -0.0043371158)
(0.13354627 0.0085733515 -0.0057480377)
(0.10057259 -0.001002156 0.00042322048)
(0.10209634 -0.0013655512 0.00073444494)
(0.1038866 -0.0014368128 0.00092545791)
(0.10556729 -0.0014491187 0.0010510157)
(0.10713758 -0.0014442034 0.0011423884)
(0.1086576 -0.001425108 0.0012076353)
(0.11013212 -0.0014012989 0.0012499313)
(0.11154176 -0.0013847552 0.0012733126)
(0.11287195 -0.0013867302 0.0012811191)
(0.11411164 -0.0014187664 0.001274507)
(0.11524414 -0.0014914706 0.0012520262)
(0.11624482 -0.0016048515 0.0012091555)
(0.11708598 -0.0017305505 0.0011382577)
(0.11778182 -0.0017718681 0.0010231983)
(0.11840758 -0.0017556611 0.00085658107)
(0.11902323 -0.001722387 0.00064049599)
(0.11964838 -0.001690244 0.00037742764)
(0.12028678 -0.0016704485 7.1381074e-05)
(0.12093836 -0.0016681385 -0.00027554923)
(0.12160422 -0.001686727 -0.00066551138)
(0.12227966 -0.0017240118 -0.0011002208)
(0.12296594 -0.0017687124 -0.0015859251)
(0.12367709 -0.0017990459 -0.0021384564)
(0.12444517 -0.0017724865 -0.0027842685)
(0.12532883 -0.0016181488 -0.0035540849)
(0.12642857 -0.0012160846 -0.0044924021)
(0.12794043 -0.00035910399 -0.0056532101)
(0.12997137 0.0012368648 -0.0070751153)
(0.13307865 0.0039033237 -0.0087655717)
(0.14011589 0.0076734451 -0.010587884)
(0.098382042 -0.00098905956 0.00041091406)
(0.098084106 -0.0013387917 0.00070764878)
(0.097477813 -0.0013853562 0.00088292107)
(0.096585031 -0.0013680857 0.00099026632)
(0.09567953 -0.0013328834 0.0010611418)
(0.094855555 -0.0012816711 0.0011038798)
(0.094097276 -0.0012217087 0.0011217263)
(0.093374716 -0.0011620751 0.0011188357)
(0.092669279 -0.0011093756 0.0010985997)
(0.09196668 -0.0010683063 0.0010620316)
(0.091249318 -0.001042046 0.0010074375)
(0.090496413 -0.0010303204 0.00093031847)
(0.089691488 -0.0010263599 0.00082331414)
(0.088839579 -0.0010108838 0.00067658203)
(0.087980621 -0.00097757607 0.00048234819)
(0.087164978 -0.00093747241 0.00023731013)
(0.086419925 -0.00089772529 -5.6290045e-05)
(0.085755713 -0.00086186502 -0.00039558705)
(0.085169385 -0.00082913345 -0.00077732424)
(0.084655333 -0.00079936876 -0.0012066638)
(0.084215713 -0.00077380562 -0.0016935247)
(0.083861403 -0.00074819062 -0.002250319)
(0.083617676 -0.00071230738 -0.0028983484)
(0.083530932 -0.00064540232 -0.0036635273)
(0.083696533 -0.00051283187 -0.0045907987)
(0.084298373 -0.00024965233 -0.0057459925)
(0.085588468 0.0002695475 -0.0072187088)
(0.088329197 0.0011659672 -0.0090627885)
(0.093134222 0.0025183425 -0.011237739)
(0.10429448 0.004331761 -0.013447357)
(0.098358808 0.00099046621 0.00022330441)
(0.097988712 0.00134224 0.00042092227)
(0.097300082 0.0013893732 0.00056794851)
(0.096348937 0.0013706152 0.00066873684)
(0.095413606 0.0013312953 0.00073618122)
(0.094584509 0.0012718709 0.00077902157)
(0.093849605 0.0011970558 0.0008022472)
(0.093190856 0.0011114496 0.00081014879)
(0.092610226 0.0010131471 0.00080725003)
(0.092130341 0.00088937855 0.00079873914)
(0.09180301 0.00070433349 0.00079251227)
(0.091718005 0.00037196986 0.00080403445)
(0.092303038 -0.00021620006 0.00085329977)
(0.093525001 -0.00028576237 0.0010807638)
(0.094889659 -0.00020793218 0.0015615965)
(0.095988068 -6.5829999e-05 0.0022784489)
(0.096725937 0.00011353475 0.0031658808)
(0.097125703 0.00028855362 0.0041388983)
(0.097224068 0.00044294253 0.0051340501)
(0.097067949 0.00056969421 0.0061177309)
(0.09669264 0.00066764656 0.0070714056)
(0.096117638 0.000739674 0.0079781932)
(0.095343336 0.00080088211 0.0088155265)
(0.094343618 0.00087548467 0.0095500899)
(0.093056091 0.0010025127 0.010129928)
(0.09136383 0.0012441581 0.01047061)
(0.089063038 0.0017060182 0.010428125)
(0.085793045 0.0025971609 0.0097540609)
(0.08086465 0.0043832148 0.0080863102)
(0.067606923 0.0086262166 0.0052223206)
(0.10054926 0.00099980752 0.00023028363)
(0.10199987 0.0013612915 0.00043691764)
(0.10370611 0.0014284751 0.00059411051)
(0.10532544 0.0014327519 0.00070671963)
(0.10685982 0.0014137016 0.00078770567)
(0.10836383 0.0013703583 0.00084550465)
(0.10984335 0.0013053377 0.00088463132)
(0.11128571 0.0012192322 0.00090854906)
(0.1126858 0.0011044407 0.00092011545)
(0.11404307 0.00094166146 0.00092059739)
(0.11534524 0.00069262081 0.00090755879)
(0.11655587 0.00028655961 0.00087001604)
(0.11752267 -0.00034006687 0.00078730356)
(0.11833472 -0.00045250561 0.00059364058)
(0.11923778 -0.0003749773 0.0003099941)
(0.1202506 -0.00020705021 -2.90349e-05)
(0.1213241 1.524343e-05 -0.00038459148)
(0.12242285 0.00025210998 -0.00071688319)
(0.12352759 0.00048115252 -0.0010072309)
(0.12460789 0.00069204757 -0.0012498726)
(0.12563096 0.00088581573 -0.001447049)
(0.12656644 0.001076626 -0.0016091502)
(0.12738065 0.0012902739 -0.0017554646)
(0.12802073 0.0015689034 -0.0019137303)
(0.12840693 0.0019907142 -0.0021251881)
(0.12841759 0.0026831781 -0.0024506925)
(0.12788043 0.0038628754 -0.0029784366)
(0.12658916 0.0059079741 -0.0038481841)
(0.1245381 0.0095044163 -0.0053158644)
(0.11967237 0.015776575 -0.0077106215)
(0.10054895 -0.0010024276 0.00023026298)
(0.1019984 -0.0013672025 0.00043686745)
(0.1037021 -0.001439442 0.00059400528)
(0.10531667 -0.001452111 0.00070650255)
(0.10684248 -0.0014472859 0.00078725949)
(0.10833133 -0.0014281964 0.00084459442)
(0.10978441 -0.0014045199 0.00088279817)
(0.11118148 -0.0013886549 0.0009049308)
(0.11250603 -0.0013925091 0.00091319767)
(0.11374332 -0.0014283244 0.00090810026)
(0.11487151 -0.0015065853 0.00088743549)
(0.11586012 -0.0016239501 0.00084501728)
(0.11667054 -0.001745435 0.00076961403)
(0.11732101 -0.0017376911 0.00063629293)
(0.11790995 -0.0016383451 0.00043109238)
(0.11850813 -0.0015007502 0.00015454275)
(0.11914024 -0.0013474844 -0.00018614574)
(0.11981544 -0.001188997 -0.00058888916)
(0.12053103 -0.0010364385 -0.0010546276)
(0.12128043 -0.00089382358 -0.0015832581)
(0.12206122 -0.0007549366 -0.0021785826)
(0.12286893 -0.00059783605 -0.0028475973)
(0.12369797 -0.0003874374 -0.0036049508)
(0.12456335 -5.7511606e-05 -0.00447456)
(0.12540031 0.00048945816 -0.0054929453)
(0.12622299 0.0014044715 -0.0067105852)
(0.12708494 0.0029252032 -0.0081871353)
(0.12812593 0.0054132148 -0.010003098)
(0.12979221 0.0093923453 -0.012267389)
(0.1334717 0.015244714 -0.014989528)
(0.098358043 -0.00099145161 0.00022324812)
(0.097985372 -0.0013444276 0.00042078229)
(0.097291727 -0.001393384 0.00056765615)
(0.096331845 -0.0013776042 0.00066814984)
(0.095381566 -0.001343297 0.00073501293)
(0.094526943 -0.0012924323 0.00077669757)
(0.093748421 -0.0012323586 0.00079761677)
(0.093014969 -0.0011723924 0.00080090214)
(0.092305779 -0.0011194554 0.00078872651)
(0.091602662 -0.0010785104 0.00076142407)
(0.09088304 -0.0010527051 0.00071664455)
(0.0901206 -0.0010409322 0.00064857262)
(0.089293519 -0.0010346454 0.00054722714)
(0.088406141 -0.0010056048 0.00039829207)
(0.087502927 -0.00094572664 0.00018988047)
(0.086641998 -0.00087078362 -7.7635509e-05)
(0.08585823 -0.0007862731 -0.00040085305)
(0.085156294 -0.00069591871 -0.00077389999)
(0.084528263 -0.00060224329 -0.0011956636)
(0.08396672 -0.00050669169 -0.0016780755)
(0.083471903 -0.00040884623 -0.0022438417)
(0.083055196 -0.00030493975 -0.0029210965)
(0.082749148 -0.000173664 -0.0037460264)
(0.082597834 3.4498278e-05 -0.0047674879)
(0.082833231 0.0003757092 -0.0060494418)
(0.083648367 0.00093975426 -0.0076752171)
(0.08536118 0.0018639321 -0.0097468061)
(0.088462242 0.0033481964 -0.012313954)
(0.093757942 0.0056413521 -0.015304644)
(0.10612603 0.008982442 -0.018239599)
(0.098346173 0.00099049766 6.6334167e-05)
(0.097939036 0.0013422587 0.00012462539)
(0.097202918 0.0013888017 0.00016629498)
(0.096211584 0.0013689817 0.00019175297)
(0.095248897 0.0013284084 0.00020554164)
(0.094402111 0.0012676008 0.00021156053)
(0.093655806 0.0011911853 0.0002121082)
(0.092990856 0.0011035122 0.00020878885)
(0.092409695 0.0010019595 0.00020314965)
(0.091937523 0.00087155316 0.00019707644)
(0.091633838 0.00066978141 0.00019379236)
(0.091599054 0.00029437003 0.00020023049)
(0.092405074 -0.00036838768 0.00022564346)
(0.093959341 -0.00026054336 0.0003495611)
(0.09569224 0.00012527499 0.00061784075)
(0.0971329 0.00067513785 0.001029431)
(0.098093836 0.0013582408 0.0015519294)
(0.098577348 0.0020475179 0.0021382793)
(0.098671799 0.0027143319 0.0027563773)
(0.098464163 0.0033509119 0.0033927695)
(0.098000175 0.003957066 0.0040415675)
(0.097289823 0.0045380733 0.00469593)
(0.096313173 0.0051045767 0.0053429072)
(0.095013875 0.0056736775 0.0059603535)
(0.093281904 0.0062733641 0.0065113878)
(0.090921991 0.0069521424 0.0069344617)
(0.087598648 0.0078007835 0.0071257489)
(0.082742215 0.0090026255 0.0069090124)
(0.075439025 0.010881693 0.0060041274)
(0.056338266 0.014567109 0.0042093401)
(0.10053665 0.00099981787 6.8377063e-05)
(0.10195029 0.00136175 0.00012932334)
(0.10360942 0.0014290869 0.000174002)
(0.10518929 0.0014330429 0.00020301104)
(0.1066967 0.0014133042 0.0002209204)
(0.1081827 0.0013689074 0.00023148534)
(0.10964961 0.001302296 0.00023678213)
(0.11108308 0.0012136416 0.0002380584)
(0.11247653 0.0010944047 0.00023612845)
(0.11382626 0.00092311925 0.00023103068)
(0.11511206 0.00065652564 0.00022085094)
(0.11628271 0.00021357674 0.00019888854)
(0.11711852 -0.00046654933 0.00015233855)
(0.11775446 -0.00037203246 4.1144701e-05)
(0.1184971 7.5853574e-05 -0.00012422409)
(0.119318 0.00075896126 -0.00031622254)
(0.1201748 0.0016448855 -0.00050282117)
(0.1210235 0.0026091475 -0.0006529749)
(0.12180076 0.0036185426 -0.00075509296)
(0.12245445 0.0046683928 -0.00080479568)
(0.12293695 0.0057648605 -0.00080049013)
(0.12319661 0.0069213707 -0.00074248818)
(0.12317094 0.0081587767 -0.0006385723)
(0.12277578 0.0095091864 -0.00050219443)
(0.1218887 0.011025557 -0.00035661514)
(0.12032391 0.012799379 -0.00024094856)
(0.11779542 0.014995944 -0.00022226633)
(0.11386446 0.017921997 -0.00042468594)
(0.10802511 0.022144195 -0.0011041103)
(0.093265791 0.028591351 -0.0027041756)
(0.10053634 -0.001002474 6.8368073e-05)
(0.10194878 -0.0013677475 0.00012930152)
(0.10360531 -0.0014402343 0.00017395619)
(0.10518029 -0.001452769 0.00020291681)
(0.10667885 -0.0014476293 0.00022072755)
(0.10814913 -0.0014282357 0.00023109375)
(0.10958852 -0.0014044642 0.0002359961)
(0.11097463 -0.0013890139 0.00023651154)
(0.11228895 -0.0013942318 0.00023318352)
(0.11351356 -0.0014327142 0.00022577347)
(0.11462144 -0.0015141721 0.00021271652)
(0.11557463 -0.0016303722 0.0001903061)
(0.11631865 -0.0017354862 0.00015168922)
(0.11687351 -0.0016418049 8.1640352e-05)
(0.11737008 -0.0013907382 -2.9752656e-05)
(0.11791536 -0.0010301117 -0.000183087)
(0.11854855 -0.00057107998 -0.00037176413)
(0.11928205 -1.8796397e-05 -0.0005974196)
(0.12006557 0.00063611607 -0.00086232141)
(0.12084817 0.0014019416 -0.0011640905)
(0.12161345 0.002288338 -0.001500004)
(0.12233455 0.0033139015 -0.0018710902)
(0.12297451 0.0045096234 -0.0022781708)
(0.12348393 0.0059243184 -0.0027232805)
(0.12379564 0.0076345221 -0.0032186127)
(0.1238209 0.0097660353 -0.0037846844)
(0.12344858 0.012532974 -0.0044581883)
(0.12254915 0.016305884 -0.0053047951)
(0.12115721 0.021731434 -0.0064553098)
(0.11648264 0.029654331 -0.0080911378)
(0.09834539 -0.00099149725 6.6310254e-05)
(0.09793561 -0.0013444793 0.000124566)
(0.097194333 -0.0013928799 0.00016617064)
(0.096193971 -0.001376106 0.00019150263)
(0.095215758 -0.0013406826 0.00020504246)
(0.094342295 -0.0012887162 0.00021056561)
(0.093550061 -0.0012276289 0.00021012042)
(0.092805718 -0.00116685 0.00020479944)
(0.092086325 -0.0011134535 0.00019509381)
(0.091370526 -0.0010724748 0.00018065126)
(0.09063106 -0.0010467656 0.00015982718)
(0.08983513 -0.0010339527 0.00012912546)
(0.088952804 -0.0010224278 8.2557568e-05)
(0.08798548 -0.0009710251 1.1220233e-05)
(0.086994898 -0.00086557595 -9.2740677e-05)
(0.086053488 -0.00071634793 -0.00022642841)
(0.085195814 -0.00053583427 -0.00038972931)
(0.084432053 -0.00031577722 -0.00058081981)
(0.083833404 -3.9718632e-05 -0.00079826723)
(0.083456403 0.00029619783 -0.0010522411)
(0.083302964 0.00069174958 -0.001360838)
(0.083386796 0.0011568347 -0.0017449978)
(0.083723972 0.0017158228 -0.0022299663)
(0.08433341 0.002410617 -0.0028525599)
(0.085249046 0.003305132 -0.0036504633)
(0.086544161 0.004500552 -0.0046648202)
(0.08837592 0.0061627035 -0.0059386259)
(0.091080616 0.0085693707 -0.0075020135)
(0.095576491 0.012188058 -0.0093409415)
(0.10596164 0.017741768 -0.011193508)
(0.098346173 0.00099049768 -6.6333306e-05)
(0.097939036 0.0013422588 -0.00012462485)
(0.097202918 0.0013888017 -0.00016629451)
(0.096211584 0.0013689817 -0.00019175256)
(0.095248897 0.0013284084 -0.00020554127)
(0.094402111 0.0012676008 -0.00021156008)
(0.093655806 0.0011911853 -0.00021210769)
(0.092990856 0.0011035121 -0.00020878822)
(0.092409695 0.0010019596 -0.00020314927)
(0.091937523 0.00087155319 -0.0001970761)
(0.091633838 0.0006697816 -0.00019379232)
(0.091599055 0.00029437008 -0.00020023042)
(0.092405074 -0.00036838785 -0.00022564317)
(0.093959341 -0.00026054317 -0.00034956091)
(0.09569224 0.00012527479 -0.00061784037)
(0.0971329 0.00067513834 -0.0010294309)
(0.098093836 0.0013582411 -0.001551929)
(0.098577348 0.0020475184 -0.0021382792)
(0.098671798 0.0027143326 -0.0027563769)
(0.098464162 0.0033509137 -0.0033927702)
(0.098000171 0.0039570678 -0.0040415677)
(0.097289819 0.0045380691 -0.0046959344)
(0.096313172 0.005104575 -0.0053429118)
(0.095013875 0.0056736773 -0.0059603603)
(0.093281907 0.006273361 -0.0065113924)
(0.090921993 0.0069521382 -0.0069344658)
(0.087598653 0.0078007782 -0.0071257509)
(0.082742224 0.0090026188 -0.0069090099)
(0.075439038 0.010881685 -0.0060041171)
(0.056338294 0.0145671 -0.0042093184)
(0.10053665 0.0009998179 -6.8376225e-05)
(0.10195029 0.00136175 -0.00012932286)
(0.10360942 0.0014290869 -0.00017400161)
(0.10518929 0.0014330429 -0.00020301069)
(0.1066967 0.0014133043 -0.00022092019)
(0.1081827 0.0013689075 -0.00023148515)
(0.10964961 0.0013022961 -0.00023678194)
(0.11108308 0.0012136416 -0.00023805815)
(0.11247653 0.0010944048 -0.00023612824)
(0.11382626 0.00092311935 -0.00023103043)
(0.11511206 0.00065652578 -0.0002208506)
(0.11628271 0.0002135768 -0.00019888783)
(0.11711852 -0.00046654956 -0.00015233739)
(0.11775446 -0.00037203265 -4.1142897e-05)
(0.1184971 7.5853246e-05 0.00012422558)
(0.119318 0.00075896131 0.00031622423)
(0.1201748 0.0016448855 0.00050282299)
(0.1210235 0.0026091477 0.00065297715)
(0.12180076 0.003618543 0.00075509545)
(0.12245445 0.0046683941 0.00080479893)
(0.12293695 0.0057648625 0.00080049441)
(0.12319661 0.006921365 0.00074249678)
(0.12317095 0.008158774 0.00063858217)
(0.12277578 0.0095091848 0.00050220727)
(0.12188871 0.011025553 0.0003566309)
(0.12032392 0.012799374 0.0002409679)
(0.11779543 0.014995938 0.00022229054)
(0.11386448 0.017921989 0.00042471611)
(0.10802512 0.022144184 0.0011041483)
(0.093265821 0.028591338 0.0027042209)
(0.10053634 -0.001002474 -6.8367204e-05)
(0.10194878 -0.0013677475 -0.00012930105)
(0.10360531 -0.0014402343 -0.00017395582)
(0.10518029 -0.001452769 -0.00020291655)
(0.10667885 -0.0014476293 -0.00022072739)
(0.10814913 -0.0014282357 -0.00023109343)
(0.10958852 -0.0014044641 -0.0002359959)
(0.11097463 -0.001389014 -0.00023651124)
(0.11228895 -0.0013942316 -0.00023318339)
(0.11351356 -0.0014327143 -0.0002257732)
(0.11462144 -0.001514172 -0.00021271617)
(0.11557463 -0.0016303723 -0.00019030533)
(0.11631865 -0.0017354862 -0.000151688)
(0.11687351 -0.0016418053 -8.1638968e-05)
(0.11737008 -0.0013907382 2.9753988e-05)
(0.11791536 -0.001030112 0.00018308834)
(0.11854855 -0.00057108004 0.00037176564)
(0.11928205 -1.8796479e-05 0.00059742172)
(0.12006557 0.00063611604 0.00086232403)
(0.12084818 0.0014019417 0.0011640935)
(0.12161345 0.0022883384 0.0015000094)
(0.12233455 0.0033138981 0.0018710987)
(0.12297451 0.0045096208 0.0022781825)
(0.12348393 0.005924316 0.0027232954)
(0.12379564 0.0076345185 0.0032186286)
(0.1238209 0.0097660307 0.003784705)
(0.12344858 0.012532969 0.004458214)
(0.12254916 0.016305876 0.0053048288)
(0.12115722 0.021731424 0.0064553508)
(0.11648266 0.029654317 0.0080911857)
(0.09834539 -0.0009914973 -6.6309484e-05)
(0.09793561 -0.0013444794 -0.00012456552)
(0.097194333 -0.0013928799 -0.00016617022)
(0.096193971 -0.001376106 -0.00019150224)
(0.095215758 -0.0013406826 -0.0002050421)
(0.094342295 -0.0012887162 -0.00021056527)
(0.093550061 -0.0012276288 -0.00021011989)
(0.092805718 -0.00116685 -0.00020479907)
(0.092086325 -0.0011134535 -0.00019509327)
(0.091370526 -0.0010724749 -0.00018065095)
(0.09063106 -0.0010467657 -0.0001598267)
(0.08983513 -0.0010339528 -0.00012912496)
(0.088952805 -0.0010224278 -8.2556915e-05)
(0.08798548 -0.00097102505 -1.121959e-05)
(0.086994898 -0.00086557601 9.2741258e-05)
(0.086053488 -0.00071634783 0.00022642891)
(0.085195814 -0.00053583437 0.00038972977)
(0.084432053 -0.00031577732 0.00058082045)
(0.083833404 -3.9718886e-05 0.00079826767)
(0.083456404 0.00029619776 0.0010522416)
(0.083302965 0.00069174918 0.001360839)
(0.083386797 0.0011568333 0.0017449999)
(0.083723973 0.0017158217 0.0022299699)