/*--------------------------------*- C++ -*----------------------------------*\
| =========                 |                                                 |
| \\      /  F ield         | OpenFOAM: The Open Source CFD Toolbox           |
|  \\    /   O peration     | Version:  2412                                  |
|   \\  /    A nd           | Website:  www.openfoam.com                      |
|    \\/     M anipulation  |                                                 |
\*---------------------------------------------------------------------------*/
FoamFile
{
    version     2.0;
    format      ascii;
    arch        "LSB;label=32;scalar=64";
    class       volScalarField;
    location    "0/chip";
    object      aspectRatio;
}
// * * * * * * * * * * * * * * * * * * * * * * * * * * * * * * * * * * * * * //

dimensions      [0 0 0 0 0 0 0];

internalField   nonuniform List<scalar> 
7068
(
10
10
10
10
9.99026
9.99176
9.99176
9.99211
10
9.99231
10
10
9.99181
9.99191
10
9.99221
10
10
9.99191
9.99191
10
10
10
9.98956
9.98956
9.98956
9.98956
10
9.99191
9.99191
10
9.99231
10
9.99192
9.99181
9.99231
9.99211
9.99177
9.99177
9.99211
9.99176
9.99177
9.99026
9.99026
9.99026
9.99176
9.99211
9.99177
10.0148
10
10.5591
10.0012
10.0012
10.551
10.2776
10.0012
10.0012
10.5472
10.5594
10.0012
10.0012
10.5572
9.99662
10
10
9.99814
10
9.99748
9.99748
10.024
10.0008
10
9.99842
10.0008
10.0234
9.9982
10.3087
10.0012
10.0012
10.5543
10.024
10
10.0008
9.99842
10.0008
9.9982
10.0234
10.0168
10.0008
10.0008
9.9986
10.0016
10.0226
10.0224
10.3414
10.004
10.53
10.4241
10.4306
10.5298
10.5094
10.4226
10.2265
10.5297
10.53
10.4312
10.4311
10.5298
10.5307
9.99
9.98999
10.5299
9.98976
10.5307
10.5307
10.6494
9.99757
9.99165
10.5303
9.9979
10.649
10.5312
10.5088
10.4272
10.246
10.5297
10.6494
9.99165
9.99757
10.5303
9.99791
10.5312
10.649
10.6552
9.99726
9.99741
10.5305
9.99855
10.6485
10.6485
10.2678
10.0012
10.0012
10.5435
10.3247
10.0012
10.0008
10.5592
10.0168
10.0008
10.0008
9.9986
10.0016
10.0224
10.0226
10.012
10.0044
10.2873
10.5758
10.6613
10.2825
10.3892
10.6056
10.692
10.3815
10.011
9.99765
10.0476
10.0527
10.0138
10.0138
10.069
10.5592
10.0012
10.0012
10.5525
10.024
10.0008
10
9.99842
10.0008
10.0232
9.9982
10.024
10.0008
10
9.99842
10.0008
10.0234
9.9982
10.6971
10.5876
10.6795
10.5988
10.6972
10.5912
10.6827
10.5989
10.0147
9.99567
10.0511
9.99191
10.0144
9.99517
10.0521
10.0147
9.99577
10.0517
9.99191
10.0145
9.99517
10.0522
10.015
10
10.0166
10.0008
10.0008
9.9986
10.0016
10.0226
10.0226
10.3151
10.0012
10.0008
10.556
10.311
10.584
10.6685
10.3108
10.012
10.0046
10.0109
9.99755
10.0494
10.051
10.0138
10.0139
10.0683
10.3657
10.5976
10.6844
10.3528
10.024
10.0008
10
9.99842
10.0008
10.0234
9.9982
10.5594
10.0012
10.0012
10.555
10.024
10
10.0008
9.99842
10.0008
9.9982
10.0234
10.6979
10.6001
10.6923
10.5996
10.0147
9.99576
10.0523
9.99191
10.0145
9.99516
10.0523
10.6976
10.5934
10.6867
10.5994
10.0147
9.99577
9.99191
10.0518
9.99517
10.0145
10.0522
9.99662
10
10
9.99814
10
9.99748
9.99748
9.99662
10
10
9.99814
10
9.99748
9.99748
9.99662
10
10
9.99814
10
9.99748
9.99748
10.5594
10.0012
10.0012
10.5558
10.024
10
10.0008
9.99842
10.0008
9.9982
10.0234
10.5595
10.0012
10.0012
10.5572
10.0147
9.99576
10.052
9.99191
10.0146
9.99516
10.0522
10.6974
10.5967
10.6889
10.5995
10.0147
9.99576
9.99191
10.0523
9.99516
10.0145
10.0523
10.6975
10.5999
10.6923
10.5996
10.0168
10.0008
10.0008
9.9986
10.0016
10.0228
10.0226
10.0146
10.0004
10.284
10.0012
10.0012
10.5494
10.3508
10.5902
10.6797
10.3277
10.011
9.99765
10.0499
10.0507
10.0136
10.0138
10.0682
10.012
10.0044
10.3255
10.5915
10.6734
10.3361
10.024
10
10.0008
9.99842
10.0008
9.9982
10.0232
10.5594
10.0012
10.0012
10.5536
10.5593
10.0012
10.0012
10.5508
10.0147
9.99577
9.99192
10.052
9.99517
10.0146
10.0522
10.0147
9.99567
9.99191
10.0511
9.99517
10.0144
10.0521
10.6972
10.594
10.6849
10.5991
10.6968
10.5878
10.6795
10.5989
10.3245
10.0012
10.0008
10.559
10.268
10.0012
10.0012
10.5433
10.015
10
10.0109
9.99765
10.0528
10.0475
10.0138
10.0138
10.0691
10.3892
10.6054
10.692
10.3813
10.2871
10.5762
10.6613
10.2825
10.0118
10.0042
10.5091
10.4183
10.2125
10.5297
10.5091
10.4354
10.2743
10.5297
10.6554
9.99741
9.99726
10.5305
9.99845
10.6485
10.6485
10.53
10.4263
10.4307
10.5298
10.6494
9.99767
9.99166
10.5303
9.99791
10.649
10.5312
10.6494
9.99757
9.99166
10.5303
9.99791
10.649
10.5312
10.3414
10.0038
10.6552
9.99741
9.99731
10.5305
9.9984
10.6485
10.6485
10.5085
10.4312
10.2603
10.5297
10.6494
9.99756
9.99165
10.5303
9.99791
10.649
10.5312
10.53
10.4279
10.431
10.5298
10.6494
9.99166
9.99757
10.5303
9.99792
10.5312
10.649
10.5307
9.99
9.98999
10.5299
9.98976
10.5307
10.5307
10.5307
9.99
9.98999
10.5299
9.98976
10.5307
10.5307
10.5307
9.98999
9.99
10.5299
9.98976
10.5307
10.5307
10.53
10.4296
10.4311
10.5298
10.6494
9.99165
9.99756
10.5303
9.9979
10.5312
10.649
10.53
10.4312
10.4311
10.5298
10.655
9.99736
9.99736
10.5305
9.9984
10.6485
10.6485
10.3412
10.004
10.5091
10.4268
10.2409
10.5297
10.6494
9.99166
9.99767
10.5303
9.99792
10.5312
10.649
10.53
10.4279
10.4309
10.5298
10.53
10.4241
10.4306
10.5298
10.5085
10.4354
10.2743
10.5297
10.5094
10.4183
10.2123
10.5297
10.3413
10.0038
9.99966
10
10
9.99962
10
9.99966
9.99966
10.001
10
10
10
10
10.0008
10
10.001
10
10
10
10
10
10.0008
10.0014
10
10
10.0002
10
10.001
10.001
10.0014
10
10
10.0002
10
10.001
10.001
10.001
10
10
10
10
10
10.0008
10.001
10
10
10
10
10.0008
10
10.0014
10
10
10.0002
10.001
10
10.001
10.001
10
10
10
10
10
10.0008
10.001
10
10
10
10
10
10.0008
9.99966
10
10
9.99962
9.99966
10
9.99966
9.99966
10
10
9.99962
9.99966
10
9.99966
9.99966
10
10
9.99962
10
9.99966
9.99966
10.001
10
10
10
10.0008
10
10
10.0014
10
10
10.0002
10.001
10
10.001
10.001
10
10
10
10.0008
10
10
7.26867
10.0154
9.86554
9.85697
9.8881
9.87988
7.26687
7.27373
10.0166
10.8059
10.8043
11.1425
9.99675
9.99002
10.941
10.4323
10.0472
10.5579
10.9397
10.4324
10.0474
10.1267
10.7989
10.0012
10.021
10.7989
10.1262
10.0212
10.1265
10.0214
10.7989
10.0012
10.7989
10.1267
10.0212
10.9438
10.5555
10.4325
10.0539
10.9495
10.4326
10.0481
10.8529
10.2138
9.2667
10.5325
9.98462
10.4188
10.1073
10.1265
10.7989
10.0012
10.0206
10.7998
10.1263
10.0199
10.1272
10.019
10.8037
10.0012
10.7993
10.1116
10.0195
10.9739
10.5421
10.4328
10.0655
10.9598
10.4331
10.1022
10.9406
10.4325
10.559
10.0472
10.4327
10.9398
10.0472
10.1265
10.7989
10.0012
10.021
10.7989
10.126
10.0212
10.1265
10.0214
10.0012
10.7989
10.7989
10.0212
10.1265
10.9421
10.5581
10.4337
10.0471
10.9458
10.4332
10.0462
9.99964
10
10
9.99962
10
9.99962
9.99964
9.99964
10
10
9.99962
10
9.99962
9.99964
9.9996
9.9996
10
10
10
9.9996
9.9996
10.0032
10
10.0008
10.0092
10
10.0032
10.0094
10.0012
10
10
10
10
10
10.0012
10.0032
10.0096
10.0008
10
10
10.0096
10.0032
10.8227
10.2252
10.5772
9.23842
10.4349
9.98607
10.0524
10.126
10.7989
10.0012
10.0204
10.7998
10.126
10.0199
10.1259
10.019
10.0012
10.802
10.7993
10.0194
10.1098
10.958
10.5604
10.4349
10.0564
10.9548
10.4392
10.0727
10.0012
10
10
10
10
10
10.0012
10.0032
10
10.0008
10.0092
10
10.0032
10.0094
10.0032
10.0096
10
10.0008
10
10.0032
10.0096
10.0033
10
10.0008
10.0092
10
10.0034
10.009
10.0033
10
10.0008
10.0092
10
10.0032
10.009
10.0042
10.0095
10.0008
10.0008
10
10.009
10.0091
7.26823
9.9999
13.7148
13.7138
9.97429
9.97157
10.0377
7.26439
10.0032
9.86345
9.85544
7.2674
9.88131
9.87545
10.1093
9.9996
13.7815
10.53
10.1093
9.9996
13.7815
10.9538
10.0734
10.4278
10.4668
10.0713
10.9589
10.4669
10.9502
10.4672
10.0679
10.4298
10.0669
10.9501
10.4671
10.1092
10.53
9.9986
13.7816
10.1085
9.99964
13.7815
10.1098
9.9996
13.7735
10.5301
10.0933
9.9988
13.7803
10.9829
10.0875
10.4206
10.4677
10.1194
10.9697
10.4669
10.8627
10.2201
9.28779
10.4226
10.1167
9.9748
10.4479
10.1084
10.5292
9.9984
13.7822
10.1086
9.998
13.7809
10.1093
9.9996
10.53
13.7815
9.9996
10.1093
13.7815
10.9519
10.0676
10.4309
10.4682
10.0687
10.9549
10.4675
10.9498
10.4672
10.4311
10.0676
10.0668
10.4672
10.9497
10.1092
10.53
9.9988
13.7816
10.1088
9.99962
13.7815
9.99588
9.9958
10.5307
10.5307
9.99582
9.99582
10.5303
9.99608
9.99498
10.5305
10.5305
9.99586
9.99586
10.5303
9.99628
10.5307
9.9956
10.5305
9.99546
9.99606
10.5303
9.99628
10.5307
9.9956
10.5305
9.99546
9.99606
10.5303
9.99582
9.998
10.6492
10.5514
9.998
9.9958
10.5512
9.99566
9.9962
10.533
10.5312
9.995
9.99642
10.5339
9.99626
10.6492
9.9974
10.5507
9.99622
9.99824
10.5512
9.99544
10.5338
9.9964
10.5312
9.99642
9.9954
10.5338
10.109
9.99961
10.5297
13.7716
9.9986
10.0909
13.7803
10.9699
10.0847
10.4325
10.4687
10.112
10.9663
10.4712
10.8365
10.2278
10.4503
9.26336
10.093
10.4594
9.97454
10.1083
10.5294
9.9986
13.7822
10.1081
9.9982
13.7809
9.99582
9.998
10.5514
10.6492
9.9958
9.998
10.5512
9.99566
9.9962
10.5312
10.533
9.99642
9.995
10.5339
9.99544
10.5338
9.9964
10.5312
9.99642
9.9954
10.5338
9.99626
10.6492
9.9974
10.5507
9.99622
9.99824
10.5512
9.9966
9.9972
10.6507
10.6505
9.997
9.9972
10.5549
9.9946
9.9962
10.533
10.533
9.996
9.9962
10.5329
9.9964
10.6487
9.9978
10.5507
9.9964
9.9968
10.5509
9.9966
10.6485
9.9976
10.5507
9.9964
9.997
10.5509
10.8534
10.2114
9.27703
10.5175
9.98402
10.4154
10.1189
10.1265
10.7989
10.0012
10.0207
10.1263
10.7998
10.0198
10.1276
10.0192
10.8037
10.0012
10.1114
10.7993
10.0195
10.9745
10.5344
10.432
10.0707
10.9615
10.4312
10.1131
10.8194
10.2285
9.22897
10.6021
9.98687
10.4402
10.0292
10.1256
10.7989
10.0012
10.0204
10.126
10.7998
10.0197
10.1256
10.0192
10.8003
10.0012
10.1092
10.7998
10.0194
10.9548
10.572
10.4357
10.0473
10.9514
10.4415
10.0541
10.0033
10
10.0008
10.0092
10
10.009
10.0032
10.0033
10
10.0008
10.0092
10
10.009
10.0034
10.0042
10.0095
10.0008
10.0008
10
10.0091
10.009
7.27016
9.85554
9.84627
10.0064
7.2694
9.84742
9.83814
7.27016
9.99201
9.85359
9.84471
7.27013
9.84688
9.83741
10.025
9.10832
10.5754
10.3073
10.0252
9.01242
10.6325
9.97325
9.97122
10.677
10.5567
10.6449
9.94187
10.0052
9.9899
10.6299
9.9483
10.7548
9.98535
10.7129
9.95626
9.99862
10.2881
9.03899
10.528
8.95742
10.5863
10.0337
9.9301
9.0749
10.7312
10.4341
9.93475
9.05678
10.8288
9.91496
9.94561
10.7169
10.6271
10.7383
9.91641
9.94862
9.93164
10.7032
9.92534
10.7959
9.92775
10.8085
9.93215
9.91098
10.4146
9.04294
10.6787
9.02957
10.7804
9.94872
10.9407
10.4323
10.0474
10.5582
10.9397
10.4324
10.0476
10.1267
10.7989
10.0012
10.021
10.126
10.7989
10.0212
10.1265
10.0214
10.7989
10.0012
10.1267
10.7989
10.0212
10.9433
10.5562
10.4327
10.0526
10.9485
10.4326
10.0479
10.0032
10
10.0008
10.0092
10.0094
10
10.0032
10.0012
10
10
10
10
10
10.0012
10.0032
10.0096
10.0008
10
10.0096
10
10.0032
10.0032
10
10.0008
10.0092
10
10.0094
10.0032
10.0012
10
10
10
10
10.0012
10
10.0032
10.0096
10.0008
10
10
10.0096
10.0032
9.94701
9.9331
10.6948
10.7955
9.93377
9.94639
10.7931
9.93052
9.95256
10.6942
10.5941
9.95341
9.93211
10.7026
9.94616
10.6895
9.93734
10.7773
9.933
9.95075
10.7881
9.92911
10.7083
9.94905
10.5974
9.94843
9.9295
10.7065
9.94683
9.93303
10.6951
10.796
9.93365
9.94651
10.7941
9.92916
9.94997
10.6996
10.5955
10.7047
9.92966
9.95165
9.94472
10.6909
9.9349
10.7825
9.93195
10.7899
9.94767
9.92897
10.7087
9.94895
10.5977
9.92943
10.7074
9.94846
7.26835
10.0156
9.86553
9.85731
9.88828
9.87979
7.26965
7.27373
10.0164
10.8059
10.8043
9.99714
11.1425
9.98963
10.0033
10
10.0008
10.0092
10.009
10
10.0032
10.0033
10
10.0008
10.0092
10.0034
10
10.009
10.0042
10.0095
10.0008
10.0008
10.0093
10
10.0092
10.8206
10.2263
9.23156
10.5869
9.98627
10.4367
10.0423
10.1256
10.7989
10.0012
10.0204
10.7998
10.0197
10.126
10.1256
10.0192
10.7999
10.0012
10.7998
10.109
10.0196
10.9566
10.5649
10.4353
10.0527
10.44
10.0647
10.9538
9.99668
9.08447
10.6122
10.349
9.9983
8.98781
10.6963
9.94316
9.95961
10.6907
10.576
9.97836
9.93034
10.6779
9.95888
10.6474
9.9386
10.7678
9.95954
9.94512
10.743
9.96911
10.3376
9.00956
10.5705
9.99891
8.95463
10.6594
7.27326
9.85357
9.84889
10.0066
7.27422
9.84377
9.84537
7.26976
9.99201
9.85004
9.84906
9.8403
9.84421
7.27559
9.99553
9.09097
10.6942
10.3917
9.98113
9.02092
10.7635
9.94442
9.95767
10.7031
10.6079
10.7044
9.92806
9.97912
9.96323
10.6863
9.93484
10.7835
9.95233
10.7789
9.94384
9.97226
10.3645
9.02148
10.6349
8.98044
10.705
10.0021
10.0032
10
10.0008
10.0092
10.0094
10
10.0032
10.0012
10
10
10
10
10
10.0012
10.0032
10.0096
10.0008
10
10.0096
10
10.0032
10.9405
10.4323
10.0475
10.5584
10.9396
10.4323
10.0474
10.1267
10.7989
10.0012
10.021
10.126
10.7989
10.0212
10.1265
10.0214
10.7989
10.0012
10.1267
10.7989
10.0212
10.9427
10.5569
10.4333
10.0499
10.9474
10.4328
10.047
10.0012
10
10
10
10
10.0012
10
10.0032
10
10.0008
10.0092
10
10.0094
10.0032
10.0032
10.0096
10
10.0008
10
10.0032
10.0096
9.94665
10.6967
9.93337
10.7969
9.93358
10.7962
9.94623
9.92696
9.9476
10.7104
10.5989
9.94926
9.92719
10.7091
9.94266
10.6946
9.93033
10.7939
9.93015
9.94495
10.7948
9.92879
10.7095
10.599
9.94889
9.94817
10.7092
9.92915
9.94677
9.93331
10.6955
10.7962
9.9337
9.94598
10.7947
9.92856
9.95114
10.7017
10.5962
10.7056
9.93042
9.95141
9.94438
10.6921
9.93514
10.7858
9.93158
10.7917
9.94886
9.92846
10.709
9.94905
10.5981
9.92908
10.7077
9.94816
9.99964
10
10
9.99962
9.99964
10
9.99962
9.99964
10
10
9.99962
9.99962
10
9.99964
9.9996
9.9996
10
10
9.9996
10
9.9996
9.99964
10
10
9.99962
9.99964
10
9.99962
9.99964
10
10
9.99962
9.99962
10
9.99964
9.9996
9.9996
10
10
9.9996
10
9.9996
9.99964
10
10
9.99962
10
9.99964
9.99962
9.99964
10
10
9.99962
10
9.99964
9.99962
9.9996
9.9996
10
10
10
9.9996
9.9996
10.9407
10.4325
10.5587
10.0473
10.4325
10.9398
10.0472
10.1265
10.7989
10.0012
10.021
10.0212
10.7989
10.1262
10.1265
10.0214
10.0012
10.7989
10.0212
10.7989
10.1265
10.9425
10.5574
10.4335
10.0484
10.4328
10.9466
10.047
10.0012
10
10
10
10.0012
10
10
10.0032
10
10.0008
10.0092
10.0032
10
10.0094
10.0032
10.0096
10
10.0008
10.0032
10
10.0096
10.9406
10.4325
10.0474
10.559
10.9398
10.4327
10.0474
10.1265
10.7989
10.0012
10.021
10.7989
10.0212
10.126
10.1265
10.0214
10.7989
10.0012
10.7989
10.1267
10.0212
10.942
10.5581
10.4337
10.0471
10.4332
10.0459
10.946
9.94697
10.6959
9.93323
10.7963
9.93391
10.7952
9.94589
9.92809
9.94998
10.705
10.5976
9.92967
10.707
9.95064
9.94386
10.6932
9.93375
10.7887
9.94769
9.93118
10.7928
9.92867
10.7091
10.5985
9.94896
10.7082
9.9292
9.94831
9.94665
9.93314
10.6965
10.7967
9.93377
9.94601
10.796
9.92676
9.94741
10.7102
10.5989
10.7091
9.92701
9.94926
9.94266
10.6946
9.93033
10.7941
9.93015
10.7948
9.94516
9.92857
10.7097
9.94867
10.599
9.92913
10.7094
9.94795
10.0035
10
10.0008
10.0092
10.0088
10
10.0034
10.0033
10
10.0008
10.0092
10.0032
10
10.0088
10.0044
10.0094
10.0008
10.0008
10.0088
10
10.0089
7.26867
10.0156
9.85794
9.86481
9.88035
9.88763
7.27178
7.27373
10.0163
10.8056
10.8051
9.99162
11.1429
9.99477
10.8508
10.2152
10.5423
9.25941
10.4211
9.98481
10.0971
10.1264
10.7989
10.0012
10.0206
10.7998
10.0197
10.1263
10.1273
10.0192
10.0012
10.8024
10.7989
10.0195
10.111
10.9732
10.5466
10.4332
10.0624
10.4341
10.0945
10.959
10.0252
10.6714
9.10209
10.367
9.9988
10.7252
9.01534
9.95719
9.96478
10.6948
10.5905
9.99675
9.93423
10.6838
9.9781
10.6755
9.94019
10.7753
9.96559
9.95065
10.7602
9.99535
10.3363
10.5966
9.02488
10.0234
10.6615
8.95129
7.27518
9.85135
9.85215
10.007
7.27689
9.84785
9.84259
7.27056
9.99201
9.85246
9.84694
9.84659
9.83791
7.27751
9.98339
10.6342
9.07563
10.3772
9.98537
10.7383
9.01197
9.92956
9.95291
10.6992
10.5939
10.6992
9.92488
9.96165
9.95038
10.658
9.93322
10.7755
9.94629
10.7618
9.9409
9.93673
10.3665
10.6089
8.99116
10.704
8.98618
9.97717
10.0012
10
10
10
10.0012
10
10
10.0032
10
10.0008
10.0092
10.0032
10
10.0094
10.0032
10.0096
10
10.0008
10.0032
10
10.0096
10.9406
10.4323
10.5585
10.0478
10.4323
10.9397
10.0477
10.1267
10.7989
10.0012
10.021
10.0212
10.7989
10.126
10.1267
10.0214
10.0012
10.7989
10.0212
10.7989
10.1265
10.9429
10.5568
10.4329
10.0515
10.4325
10.948
10.0476
10.941
10.4323
10.5579
10.0477
10.4324
10.9397
10.0474
10.1267
10.7989
10.0012
10.021
10.7989
10.0212
10.126
10.1267
10.0214
10.0012
10.7989
10.7989
10.0212
10.1265
10.9438
10.5555
10.4325
10.0538
10.4326
10.0481
10.9495
9.94702
10.6959
9.93295
10.7961
9.93384
10.7949
9.94621
9.92892
9.94847
10.703
10.5965
9.92886
10.7061
9.95101
9.9444
10.6922
9.93374
10.7856
9.94681
9.93135
10.7916
9.92899
10.7087
10.5981
9.94885
10.7079
9.92935
9.94817
9.94699
10.6948
9.93311
10.7954
9.93375
10.7931
9.94638
9.93052
9.95275
10.6945
10.5939
10.7026
9.93251
9.95321
9.94616
10.6895
9.93734
10.7771
9.933
10.7881
9.95055
9.92909
10.7083
10.5971
9.94923
10.7064
9.92947
9.94841
10.8194
10.2285
10.6019
9.22897
10.4402
9.98687
10.029
10.1256
10.7989
10.0012
10.0204
10.0197
10.7998
10.1262
10.1255
10.0192
10.0012
10.8003
10.0194
10.7998
10.1092
10.9548
10.5718
10.4357
10.0471
10.4415
10.9514
10.0537
10.8534
10.2114
10.5175
9.27685
10.4154
9.98402
10.1189
10.1265
10.7989
10.0012
10.0207
10.0198
10.7998
10.1263
10.1277
10.0192
10.0012
10.8037
10.0195
10.7993
10.1114
10.9745
10.5344
10.432
10.0707
10.4312
10.9617
10.1131
7.26867
10.0154
9.85697
9.86535
9.87988
9.8881
7.26687
7.27373
10.0166
10.8043
10.8059
11.1425
9.99002
9.99675
9.9303
10.7314
9.07508
10.4339
9.93477
10.8288
9.05662
9.91477
9.94561
10.7167
10.6271
9.91661
10.7381
9.94861
9.93164
10.7034
9.92514
10.7959
9.93215
9.92774
10.8085
9.91117
10.4142
10.6785
9.04297
10.7802
9.0289
9.94913
10.0255
10.5754
9.1085
10.3075
10.0256
10.6329
9.01262
9.97284
9.97102
10.6774
10.5573
9.94164
10.6455
10.0054
9.9899
10.6299
9.94869
10.7548
9.95646
9.98535
10.7133
9.99862
10.2885
10.5284
9.03844
10.5871
8.95743
10.0337
7.26976
9.84627
9.85554
10.0064
7.2694
9.83814
9.84743
7.26976
9.99181
9.84473
9.85361
9.83721
9.8467
7.26911
10.1097
9.9994
13.7712
10.5301
10.0927
9.999
13.7797
10.9833
10.0952
10.4107
10.4667
10.9718
10.1324
10.4647
10.8623
10.2165
9.30156
10.4015
9.97382
10.1358
10.4426
10.1084
10.5292
9.9984
13.7822
10.1084
9.998
13.7809
10.1087
9.9994
13.7702
10.5299
10.0917
9.9984
13.7803
10.9654
10.0695
10.4516
10.4704
10.961
10.077
10.4755
10.83
10.236
9.22923
10.4927
9.97629
10.0461
10.4706
10.1084
10.5294
9.9988
13.7822
10.1083
9.9982
13.7809
9.9966
9.99681
10.6505
10.6507
9.9972
9.9968
10.5549
9.9946
9.9962
10.533
10.533
10.5329
9.9962
9.996
9.9966
10.6485
9.9976
10.5507
9.997
10.5509
9.9964
9.9964
10.6487
9.9978
10.5507
9.9968
10.5509
9.9964
10.1093
9.9996
13.7815
10.53
10.1093
9.9996
13.7815
10.9532
10.0718
10.429
10.4672
10.9576
10.0707
10.4671
10.9503
10.4672
10.0678
10.4302
10.95
10.067
10.4673
10.1092
10.53
9.9986
13.7816
10.1085
9.99964
13.7815
9.99582
9.998
10.6492
10.5514
9.998
9.9958
10.5512
9.99566
9.9962
10.533
10.5312
9.99642
9.9952
10.5339
9.99626
10.6492
9.9974
10.5507
9.99824
9.99622
10.5512
9.99544
10.5338
9.9964
10.5312
9.99642
9.9954
10.5338
9.99582
9.998
10.6492
10.5514
9.998
9.9958
10.5512
9.99566
9.9962
10.533
10.5312
10.5339
9.9952
9.99642
9.99626
10.6492
9.9974
10.5507
9.99824
10.5512
9.99622
9.99544
10.5338
9.9964
10.5312
9.9954
10.5338
9.99642
7.26743
10.0003
13.7165
13.7129
9.97658
9.96939
10.0386
7.26328
10.0034
9.86285
9.85642
9.88266
7.27194
9.8743
9.9966
9.99681
10.6505
10.6507
9.997
9.9968
10.5549
9.9946
9.9962
10.533
10.533
9.996
9.9962
10.5329
9.9966
10.6485
9.9976
10.5507
9.997
9.9964
10.5509
9.9966
10.6487
9.9978
10.5507
9.9964
9.9968
10.5509
10.1085
9.9996
13.7711
10.5299
10.0908
9.9984
13.7803
10.9671
10.0772
10.4419
10.47
10.094
10.4737
10.9636
10.831
10.2322
9.24382
10.4714
10.0673
9.97551
10.4653
10.1085
10.5294
9.9988
13.7822
9.99801
13.7809
10.1083
9.99582
9.998
10.6492
10.5514
9.998
9.9958
10.5512
9.99566
9.9962
10.533
10.5312
9.99642
9.995
10.5339
9.99626
10.6492
9.9974
10.5507
9.99824
9.99622
10.5512
9.99544
10.5338
9.9964
10.5312
9.99642
9.9954
10.5338
10.1093
9.9996
13.7815
10.53
10.1093
9.9996
13.7815
10.9528
10.0709
10.4297
10.4676
10.9565
10.0704
10.4673
10.9502
10.4672
10.0679
10.4307
10.95
10.0671
10.4673
10.1092
10.53
9.9986
13.7816
10.1086
9.99964
13.7815
9.99582
9.998
10.5514
10.6492
9.9958
9.998
10.5512
9.99566
9.9962
10.5312
10.533
10.5339
9.99642
9.9952
9.99544
10.5338
9.9964
10.5312
9.9954
10.5338
9.99642
9.99626
10.6492
9.9974
10.5507
9.99824
10.5512
9.99622
9.99588
9.9958
10.5307
10.5307
9.99582
9.99582
10.5303
9.99608
9.99498
10.5305
10.5305
9.99586
9.99586
10.5303
9.99628
10.5307
9.9956
10.5305
9.99606
9.99546
10.5303
9.99628
10.5307
9.9956
10.5305
9.99546
9.99606
10.5303
9.99588
9.9958
10.5307
10.5307
9.99582
9.99582
10.5303
9.99608
9.99498
10.5305
10.5305
9.99586
9.99586
10.5303
9.99628
10.5307
9.9956
10.5305
9.99606
9.99546
10.5303
9.99628
10.5307
9.9956
10.5305
9.99546
9.99606
10.5303
9.99588
9.9958
10.5307
10.5307
9.99582
9.99582
10.5303
9.99608
9.99498
10.5305
10.5305
10.5303
9.99586
9.99586
9.99628
10.5307
9.9956
10.5305
9.99606
10.5303
9.99546
9.99628
10.5307
9.9956
10.5305
9.99606
10.5303
9.99546
10.1093
9.9996
10.53
13.7815
9.9996
10.1093
13.7815
10.9525
10.0695
10.4301
10.468
10.4673
10.0693
10.956
10.9499
10.4672
10.4308
10.0679
10.4673
10.0669
10.9497
10.1092
10.53
9.9988
13.7816
9.99964
10.1088
13.7815
9.99582
9.998
10.5514
10.6492
9.9958
9.998
10.5512
9.99566
9.9962
10.5312
10.533
9.995
9.99642
10.5339
9.99544
10.5338
9.9964
10.5312
9.9954
9.99642
10.5338
9.99626
10.6492
9.9974
10.5507
9.99622
9.99824
10.5512
10.1093
9.9996
13.7815
10.53
10.1093
9.9996
13.7815
10.9519
10.0676
10.4309
10.4682
10.0687
10.4675
10.9549
10.9498
10.4672
10.0676
10.4311
10.0668
10.9497
10.4672
10.1092
10.53
9.9988
13.7816
9.99962
13.7815
10.1088
9.9966
9.9974
10.6503
10.6503
9.997
9.9972
10.5547
9.9946
9.9962
10.533
10.533
9.996
9.9962
10.5329
9.9966
10.6487
9.9978
10.5507
9.997
9.9964
10.5509
9.9966
10.6485
9.9978
10.5507
9.9964
9.997
10.5509
7.26752
10.0001
13.7128
13.7165
9.96939
9.97659
10.0386
7.26399
10.0032
9.85958
9.86003
9.87566
7.27622
9.8814
10.1096
9.99961
10.5299
13.7735
9.999
10.0931
13.7803
10.9809
10.081
10.4299
10.4684
10.1069
10.4692
10.9671
10.8574
10.2239
10.4435
9.2674
10.0901
10.4538
9.97597
10.1086
10.5292
9.9986
13.7822
9.9982
13.7809
10.1084
9.99582
9.998
10.5514
10.6492
9.9958
9.998
10.5512
9.99566
9.9962
10.5312
10.533
9.9952
9.99642
10.5339
9.99544
10.5338
9.9964
10.5312
9.9954
9.99642
10.5338
9.99626
10.6492
9.9974
10.5507
9.99622
9.99824
10.5512
10.1093
9.9996
10.53
13.7815
9.9996
10.1093
13.7815
10.9527
10.0699
10.4297
10.4676
10.4673
10.07
10.9566
10.95
10.4672
10.4307
10.0677
10.4673
10.0672
10.9498
10.1092
10.53
9.9986
13.7816
9.99964
10.1085
13.7815
10.1093
9.9996
10.53
13.7815
9.9996
10.1093
13.7815
10.9538
10.0734
10.4278
10.4668
10.0715
10.4669
10.9587
10.9502
10.4672
10.4298
10.0679
10.0669
10.4671
10.9501
10.1092
10.53
9.9986
13.7816
9.99964
13.7815
10.1085
10.1083
9.99961
10.5299
13.7711
9.9986
10.0911
13.7803
10.965
10.0697
10.4518
10.4706
10.476
10.0772
10.9608
10.8293
10.2356
10.4929
9.22886
10.4707
10.0463
9.97671
10.1079
10.5292
9.9986
13.7822
9.998
10.1081
13.7809
10.1097
9.99961
10.5302
13.7735
9.999
10.0934
13.7803
10.9838
10.0948
10.4107
10.4667
10.4647
10.1322
10.972
10.8632
10.2161
10.4013
9.30152
10.4424
10.1356
9.97381
10.109
10.5292
9.9984
13.7822
9.9982
10.1086
13.7809
7.26752
10.0005
13.7129
13.7165
9.96966
9.97649
10.0386
7.26399
10.0032
9.85484
9.86363
7.26622
9.87407
9.88241
10
10
10
10
10
10
10
10
10
10
10
10
10
10
10
10
10
10
10
10
10
10
10
10
10
10
10
10
10
10
10
10
10
10
10
10
10
10
10
10
10
10
10
10
10
10
10
10
10
10
10
10
10
10
10
10
10
10
10
10
10
10
10
10
10
10
10
10
10
10
10
10
10
10
10
10
10
10
10
10
10
10
10
10
10
10
10
10
10
10
10
10
10
10
10
10
10
10
10
10
10
10
10
10
10
10
10
10
10
10
10
10
10.0068
10.0016
10.0016
10.0016
10
10.0068
10.0084
10.0116
10.0048
10.0012
10.002
10.0048
10.0116
10.002
10.0116
10.002
10.0048
10.0012
10.0048
10.0116
10.002
10.0108
10.0048
10.0012
10.002
10.0048
10.0112
10.002
10.0092
10.0024
10.0028
10.0012
10.004
10.008
10.002
10.0116
10.0048
10.0012
10.002
10.0048
10.0116
10.002
10.0116
10.002
10.0012
10.0048
10.0048
10.002
10.0116
10
10
10
10
10
10
10
10
10
10
10
10
10
10
10
10
10
10
10
10
10
10.0004
10.0008
10.0008
10.0024
10.0008
10.0004
10.0024
10
10
10
10
10
10
10
10.0004
10.0024
10.0008
10.0008
10.0008
10.0024
10.0004
10.0112
10.0048
10.0012
10.002
10.0048
10.0112
10.002
10.01
10.002
10.0012
10.0032
10.004
10.002
10.0088
10
10
10
10
10
10
10
10.0004
10.0008
10.0008
10.0024
10.0008
10.0004
10.0024
10.0004
10.0024
10.0008
10.0008
10.0008
10.0004
10.0024
10.0004
10.0008
10.0008
10.0024
10.0008
10.0004
10.0024
10.0004
10.0008
10.0008
10.0024
10.0008
10.0004
10.002
10.0004
10.0016
10.0012
10.0012
10.0004
10.002
10.0016
10.0108
10.0048
10.0012
10.002
10.0112
10.0048
10.002
10.0092
10.0024
10.0028
10.0012
10.008
10.004
10.002
10.0112
10.0048
10.0012
10.002
10.0112
10.0048
10.002
10.01
10.0016
10.0024
10.0012
10.0096
10.0036
10.002
10.0004
10.0008
10.0008
10.0024
10.0008
10.002
10.0004
10.0004
10.0008
10.0008
10.0024
10.0008
10.0024
10.0004
10.0004
10.0016
10.0012
10.0012
10.0004
10.0016
10.002
10.0116
10.0048
10.0012
10.002
10.0116
10.0048
10.002
10.0116
10.002
10.0048
10.0012
10.0116
10.0048
10.002
10.0004
10.0008
10.0008
10.0024
10.0024
10.0008
10.0004
10
10
10
10
10
10
10
10.0004
10.0024
10.0008
10.0008
10.0024
10.0008
10.0004
10.0004
10.0008
10.0008
10.0024
10.0008
10.0024
10.0004
10
10
10
10
10
10
10
10.0004
10.0024
10.0008
10.0008
10.0008
10.0024
10.0004
10.0068
10.0016
10.0016
10.0016
10.0068
10
10.0084
10.0004
10.0008
10.0008
10.0024
10.0024
10.0008
10.0004
10.0004
10.0008
10.0008
10.0024
10.0004
10.0008
10.0024
10.0008
10.0016
10.0012
10.0012
10.0016
10.0004
10.002
10.0112
10.0048
10.0012
10.002
10.0048
10.002
10.0112
10.01
10.0016
10.0024
10.0012
10.0036
10.0092
10.002
10.0004
10.0008
10.0008
10.0024
10.0024
10.0008
10.0004
10
10
10
10
10
10
10
10.0004
10.0024
10.0008
10.0008
10.0024
10.0008
10.0004
10.0116
10.0048
10.0012
10.002
10.0116
10.0048
10.002
10.0116
10.002
10.0048
10.0012
10.0116
10.0048
10.002
10
10
10
10
10
10
10
10.0004
10.0008
10.0008
10.0024
10.0008
10.0024
10.0004
10.0004
10.0024
10.0008
10.0008
10.0008
10.0004
10.0024
10
10
10
10
10
10
10
10
10
10
10
10
10
10
10
10
10
10
10
10
10
10
10
10
10
10
10
10
10
10
10
10
10
10
10
10
10
10
10
10
10
10
10
10
10
10
10
10
10
10
10
10
10
10
10
10
10
10
10
10
10
10
10
10.0116
10.0048
10.0012
10.002
10.002
10.0048
10.0116
10.0116
10.002
10.0012
10.0048
10.002
10.0048
10.0116
10
10
10
10
10
10
10
10.0004
10.0008
10.0008
10.0024
10.0004
10.0008
10.0024
10.0004
10.0024
10.0008
10.0008
10.0004
10.0008
10.0024
10.0116
10.0048
10.0012
10.002
10.0048
10.002
10.0116
10.0116
10.002
10.0048
10.0012
10.0048
10.0116
10.002
10.0004
10.0008
10.0008
10.0024
10.0024
10.0008
10.0004
10.0004
10.0008
10.0008
10.0024
10.0004
10.0008
10.0024
10.0008
10.0016
10.0012
10.0012
10.002
10.0004
10.0016
10.0052
10.0012
10.002
10.002
10.0076
10.0004
10.0068
10.0108
10.0048
10.0012
10.002
10.0048
10.002
10.0112
10.01
10.0024
10.0012
10.0032
10.004
10.002
10.0084
10
10
10
10
10
10
10
10.0004
10.0008
10.0008
10.0024
10.0004
10.0008
10.0024
10.0004
10.0024
10.0008
10.0008
10.0004
10.0008
10.0024
10.0116
10.0048
10.0012
10.002
10.002
10.0048
10.0116
10.0116
10.002
10.0012
10.0048
10.002
10.0048
10.0116
10.0116
10.0048
10.0012
10.002
10.0048
10.002
10.0116
10.0116
10.002
10.0012
10.0048
10.0048
10.002
10.0116
10.0112
10.0048
10.0012
10.002
10.002
10.0048
10.0112
10.01
10.0016
10.0012
10.0024
10.002
10.0036
10.0096
10.0108
10.0048
10.0012
10.002
10.002
10.0048
10.0112
10.0092
10.0024
10.0012
10.0028
10.002
10.004
10.008
10.0068
10.0016
10.0016
10.0016
10
10.0084
10.0068
10
10
10
10
10
10
10
10
10
10
10
10
10
10
10
10
10
10
10
10
10
10
10
10
10.0004
10
10
10.0004
10
10
10
10
10
10
10
10
10.0004
10
10
10
10.0004
10
10
10
10
10
10
10
10
10
10
10
10.0004
10
10
10.0004
10
10.0004
10
10
10
10
10.0004
10
10
10
10.0004
10
10
10.0004
10
10
10
10.0004
10
10
10.0004
10
10.0004
10
10
10
10.0004
10.0004
10
10
10
10.0004
10
10
10.0004
10
10
10
10.0004
10
10
10.0004
10
10.0004
10
10
10
10.0004
10.0004
10
10
10
10.0004
10
10
10.0004
10
10
10
10
10
10
10
10
10.0004
10
10
10
10.0004
10
10
10
10
10.0004
10
10
10.0004
10
10
10
10
10
10
10
10
10.0004
10
10
10
10.0004
10
10
10
10
10.0004
10
10
10.0004
10
10
10.0004
10
10
10
10.0004
10
10.0004
10
10
10
10.0004
10.0004
10
10
10
10.0004
10
10
10.0004
10
10
10
10
10
10
10
10
10.0004
10
10
10
10.0004
10
10
10
10
10
10
10
10
10
10
10
10.0004
10
10
10.0004
10
10.0004
10
10
10
10
10.0004
10
10
10
10
10
10
10
10
10
10
10
10
10
10
10
10
10
10
10
10
10
10
10
10
10
10
10
10
10
10
10
10
10
10
10
10
10
10
10
10
10
10
10
10
10
10
10
10
10
10
10
10
10
10
10
10
10
10
10
10
10
10
10
10
10
10
10
10
10
10
10
10
10.0004
10
10
10
10.0004
10
10.0004
10
10
10
10
10.0004
10
10
10
10.0004
10
10
10.0004
10
10
10.0004
10
10
10
10.0004
10
10.0004
10
10
10
10.0004
10.0004
10
10
10
10
10
10
10
10
10
10.0004
10
10
10
10.0004
10
10.0004
10
10
10
10
10.0004
10.0036
11.0597
11.0627
7.2636
10.0084
11.0588
11.061
10.006
7.26801
11.068
11.0714
11.0724
11.0754
10.0052
10.0232
7.27822
11.0482
11.0565
10.012
10.4031
10.4047
10.0124
10.0365
10.8265
9.01653
9.56278
10.0377
10.0124
10.0148
10.0361
10.8249
9.01631
9.55918
10.0373
10.014
10.0196
7.48958
10.8411
10.8436
9.9665
9.97272
10.0522
10.0176
10.041
10.7989
9.03269
9.03277
10.041
10.0172
10.0116
10.0012
10.0048
10.002
10.0116
10.0048
10.002
10.0176
9.03202
10.7989
10.041
9.03202
10.0172
10.041
10.0176
10.041
10.7989
9.03235
9.03235
10.041
10.0176
10.0116
10.0012
10.0048
10.002
10.0116
10.0048
10.002
10.0172
9.03202
10.7989
10.041
9.03202
10.0172
10.041
10.0172
10.041
10.7989
9.03236
9.03165
10.0406
10.0168
10.0108
10.0012
10.0044
10.002
10.0108
10.0048
10.002
10.0168
9.03272
10.7989
10.0406
9.03243
10.0168
10.0406
10.0152
10.0389
10.8019
9.04263
9.03363
10.0402
10.0152
10.0096
10.0008
10.0044
10.0016
10.0104
10.0044
10.002
10.016
9.03364
10.8023
10.0402
9.03467
10.0168
10.0414
10.0172
10.041
10.7989
9.03236
9.03244
10.041
10.0168
10.0116
10.0012
10.0048
10.002
10.0116
10.0048
10.002
10.0172
9.03202
10.7989
10.041
9.03202
10.0172
10.041
10.0116
10.0012
10.0048
10.002
10.0116
10.0048
10.002
10.0172
10.041
10.7989
9.03202
9.03202
10.041
10.0172
10.0172
9.03202
10.041
10.7989
10.0172
9.03202
10.041
10
10
10
10
10
10
10
10
10
10
10
10
10
10
10
10
10
10
10
10
10
10
10
10
10