/*--------------------------------*- C++ -*----------------------------------*\
| =========                 |                                                 |
| \\      /  F ield         | OpenFOAM: The Open Source CFD Toolbox           |
|  \\    /   O peration     | Version:  2412                                  |
|   \\  /    A nd           | Website:  www.openfoam.com                      |
|    \\/     M anipulation  |                                                 |
\*---------------------------------------------------------------------------*/
FoamFile
{
    version     2.0;
    format      ascii;
    arch        "LSB;label=32;scalar=64";
    class       volScalarField;
    location    "0/chip";
    object      cellVolume;
}
// * * * * * * * * * * * * * * * * * * * * * * * * * * * * * * * * * * * * * //

dimensions      [0 3 0 0 0 0 0];

internalField   nonuniform List<scalar> 
7068
(
1.95313e-13
1.95313e-13
1.95313e-13
1.95313e-13
1.25139e-11
1.25172e-11
1.25172e-11
1.25197e-11
1.95313e-13
1.25223e-11
1.95313e-13
1.95313e-13
1.25195e-11
1.25196e-11
1.95313e-13
1.25223e-11
1.95313e-13
1.95313e-13
1.25196e-11
1.25196e-11
1.95313e-13
1.95313e-13
1.95313e-13
1.25162e-11
1.25162e-11
1.25162e-11
1.25162e-11
1.95313e-13
1.25196e-11
1.25196e-11
1.95313e-13
1.25224e-11
1.95313e-13
1.25196e-11
1.25195e-11
1.25223e-11
1.25197e-11
1.25172e-11
1.25172e-11
1.25197e-11
1.25172e-11
1.25172e-11
1.25139e-11
1.25139e-11
1.25139e-11
1.25172e-11
1.25197e-11
1.25172e-11
1.56792e-12
1.95367e-13
1.65153e-12
1.95344e-13
1.95344e-13
1.65189e-12
1.59909e-12
1.95344e-13
1.95352e-13
1.65249e-12
1.65156e-12
1.95344e-13
1.95344e-13
1.65183e-12
1.56283e-12
1.95312e-13
1.95313e-13
1.56292e-12
1.95313e-13
1.5629e-12
1.5629e-12
1.56517e-12
1.95332e-13
1.95312e-13
1.56298e-12
1.95332e-13
1.56519e-12
1.56294e-12
1.6045e-12
1.95344e-13
1.95352e-13
1.65266e-12
1.56517e-12
1.95313e-13
1.95332e-13
1.56298e-12
1.95332e-13
1.56294e-12
1.5652e-12
1.56608e-12
1.95332e-13
1.95332e-13
1.56308e-12
1.95332e-13
1.56517e-12
1.56513e-12
1.47621e-12
1.56868e-12
1.47112e-12
1.6621e-12
1.66148e-12
1.4711e-12
1.47057e-12
1.66294e-12
1.60408e-12
1.47112e-12
1.47112e-12
1.66212e-12
1.66151e-12
1.47112e-12
1.48372e-12
1.25132e-11
1.25132e-11
1.48375e-12
1.25125e-11
1.48372e-12
1.48372e-12
1.46792e-12
1.25318e-11
1.25166e-11
1.48369e-12
1.25316e-11
1.46789e-12
1.48367e-12
1.47056e-12
1.66312e-12
1.60706e-12
1.47112e-12
1.46792e-12
1.25166e-11
1.25318e-11
1.48369e-12
1.25316e-11
1.48367e-12
1.46789e-12
1.46216e-12
1.25326e-11
1.25329e-11
1.48361e-12
1.25401e-11
1.46788e-12
1.46788e-12
1.59719e-12
1.95344e-13
1.95352e-13
1.65253e-12
1.60757e-12
1.95344e-13
1.95348e-13
1.65255e-12
1.56608e-12
1.95332e-13
1.95332e-13
1.56308e-12
1.95332e-13
1.56513e-12
1.56517e-12
1.56825e-12
1.56297e-12
1.61492e-12
1.70137e-12
1.69949e-12
1.61176e-12
1.63102e-12
1.70078e-12
1.69912e-12
1.62794e-12
1.25362e-11
1.25179e-11
1.25669e-11
1.2567e-11
1.25293e-11
1.2529e-11
1.25957e-11
1.65153e-12
1.95344e-13
1.95344e-13
1.65185e-12
1.56517e-12
1.95332e-13
1.95312e-13
1.56298e-12
1.95332e-13
1.56517e-12
1.56294e-12
1.56517e-12
1.95332e-13
1.95313e-13
1.56298e-12
1.95332e-13
1.5652e-12
1.56294e-12
1.6968e-12
1.69945e-12
1.69791e-12
1.69799e-12
1.69681e-12
1.69931e-12
1.69782e-12
1.69798e-12
1.25292e-11
1.25163e-11
1.25648e-11
1.25189e-11
1.2529e-11
1.25162e-11
1.25646e-11
1.25292e-11
1.25163e-11
1.25648e-11
1.25189e-11
1.2529e-11
1.25162e-11
1.25646e-11
1.56794e-12
1.95367e-13
1.56606e-12
1.95332e-13
1.95332e-13
1.56308e-12
1.95332e-13
1.56514e-12
1.56516e-12
1.60569e-12
1.95344e-13
1.95348e-13
1.65259e-12
1.61946e-12
1.7011e-12
1.6994e-12
1.61728e-12
1.56825e-12
1.56296e-12
1.25361e-11
1.25179e-11
1.25669e-11
1.2567e-11
1.25292e-11
1.2529e-11
1.25957e-11
1.62652e-12
1.70107e-12
1.69928e-12
1.62236e-12
1.56517e-12
1.95332e-13
1.95313e-13
1.56298e-12
1.95332e-13
1.56521e-12
1.56294e-12
1.65153e-12
1.95344e-13
1.95344e-13
1.65187e-12
1.56517e-12
1.95312e-13
1.95332e-13
1.56298e-12
1.95332e-13
1.56294e-12
1.56519e-12
1.69681e-12
1.69915e-12
1.69772e-12
1.698e-12
1.25292e-11
1.25163e-11
1.25649e-11
1.25188e-11
1.2529e-11
1.25162e-11
1.25645e-11
1.69682e-12
1.69934e-12
1.69779e-12
1.69802e-12
1.25292e-11
1.25163e-11
1.25189e-11
1.25648e-11
1.25162e-11
1.2529e-11
1.25646e-11
1.56283e-12
1.95313e-13
1.95312e-13
1.56292e-12
1.95312e-13
1.5629e-12
1.5629e-12
1.56283e-12
1.95312e-13
1.95313e-13
1.56292e-12
1.95313e-13
1.5629e-12
1.5629e-12
1.56283e-12
1.95313e-13
1.95312e-13
1.56292e-12
1.95312e-13
1.5629e-12
1.5629e-12
1.65153e-12
1.95344e-13
1.95344e-13
1.65186e-12
1.56517e-12
1.95313e-13
1.95332e-13
1.56298e-12
1.95332e-13
1.56294e-12
1.56521e-12
1.65152e-12
1.95344e-13
1.95344e-13
1.65183e-12
1.25292e-11
1.25163e-11
1.25649e-11
1.25188e-11
1.2529e-11
1.25162e-11
1.25646e-11
1.69683e-12
1.6993e-12
1.69777e-12
1.69801e-12
1.25292e-11
1.25163e-11
1.25188e-11
1.25649e-11
1.25162e-11
1.2529e-11
1.25645e-11
1.69682e-12
1.69915e-12
1.69773e-12
1.69802e-12
1.56605e-12
1.95332e-13
1.95332e-13
1.56308e-12
1.95332e-13
1.56517e-12
1.56514e-12
1.56792e-12
1.95367e-13
1.60023e-12
1.95344e-13
1.95352e-13
1.65253e-12
1.6239e-12
1.70124e-12
1.69934e-12
1.61817e-12
1.25362e-11
1.2518e-11
1.25669e-11
1.2567e-11
1.25291e-11
1.25291e-11
1.25957e-11
1.56821e-12
1.56299e-12
1.62206e-12
1.70099e-12
1.69929e-12
1.62152e-12
1.56517e-12
1.95312e-13
1.95332e-13
1.56298e-12
1.95332e-13
1.56294e-12
1.56517e-12
1.65153e-12
1.95344e-13
1.95344e-13
1.65188e-12
1.65153e-12
1.95344e-13
1.95344e-13
1.6519e-12
1.25292e-11
1.25163e-11
1.25188e-11
1.25648e-11
1.25162e-11
1.2529e-11
1.25646e-11
1.25292e-11
1.25163e-11
1.25189e-11
1.25648e-11
1.25162e-11
1.2529e-11
1.25646e-11
1.69685e-12
1.69921e-12
1.6978e-12
1.69797e-12
1.69684e-12
1.69945e-12
1.69789e-12
1.69797e-12
1.60756e-12
1.95344e-13
1.95348e-13
1.65256e-12
1.59721e-12
1.95344e-13
1.95352e-13
1.65255e-12
1.5679e-12
1.95367e-13
1.25362e-11
1.25179e-11
1.2567e-11
1.25669e-11
1.2529e-11
1.25293e-11
1.25956e-11
1.63102e-12
1.70078e-12
1.69914e-12
1.62786e-12
1.61491e-12
1.7014e-12
1.69947e-12
1.61179e-12
1.56822e-12
1.56297e-12
1.47054e-12
1.66295e-12
1.60124e-12
1.47112e-12
1.47054e-12
1.66306e-12
1.61277e-12
1.47112e-12
1.46217e-12
1.25329e-11
1.25326e-11
1.48361e-12
1.254e-11
1.46788e-12
1.46788e-12
1.47112e-12
1.66206e-12
1.66148e-12
1.4711e-12
1.46792e-12
1.25318e-11
1.25166e-11
1.48367e-12
1.25316e-11
1.46789e-12
1.48367e-12
1.46792e-12
1.25318e-11
1.25166e-11
1.48367e-12
1.25316e-11
1.46789e-12
1.48367e-12
1.47621e-12
1.56869e-12
1.46216e-12
1.25328e-11
1.25328e-11
1.48361e-12
1.254e-11
1.46788e-12
1.46788e-12
1.47052e-12
1.66311e-12
1.60988e-12
1.47112e-12
1.46792e-12
1.25318e-11
1.25166e-11
1.48369e-12
1.25316e-11
1.46789e-12
1.48367e-12
1.47112e-12
1.66211e-12
1.66151e-12
1.4711e-12
1.46792e-12
1.25166e-11
1.25318e-11
1.48367e-12
1.25316e-11
1.48367e-12
1.46789e-12
1.48372e-12
1.25133e-11
1.25132e-11
1.48375e-12
1.25125e-11
1.48372e-12
1.48372e-12
1.48372e-12
1.25132e-11
1.25132e-11
1.48375e-12
1.25125e-11
1.48372e-12
1.48372e-12
1.48372e-12
1.25132e-11
1.25132e-11
1.48375e-12
1.25125e-11
1.48372e-12
1.48372e-12
1.47112e-12
1.66214e-12
1.66151e-12
1.47112e-12
1.46792e-12
1.25166e-11
1.25318e-11
1.48369e-12
1.25316e-11
1.48367e-12
1.46789e-12
1.47112e-12
1.6621e-12
1.6615e-12
1.47112e-12
1.46217e-12
1.25328e-11
1.25328e-11
1.48361e-12
1.254e-11
1.46788e-12
1.46788e-12
1.4762e-12
1.5687e-12
1.47056e-12
1.66296e-12
1.6069e-12
1.47112e-12
1.46792e-12
1.25166e-11
1.25318e-11
1.48367e-12
1.25316e-11
1.48367e-12
1.46789e-12
1.47112e-12
1.66206e-12
1.66151e-12
1.4711e-12
1.47112e-12
1.66212e-12
1.6615e-12
1.4711e-12
1.47052e-12
1.66305e-12
1.61267e-12
1.47112e-12
1.47056e-12
1.66297e-12
1.60129e-12
1.47112e-12
1.47621e-12
1.56868e-12
1.56257e-12
1.95313e-13
1.95313e-13
1.56256e-12
1.95313e-13
1.56256e-12
1.56256e-12
1.56267e-12
1.95313e-13
1.95313e-13
1.56259e-12
1.95313e-13
1.56265e-12
1.5626e-12
1.56267e-12
1.95313e-13
1.95313e-13
1.56259e-12
1.95313e-13
1.5626e-12
1.56265e-12
1.56273e-12
1.95313e-13
1.95313e-13
1.56263e-12
1.95313e-13
1.56268e-12
1.56268e-12
1.56273e-12
1.95313e-13
1.95313e-13
1.56263e-12
1.95313e-13
1.56268e-12
1.56268e-12
1.56267e-12
1.95313e-13
1.95313e-13
1.56259e-12
1.5626e-12
1.95313e-13
1.56265e-12
1.56267e-12
1.95313e-13
1.95313e-13
1.56259e-12
1.95313e-13
1.56265e-12
1.5626e-12
1.56273e-12
1.95313e-13
1.95313e-13
1.56263e-12
1.56268e-12
1.95313e-13
1.56268e-12
1.56267e-12
1.95313e-13
1.95313e-13
1.56259e-12
1.5626e-12
1.95313e-13
1.56265e-12
1.56267e-12
1.95313e-13
1.95313e-13
1.56259e-12
1.95313e-13
1.5626e-12
1.56265e-12
1.56257e-12
1.95313e-13
1.95313e-13
1.56256e-12
1.56256e-12
1.95313e-13
1.56256e-12
1.56257e-12
1.95313e-13
1.95313e-13
1.56256e-12
1.56256e-12
1.95313e-13
1.56256e-12
1.56257e-12
1.95313e-13
1.95313e-13
1.56256e-12
1.95313e-13
1.56256e-12
1.56256e-12
1.56267e-12
1.95313e-13
1.95313e-13
1.56259e-12
1.56265e-12
1.95313e-13
1.5626e-12
1.56273e-12
1.95313e-13
1.95313e-13
1.56263e-12
1.56268e-12
1.95313e-13
1.56268e-12
1.56267e-12
1.95313e-13
1.95313e-13
1.56259e-12
1.56265e-12
1.95313e-13
1.5626e-12
1.35784e-13
1.56699e-12
1.47134e-12
1.47062e-12
1.47274e-12
1.47229e-12
1.35575e-13
1.35432e-13
1.56491e-12
1.77148e-13
1.77146e-13
1.48699e-13
1.47847e-12
1.47833e-12
1.4128e-12
1.58404e-12
1.48572e-12
1.65157e-12
1.41293e-12
1.58399e-12
1.48577e-12
1.4734e-12
1.77489e-13
1.95344e-13
1.56458e-12
1.7749e-13
1.47336e-12
1.56459e-12
1.47341e-12
1.56459e-12
1.7749e-13
1.95344e-13
1.7749e-13
1.4734e-12
1.56457e-12
1.41256e-12
1.65164e-12
1.58394e-12
1.48614e-12
1.41226e-12
1.58397e-12
1.48587e-12
1.42167e-12
1.57324e-12
1.44581e-12
1.6541e-12
1.43568e-12
1.58629e-12
1.48324e-12
1.47332e-12
1.77486e-13
1.95344e-13
1.56457e-12
1.7748e-13
1.47339e-12
1.56457e-12
1.47316e-12
1.56446e-12
1.77406e-13
1.95344e-13
1.77473e-13
1.47184e-12
1.56448e-12
1.41264e-12
1.65413e-12
1.58405e-12
1.48617e-12
1.412e-12
1.58476e-12
1.48625e-12
1.41282e-12
1.58405e-12
1.65157e-12
1.48567e-12
1.58402e-12
1.41292e-12
1.48561e-12
1.47341e-12
1.7749e-13
1.95344e-13
1.56459e-12
1.7749e-13
1.47338e-12
1.56459e-12
1.47343e-12
1.56459e-12
1.95344e-13
1.7749e-13
1.7749e-13
1.56457e-12
1.47341e-12
1.41258e-12
1.65161e-12
1.58393e-12
1.4853e-12
1.41214e-12
1.58399e-12
1.4855e-12
1.56257e-12
1.95313e-13
1.95312e-13
1.56256e-12
1.95313e-13
1.56256e-12
1.56257e-12
1.56257e-12
1.95313e-13
1.95313e-13
1.56256e-12
1.95313e-13
1.56256e-12
1.56257e-12
1.56256e-12
1.56256e-12
1.95312e-13
1.95313e-13
1.95313e-13
1.56256e-12
1.56256e-12
1.56278e-12
1.95313e-13
1.95332e-13
1.56327e-12
1.95313e-13
1.56279e-12
1.56329e-12
1.56268e-12
1.95313e-13
1.95312e-13
1.56259e-12
1.95313e-13
1.56259e-12
1.56268e-12
1.56276e-12
1.5633e-12
1.95332e-13
1.95312e-13
1.95313e-13
1.5633e-12
1.56276e-12
1.42033e-12
1.5753e-12
1.65601e-12
1.45394e-12
1.58684e-12
1.43908e-12
1.48077e-12
1.47329e-12
1.77486e-13
1.95344e-13
1.56456e-12
1.7748e-13
1.47335e-12
1.56457e-12
1.47311e-12
1.56446e-12
1.95344e-13
1.7742e-13
1.77477e-13
1.56451e-12
1.47181e-12
1.41185e-12
1.65461e-12
1.58407e-12
1.48553e-12
1.41163e-12
1.58481e-12
1.48508e-12
1.56268e-12
1.95313e-13
1.95313e-13
1.56259e-12
1.95313e-13
1.56259e-12
1.56268e-12
1.56278e-12
1.95313e-13
1.95332e-13
1.56327e-12
1.95313e-13
1.56279e-12
1.56329e-12
1.56276e-12
1.5633e-12
1.95313e-13
1.95332e-13
1.95313e-13
1.56276e-12
1.5633e-12
1.56285e-12
1.95312e-13
1.95332e-13
1.56329e-12
1.95313e-13
1.56282e-12
1.5633e-12
1.56285e-12
1.95312e-13
1.95332e-13
1.56329e-12
1.95312e-13
1.5628e-12
1.56333e-12
1.56293e-12
1.56357e-12
1.95328e-13
1.95328e-13
1.95312e-13
1.56336e-12
1.56333e-12
1.35645e-13
1.56782e-12
1.34834e-13
1.34837e-13
1.48174e-12
1.48164e-12
8.57898e-14
1.35894e-13
1.56877e-12
1.47164e-12
1.47103e-12
1.35586e-13
1.47376e-12
1.47343e-12
1.47562e-12
1.56649e-12
1.35213e-13
1.47112e-12
1.47562e-12
1.56649e-12
1.35213e-13
1.41171e-12
1.47478e-12
1.66169e-12
1.57546e-12
1.47433e-12
1.4115e-12
1.57542e-12
1.41192e-12
1.57546e-12
1.47405e-12
1.66155e-12
1.47413e-12
1.41202e-12
1.57544e-12
1.47562e-12
1.47112e-12
1.5665e-12
1.35197e-13
1.47563e-12
1.56649e-12
1.3521e-13
1.4755e-12
1.56689e-12
1.35156e-13
1.47126e-12
1.47446e-12
1.56653e-12
1.35193e-13
1.41215e-12
1.47498e-12
1.66505e-12
1.5758e-12
1.47575e-12
1.41136e-12
1.57695e-12
1.42146e-12
1.57125e-12
1.44207e-12
1.66493e-12
1.47427e-12
1.43612e-12
1.5799e-12
1.47561e-12
1.47114e-12
1.56652e-12
1.35197e-13
1.47563e-12
1.56649e-12
1.35196e-13
1.47562e-12
1.56649e-12
1.47112e-12
1.35213e-13
1.56649e-12
1.47562e-12
1.35213e-13
1.41172e-12
1.47389e-12
1.66168e-12
1.57549e-12
1.47394e-12
1.41133e-12
1.57545e-12
1.41194e-12
1.57545e-12
1.66154e-12
1.474e-12
1.47398e-12
1.57545e-12
1.41202e-12
1.47562e-12
1.47112e-12
1.56651e-12
1.35197e-13
1.47562e-12
1.56649e-12
1.3521e-13
1.56293e-12
1.56295e-12
1.48373e-12
1.48373e-12
1.56296e-12
1.56296e-12
1.48377e-12
1.56296e-12
1.563e-12
1.48375e-12
1.48375e-12
1.56298e-12
1.56298e-12
1.48377e-12
1.56294e-12
1.48374e-12
1.56298e-12
1.48373e-12
1.56298e-12
1.56295e-12
1.48377e-12
1.56294e-12
1.48374e-12
1.56298e-12
1.48373e-12
1.56298e-12
1.56295e-12
1.48377e-12
1.56339e-12
1.56498e-12
1.46794e-12
1.48099e-12
1.56497e-12
1.56341e-12
1.48099e-12
1.56322e-12
1.56306e-12
1.48336e-12
1.48369e-12
1.56323e-12
1.56303e-12
1.48336e-12
1.56338e-12
1.46792e-12
1.56493e-12
1.48099e-12
1.5634e-12
1.56496e-12
1.48101e-12
1.56324e-12
1.48339e-12
1.56302e-12
1.48367e-12
1.56302e-12
1.56323e-12
1.48337e-12
1.47544e-12
1.56685e-12
1.47121e-12
1.35157e-13
1.56651e-12
1.47444e-12
1.35193e-13
1.41192e-12
1.47474e-12
1.66554e-12
1.5758e-12
1.4752e-12
1.41122e-12
1.57709e-12
1.42118e-12
1.57272e-12
1.66625e-12
1.44595e-12
1.47311e-12
1.58046e-12
1.43877e-12
1.47556e-12
1.47113e-12
1.56651e-12
1.35197e-13
1.47565e-12
1.56648e-12
1.35199e-13
1.56339e-12
1.56498e-12
1.48099e-12
1.46794e-12
1.56341e-12
1.56497e-12
1.48099e-12
1.56322e-12
1.56306e-12
1.48369e-12
1.48336e-12
1.56303e-12
1.56323e-12
1.48336e-12
1.56324e-12
1.48339e-12
1.56302e-12
1.48367e-12
1.56302e-12
1.56323e-12
1.48337e-12
1.56338e-12
1.46792e-12
1.56493e-12
1.48099e-12
1.5634e-12
1.56496e-12
1.48101e-12
1.56378e-12
1.56578e-12
1.46694e-12
1.46695e-12
1.56513e-12
1.56503e-12
1.47858e-12
1.56342e-12
1.56308e-12
1.48329e-12
1.48331e-12
1.56323e-12
1.56325e-12
1.48304e-12
1.56359e-12
1.46777e-12
1.56494e-12
1.48095e-12
1.56342e-12
1.56495e-12
1.48069e-12
1.56361e-12
1.46777e-12
1.56492e-12
1.48095e-12
1.56342e-12
1.56494e-12
1.48071e-12
1.42238e-12
1.57286e-12
1.44414e-12
1.65381e-12
1.43553e-12
1.58628e-12
1.48544e-12
1.47334e-12
1.77486e-13
1.95344e-13
1.56458e-12
1.47338e-12
1.7748e-13
1.56457e-12
1.47317e-12
1.56447e-12
1.77406e-13
1.95344e-13
1.47185e-12
1.77473e-13
1.56449e-12
1.41304e-12
1.65409e-12
1.58405e-12
1.48673e-12
1.41212e-12
1.58471e-12
1.48747e-12
1.41935e-12
1.57594e-12
1.457e-12
1.65654e-12
1.43948e-12
1.58688e-12
1.47756e-12
1.47327e-12
1.77486e-13
1.95344e-13
1.56456e-12
1.47335e-12
1.7748e-13
1.56454e-12
1.47311e-12
1.56447e-12
1.77409e-13
1.95344e-13
1.47179e-12
1.77473e-13
1.56446e-12
1.41128e-12
1.65463e-12
1.58403e-12
1.48477e-12
1.41149e-12
1.58475e-12
1.4833e-12
1.56285e-12
1.95312e-13
1.95332e-13
1.56329e-12
1.95313e-13
1.56333e-12
1.5628e-12
1.56285e-12
1.95312e-13
1.95332e-13
1.56329e-12
1.95313e-13
1.5633e-12
1.56282e-12
1.56293e-12
1.56357e-12
1.95328e-13
1.95328e-13
1.95312e-13
1.56333e-12
1.56336e-12
1.35528e-13
1.46937e-12
1.4685e-12
1.56838e-12
1.3554e-13
1.46846e-12
1.46756e-12
1.35524e-13
1.56459e-12
1.46942e-12
1.46859e-12
1.35552e-13
1.4685e-12
1.46758e-12
1.44154e-12
1.42254e-12
1.70449e-12
1.62231e-12
1.46502e-12
1.40503e-12
1.72684e-12
1.43038e-12
1.44472e-12
1.72075e-12
1.7056e-12
1.7259e-12
1.42542e-12
1.44902e-12
1.43539e-12
1.70299e-12
1.45772e-12
1.71858e-12
1.46115e-12
1.72348e-12
1.43076e-12
1.43738e-12
1.62147e-12
1.41618e-12
1.70737e-12
1.40241e-12
1.72929e-12
1.45485e-12
1.41766e-12
1.43772e-12
1.70729e-12
1.6415e-12
1.44562e-12
1.42194e-12
1.7294e-12
1.41772e-12
1.44031e-12
1.7197e-12
1.70497e-12
1.72449e-12
1.42009e-12
1.43846e-12
1.42289e-12
1.70281e-12
1.45356e-12
1.71788e-12
1.4511e-12
1.72265e-12
1.4256e-12
1.41312e-12
1.64001e-12
1.43172e-12
1.70954e-12
1.41949e-12
1.73083e-12
1.4346e-12
1.41282e-12
1.58404e-12
1.4857e-12
1.65157e-12
1.41294e-12
1.58399e-12
1.48571e-12
1.4734e-12
1.7749e-13
1.95344e-13
1.56458e-12
1.47338e-12
1.7749e-13
1.56459e-12
1.47341e-12
1.56459e-12
1.7749e-13
1.95344e-13
1.4734e-12
1.7749e-13
1.56457e-12
1.4126e-12
1.65161e-12
1.58394e-12
1.48594e-12
1.41229e-12
1.58396e-12
1.48578e-12
1.56278e-12
1.95313e-13
1.95332e-13
1.56327e-12
1.56329e-12
1.95313e-13
1.56279e-12
1.56268e-12
1.95313e-13
1.95312e-13
1.56259e-12
1.56259e-12
1.95313e-13
1.56268e-12
1.56276e-12
1.5633e-12
1.95332e-13
1.95312e-13
1.5633e-12
1.95313e-13
1.56276e-12
1.56278e-12
1.95313e-13
1.95332e-13
1.56327e-12
1.95313e-13
1.56329e-12
1.56279e-12
1.56268e-12
1.95313e-13
1.95313e-13
1.56259e-12
1.95313e-13
1.56268e-12
1.56259e-12
1.56276e-12
1.5633e-12
1.95332e-13
1.95313e-13
1.95313e-13
1.5633e-12
1.56276e-12
1.4264e-12
1.45446e-12
1.69694e-12
1.71474e-12
1.4546e-12
1.42617e-12
1.71492e-12
1.42135e-12
1.44254e-12
1.71837e-12
1.69853e-12
1.44152e-12
1.42273e-12
1.71727e-12
1.42697e-12
1.69723e-12
1.4559e-12
1.71634e-12
1.45501e-12
1.42822e-12
1.71533e-12
1.42076e-12
1.71657e-12
1.44099e-12
1.69814e-12
1.44112e-12
1.42054e-12
1.71678e-12
1.4263e-12
1.45447e-12
1.69695e-12
1.71473e-12
1.45454e-12
1.42613e-12
1.71488e-12
1.42107e-12
1.44202e-12
1.71815e-12
1.6985e-12
1.71711e-12
1.42197e-12
1.44134e-12
1.42671e-12
1.69719e-12
1.45543e-12
1.71622e-12
1.45481e-12
1.71526e-12
1.42753e-12
1.42067e-12
1.71657e-12
1.44098e-12
1.69813e-12
1.42051e-12
1.71671e-12
1.44107e-12
1.35785e-13
1.567e-12
1.47127e-12
1.47066e-12
1.47273e-12
1.47229e-12
1.35576e-13
1.35432e-13
1.56493e-12
1.77144e-13
1.7715e-13
1.47846e-12
1.48699e-13
1.47833e-12
1.56285e-12
1.95312e-13
1.95332e-13
1.5633e-12
1.56333e-12
1.95313e-13
1.5628e-12
1.56285e-12
1.95313e-13
1.95332e-13
1.56329e-12
1.56282e-12
1.95313e-13
1.5633e-12
1.56293e-12
1.56355e-12
1.95328e-13
1.95328e-13
1.56334e-12
1.95312e-13
1.56337e-12
1.42e-12
1.57552e-12
1.45516e-12
1.65626e-12
1.43931e-12
1.58689e-12
1.47959e-12
1.47328e-12
1.77486e-13
1.95344e-13
1.56456e-12
1.7748e-13
1.56454e-12
1.47336e-12
1.47313e-12
1.56443e-12
1.77409e-13
1.95344e-13
1.77473e-13
1.47183e-12
1.5645e-12
1.41165e-12
1.6547e-12
1.58404e-12
1.48524e-12
1.5848e-12
1.48441e-12
1.41155e-12
1.43326e-12
1.42712e-12
1.70513e-12
1.62963e-12
1.45973e-12
1.41275e-12
1.72781e-12
1.42591e-12
1.44332e-12
1.72033e-12
1.70534e-12
1.44571e-12
1.42351e-12
1.72545e-12
1.4312e-12
1.70294e-12
1.45662e-12
1.71832e-12
1.45843e-12
1.42904e-12
1.72322e-12
1.42847e-12
1.62911e-12
1.42233e-12
1.70803e-12
1.44842e-12
1.41093e-12
1.73007e-12
1.35526e-13
1.46915e-12
1.46868e-12
1.56836e-12
1.3554e-13
1.46803e-12
1.46795e-12
1.35523e-13
1.56456e-12
1.46913e-12
1.46889e-12
1.46797e-12
1.46806e-12
1.35538e-13
1.42601e-12
1.43316e-12
1.70665e-12
1.63424e-12
1.45091e-12
1.4143e-12
1.72849e-12
1.42221e-12
1.4417e-12
1.72011e-12
1.70529e-12
1.72505e-12
1.42197e-12
1.4417e-12
1.42711e-12
1.703e-12
1.45469e-12
1.71815e-12
1.45377e-12
1.72299e-12
1.42733e-12
1.42206e-12
1.6324e-12
1.42554e-12
1.70893e-12
1.41101e-12
1.73016e-12
1.44101e-12
1.56278e-12
1.95313e-13
1.95332e-13
1.56327e-12
1.56329e-12
1.95313e-13
1.56279e-12
1.56268e-12
1.95313e-13
1.95313e-13
1.56259e-12
1.56259e-12
1.95313e-13
1.56268e-12
1.56276e-12
1.5633e-12
1.95332e-13
1.95313e-13
1.5633e-12
1.95313e-13
1.56276e-12
1.41281e-12
1.58404e-12
1.48567e-12
1.65153e-12
1.41294e-12
1.58398e-12
1.48565e-12
1.4734e-12
1.7749e-13
1.95344e-13
1.56458e-12
1.47338e-12
1.7749e-13
1.56459e-12
1.47341e-12
1.56459e-12
1.7749e-13
1.95344e-13
1.4734e-12
1.7749e-13
1.56457e-12
1.41253e-12
1.65161e-12
1.58391e-12
1.48559e-12
1.41211e-12
1.58394e-12
1.48563e-12
1.56268e-12
1.95313e-13
1.95312e-13
1.56259e-12
1.95313e-13
1.56268e-12
1.56259e-12
1.56278e-12
1.95313e-13
1.95332e-13
1.56327e-12
1.95313e-13
1.56329e-12
1.56279e-12
1.56276e-12
1.5633e-12
1.95312e-13
1.95332e-13
1.95313e-13
1.56276e-12
1.5633e-12
1.42609e-12
1.69688e-12
1.45436e-12
1.71473e-12
1.45437e-12
1.71488e-12
1.42603e-12
1.42055e-12
1.44085e-12
1.71787e-12
1.69843e-12
1.44091e-12
1.42063e-12
1.71706e-12
1.42619e-12
1.69714e-12
1.45426e-12
1.71605e-12
1.45438e-12
1.42622e-12
1.71524e-12
1.42047e-12
1.71658e-12
1.69812e-12
1.44087e-12
1.44088e-12
1.71674e-12
1.42041e-12
1.42623e-12
1.45436e-12
1.69692e-12
1.71475e-12
1.45445e-12
1.42608e-12
1.71488e-12
1.42107e-12
1.44182e-12
1.71821e-12
1.69849e-12
1.71718e-12
1.42187e-12
1.44127e-12
1.42658e-12
1.69719e-12
1.45492e-12
1.71623e-12
1.45462e-12
1.71527e-12
1.42729e-12
1.42067e-12
1.71659e-12
1.4409e-12
1.69814e-12
1.42046e-12
1.71675e-12
1.441e-12
1.56257e-12
1.95313e-13
1.95313e-13
1.56256e-12
1.56257e-12
1.95313e-13
1.56256e-12
1.56257e-12
1.95313e-13
1.95312e-13
1.56256e-12
1.56256e-12
1.95313e-13
1.56257e-12
1.56256e-12
1.56256e-12
1.95313e-13
1.95312e-13
1.56256e-12
1.95313e-13
1.56256e-12
1.56257e-12
1.95313e-13
1.95312e-13
1.56256e-12
1.56257e-12
1.95313e-13
1.56256e-12
1.56257e-12
1.95313e-13
1.95313e-13
1.56256e-12
1.56256e-12
1.95313e-13
1.56257e-12
1.56256e-12
1.56256e-12
1.95312e-13
1.95313e-13
1.56256e-12
1.95313e-13
1.56256e-12
1.56257e-12
1.95313e-13
1.95313e-13
1.56256e-12
1.95313e-13
1.56257e-12
1.56256e-12
1.56257e-12
1.95313e-13
1.95312e-13
1.56256e-12
1.95313e-13
1.56257e-12
1.56256e-12
1.56256e-12
1.56256e-12
1.95313e-13
1.95312e-13
1.95313e-13
1.56256e-12
1.56256e-12
1.4128e-12
1.58405e-12
1.65155e-12
1.48565e-12
1.58399e-12
1.41291e-12
1.48564e-12
1.47341e-12
1.7749e-13
1.95344e-13
1.56459e-12
1.56459e-12
1.7749e-13
1.47337e-12
1.47343e-12
1.56459e-12
1.95344e-13
1.7749e-13
1.56457e-12
1.7749e-13
1.47341e-12
1.41256e-12
1.6516e-12
1.58393e-12
1.4855e-12
1.58395e-12
1.41211e-12
1.48559e-12
1.56268e-12
1.95313e-13
1.95313e-13
1.56259e-12
1.56268e-12
1.95313e-13
1.56259e-12
1.56278e-12
1.95313e-13
1.95332e-13
1.56327e-12
1.56279e-12
1.95313e-13
1.56329e-12
1.56276e-12
1.5633e-12
1.95313e-13
1.95332e-13
1.56276e-12
1.95313e-13
1.5633e-12
1.41282e-12
1.58405e-12
1.48563e-12
1.65155e-12
1.41292e-12
1.58402e-12
1.4856e-12
1.47341e-12
1.7749e-13
1.95344e-13
1.56459e-12
1.7749e-13
1.56459e-12
1.47338e-12
1.47343e-12
1.56459e-12
1.7749e-13
1.95344e-13
1.7749e-13
1.4734e-12
1.56457e-12
1.41257e-12
1.65161e-12
1.58393e-12
1.48531e-12
1.58399e-12
1.48551e-12
1.41213e-12
1.42618e-12
1.69693e-12
1.45437e-12
1.71474e-12
1.4544e-12
1.71489e-12
1.42608e-12
1.42085e-12
1.44139e-12
1.71809e-12
1.69848e-12
1.42136e-12
1.71713e-12
1.44109e-12
1.42644e-12
1.69717e-12
1.45471e-12
1.71618e-12
1.42693e-12
1.45452e-12
1.71528e-12
1.4206e-12
1.71657e-12
1.69812e-12
1.44089e-12
1.71675e-12
1.42043e-12
1.44094e-12
1.4261e-12
1.45437e-12
1.69688e-12
1.71474e-12
1.45437e-12
1.42604e-12
1.7149e-12
1.42057e-12
1.44085e-12
1.71788e-12
1.69843e-12
1.71706e-12
1.42065e-12
1.44089e-12
1.42619e-12
1.69714e-12
1.45427e-12
1.71603e-12
1.45438e-12
1.71524e-12
1.4262e-12
1.42047e-12
1.71656e-12
1.44088e-12
1.69813e-12
1.42039e-12
1.71672e-12
1.44088e-12
1.56286e-12
1.95313e-13
1.95332e-13
1.56329e-12
1.5633e-12
1.95313e-13
1.56282e-12
1.56285e-12
1.95312e-13
1.95332e-13
1.5633e-12
1.5628e-12
1.95313e-13
1.56331e-12
1.56293e-12
1.56352e-12
1.95328e-13
1.95328e-13
1.56335e-12
1.95312e-13
1.56333e-12
1.35782e-13
1.567e-12
1.47077e-12
1.47116e-12
1.47239e-12
1.47266e-12
1.35582e-13
1.3543e-13
1.56489e-12
1.7715e-13
1.77136e-13
1.47836e-12
1.4869e-13
1.47843e-12
1.42128e-12
1.57349e-12
1.65435e-12
1.44706e-12
1.58637e-12
1.43585e-12
1.48203e-12
1.47331e-12
1.77486e-13
1.95344e-13
1.56457e-12
1.7748e-13
1.56454e-12
1.47339e-12
1.47316e-12
1.56448e-12
1.95344e-13
1.77402e-13
1.77469e-13
1.56452e-12
1.4718e-12
1.41243e-12
1.6541e-12
1.58406e-12
1.48593e-12
1.58468e-12
1.48567e-12
1.41197e-12
1.43084e-12
1.70628e-12
1.4307e-12
1.6303e-12
1.45395e-12
1.72804e-12
1.41067e-12
1.42518e-12
1.44282e-12
1.72041e-12
1.70545e-12
1.44428e-12
1.42321e-12
1.72544e-12
1.42963e-12
1.703e-12
1.45535e-12
1.71836e-12
1.45539e-12
1.4284e-12
1.72323e-12
1.42781e-12
1.62794e-12
1.7084e-12
1.42099e-12
1.4461e-12
1.72985e-12
1.40648e-12
1.35527e-13
1.46885e-12
1.46898e-12
1.56835e-12
1.35543e-13
1.46816e-12
1.4678e-12
1.35524e-13
1.56457e-12
1.46913e-12
1.46884e-12
1.4683e-12
1.46774e-12
1.35543e-13
1.42838e-12
1.7056e-12
1.42969e-12
1.6336e-12
1.45682e-12
1.72829e-12
1.41637e-12
1.4228e-12
1.44225e-12
1.72009e-12
1.70518e-12
1.72506e-12
1.42225e-12
1.4431e-12
1.42864e-12
1.70288e-12
1.45591e-12
1.71811e-12
1.45694e-12
1.72299e-12
1.42796e-12
1.42245e-12
1.63361e-12
1.70856e-12
1.42694e-12
1.73032e-12
1.41527e-12
1.44339e-12
1.56268e-12
1.95313e-13
1.95312e-13
1.56259e-12
1.56268e-12
1.95313e-13
1.56259e-12
1.56278e-12
1.95313e-13
1.95332e-13
1.56327e-12
1.56279e-12
1.95313e-13
1.56329e-12
1.56276e-12
1.5633e-12
1.95312e-13
1.95332e-13
1.56276e-12
1.95313e-13
1.5633e-12
1.41283e-12
1.58404e-12
1.65156e-12
1.48567e-12
1.584e-12
1.41294e-12
1.4857e-12
1.4734e-12
1.7749e-13
1.95344e-13
1.56458e-12
1.56459e-12
1.7749e-13
1.47338e-12
1.4734e-12
1.56459e-12
1.95344e-13
1.7749e-13
1.56457e-12
1.77489e-13
1.47341e-12
1.41263e-12
1.65162e-12
1.58394e-12
1.48584e-12
1.58397e-12
1.41229e-12
1.48575e-12
1.4128e-12
1.58404e-12
1.65156e-12
1.48569e-12
1.58399e-12
1.41293e-12
1.48577e-12
1.4734e-12
1.7749e-13
1.95344e-13
1.56458e-12
1.7749e-13
1.56459e-12
1.47338e-12
1.4734e-12
1.56459e-12
1.95344e-13
1.7749e-13
1.7749e-13
1.56457e-12
1.47341e-12
1.41256e-12
1.65164e-12
1.58393e-12
1.48616e-12
1.58397e-12
1.48587e-12
1.41225e-12
1.4262e-12
1.69696e-12
1.45444e-12
1.71474e-12
1.4545e-12
1.71488e-12
1.42611e-12
1.42089e-12
1.44157e-12
1.718e-12
1.69845e-12
1.42147e-12
1.71707e-12
1.44116e-12
1.42652e-12
1.69719e-12
1.45519e-12
1.71613e-12
1.42715e-12
1.45472e-12
1.71525e-12
1.42062e-12
1.71656e-12
1.69811e-12
1.44094e-12
1.7167e-12
1.4205e-12
1.441e-12
1.4264e-12
1.69694e-12
1.45446e-12
1.71474e-12
1.4546e-12
1.71492e-12
1.42617e-12
1.42134e-12
1.44256e-12
1.71835e-12
1.69855e-12
1.71725e-12
1.4227e-12
1.44154e-12
1.42697e-12
1.69723e-12
1.45588e-12
1.71636e-12
1.45501e-12
1.71533e-12
1.42824e-12
1.42075e-12
1.71656e-12
1.69815e-12
1.44097e-12
1.71676e-12
1.42053e-12
1.44112e-12
1.41935e-12
1.57594e-12
1.65654e-12
1.45702e-12
1.58688e-12
1.43948e-12
1.47759e-12
1.47328e-12
1.77486e-13
1.95344e-13
1.56456e-12
1.56454e-12
1.7748e-13
1.47335e-12
1.47312e-12
1.56447e-12
1.95344e-13
1.77409e-13
1.56446e-12
1.77473e-13
1.4718e-12
1.41126e-12
1.65463e-12
1.58401e-12
1.48478e-12
1.58473e-12
1.41147e-12
1.4833e-12
1.42238e-12
1.57286e-12
1.65381e-12
1.44415e-12
1.58628e-12
1.43553e-12
1.48544e-12
1.47334e-12
1.77486e-13
1.95344e-13
1.56458e-12
1.56457e-12
1.7748e-13
1.47338e-12
1.47317e-12
1.56447e-12
1.95344e-13
1.77406e-13
1.56449e-12
1.77472e-13
1.47184e-12
1.41304e-12
1.65409e-12
1.58403e-12
1.48675e-12
1.58471e-12
1.4121e-12
1.48747e-12
1.35784e-13
1.56699e-12
1.47062e-12
1.47133e-12
1.47229e-12
1.47274e-12
1.35575e-13
1.35432e-13
1.56491e-12
1.77146e-13
1.77148e-13
1.48699e-13
1.47833e-12
1.47847e-12
1.41766e-12
1.70732e-12
1.43776e-12
1.6415e-12
1.44571e-12
1.72935e-12
1.42196e-12
1.41772e-12
1.44031e-12
1.7197e-12
1.70496e-12
1.42009e-12
1.72444e-12
1.43844e-12
1.4229e-12
1.70281e-12
1.45357e-12
1.71788e-12
1.42562e-12
1.45111e-12
1.72263e-12
1.41312e-12
1.63998e-12
1.7095e-12
1.43161e-12
1.73077e-12
1.41943e-12
1.43458e-12
1.44149e-12
1.70445e-12
1.42254e-12
1.62234e-12
1.46496e-12
1.72691e-12
1.40504e-12
1.43034e-12
1.44472e-12
1.72074e-12
1.70565e-12
1.42539e-12
1.72599e-12
1.449e-12
1.43533e-12
1.70298e-12
1.45769e-12
1.71858e-12
1.43074e-12
1.46112e-12
1.7235e-12
1.43735e-12
1.62155e-12
1.7074e-12
1.41625e-12
1.72942e-12
1.40244e-12
1.45486e-12
1.35524e-13
1.4685e-12
1.46937e-12
1.56835e-12
1.3554e-13
1.46756e-12
1.46846e-12
1.35524e-13
1.56458e-12
1.46858e-12
1.46943e-12
1.4676e-12
1.46847e-12
1.35543e-13
1.47553e-12
1.56685e-12
1.35156e-13
1.47126e-12
1.47446e-12
1.56655e-12
1.35191e-13
1.41277e-12
1.47562e-12
1.66495e-12
1.57579e-12
1.41155e-12
1.47726e-12
1.57693e-12
1.42264e-12
1.57062e-12
1.43925e-12
1.6643e-12
1.43584e-12
1.47707e-12
1.57985e-12
1.47563e-12
1.47114e-12
1.56652e-12
1.35197e-13
1.47565e-12
1.56649e-12
1.35196e-13
1.47543e-12
1.56683e-12
1.35157e-13
1.4712e-12
1.47439e-12
1.56648e-12
1.3519e-13
1.41079e-12
1.47354e-12
1.66568e-12
1.5758e-12
1.4108e-12
1.47267e-12
1.57704e-12
1.41907e-12
1.57405e-12
1.45242e-12
1.66759e-12
1.4398e-12
1.46834e-12
1.58061e-12
1.47556e-12
1.47113e-12
1.56654e-12
1.35197e-13
1.47561e-12
1.56647e-12
1.35196e-13
1.56378e-12
1.56577e-12
1.46695e-12
1.46694e-12
1.56506e-12
1.56511e-12
1.47858e-12
1.56342e-12
1.56308e-12
1.48331e-12
1.48329e-12
1.48304e-12
1.56325e-12
1.56323e-12
1.56361e-12
1.46777e-12
1.56492e-12
1.48095e-12
1.56494e-12
1.48071e-12
1.56342e-12
1.56359e-12
1.46777e-12
1.56494e-12
1.48095e-12
1.56495e-12
1.48069e-12
1.56342e-12
1.47562e-12
1.56649e-12
1.35213e-13
1.47112e-12
1.47562e-12
1.56649e-12
1.35213e-13
1.41176e-12
1.47448e-12
1.66167e-12
1.57548e-12
1.4115e-12
1.4742e-12
1.57546e-12
1.41193e-12
1.57545e-12
1.47404e-12
1.66152e-12
1.41202e-12
1.47408e-12
1.57547e-12
1.47562e-12
1.47112e-12
1.5665e-12
1.35197e-13
1.47561e-12
1.56649e-12
1.3521e-13
1.56339e-12
1.56498e-12
1.46794e-12
1.48099e-12
1.56497e-12
1.56341e-12
1.48099e-12
1.56322e-12
1.56304e-12
1.48337e-12
1.48369e-12
1.56303e-12
1.56325e-12
1.48336e-12
1.56338e-12
1.46792e-12
1.56493e-12
1.48099e-12
1.56496e-12
1.5634e-12
1.48101e-12
1.56324e-12
1.48339e-12
1.56302e-12
1.48367e-12
1.56302e-12
1.56323e-12
1.48337e-12
1.56339e-12
1.56498e-12
1.46794e-12
1.48099e-12
1.56497e-12
1.56341e-12
1.48099e-12
1.56322e-12
1.56304e-12
1.48337e-12
1.48369e-12
1.48336e-12
1.56325e-12
1.56303e-12
1.56338e-12
1.46792e-12
1.56493e-12
1.48099e-12
1.56496e-12
1.48101e-12
1.5634e-12
1.56324e-12
1.48339e-12
1.56302e-12
1.48367e-12
1.56323e-12
1.48337e-12
1.56302e-12
1.35641e-13
1.56782e-12
1.34827e-13
1.34831e-13
1.48177e-12
1.48161e-12
8.57856e-14
1.35886e-13
1.56876e-12
1.47159e-12
1.47106e-12
1.47381e-12
1.35582e-13