/*--------------------------------*- C++ -*----------------------------------*\
| =========                 |                                                 |
| \\      /  F ield         | OpenFOAM: The Open Source CFD Toolbox           |
|  \\    /   O peration     | Version:  2412                                  |
|   \\  /    A nd           | Website:  www.openfoam.com                      |
|    \\/     M anipulation  |                                                 |
\*---------------------------------------------------------------------------*/
FoamFile
{
    version     2.0;
    format      ascii;
    arch        "LSB;label=32;scalar=64";
    class       volScalarField;
    location    "0/chip";
    object      cellAspectRatio;
}
// * * * * * * * * * * * * * * * * * * * * * * * * * * * * * * * * * * * * * //

dimensions      [0 0 0 0 0 0 0];

internalField   nonuniform List<scalar> 
7068
(
4
4
4
4
2.66448
2.66481
2.66481
2.66456
4
3.99803
4
4
3.99805
3.99806
4
3.99799
4
4
3.99806
3.99806
4
4
4
3.99665
3.99665
3.99665
3.99665
4
3.99806
3.99806
4
3.99799
4
3.99806
3.99805
3.99803
2.66456
2.66481
2.66481
2.66455
2.66481
2.66481
2.66448
2.66448
2.66448
2.66481
2.66455
2.66481
4.00582
4.00067
4.21878
4.00059
4.00059
4.21925
4.12034
4.00059
4.00075
4.22067
4.21883
4.00059
4.00059
4.22017
3.9994
4
4
3.99963
4
3.99955
3.99955
4.00595
4.00037
4
3.99981
4.00037
4.00583
3.99982
4.12091
4.00059
4.00075
4.22111
4.00595
4
4.00037
3.99981
4.00037
3.99982
4.00582
4.00409
4.00037
4.00037
3.99977
4.00049
4.00567
4.00551
2.3236
4.00289
3.13477
4.23529
4.23505
3.13479
3.13252
4.23659
4.12481
3.13481
3.13477
4.23593
4.23512
3.13481
4.17702
2.66453
2.66453
4.17694
2.66449
4.17702
4.17702
4.20815
2.23875
2.66487
4.17724
2.23876
4.20819
4.17726
3.13266
4.23691
4.12505
3.13481
4.20815
2.66487
2.23875
4.17724
2.23876
4.17726
4.20819
4.21066
2.23875
2.23872
4.17741
1.79114
4.2082
4.2082
4.11932
4.00059
4.00075
4.22028
4.1224
4.00059
4.00073
4.22197
4.00409
4.00037
4.00037
3.99977
4.00049
4.00551
4.00567
4.00694
4.00319
4.15477
4.29094
4.28442
4.14923
4.15831
4.29308
4.28661
4.15267
1.79353
2.66581
2.9865
2.98674
2.24129
2.24132
2.23925
4.21878
4.00059
4.00059
4.21938
4.00595
4.00037
4
3.99981
4.00037
4.00574
3.99982
4.00595
4.00037
4
3.99981
4.00037
4.00582
3.99982
4.28195
4.28985
4.28278
4.28943
4.28193
4.29011
4.28306
4.28942
2.24111
2.66563
2.9868
3.9981
2.24113
2.66559
2.98686
2.24111
2.66564
2.98683
3.9981
2.24115
2.66559
2.98686
4.00566
4.00067
4.00395
4.00037
4.00037
3.99977
4.00049
4.00555
4.00564
4.12147
4.00059
4.00073
4.22133
4.15575
4.29149
4.28499
4.1489
4.00637
4.00294
1.79343
2.6658
2.98658
2.98665
2.2413
2.24131
2.23899
4.15729
4.29254
4.28602
4.14989
4.00595
4.00037
4
3.99981
4.00037
4.00587
3.99982
4.21884
4.00059
4.00059
4.21978
4.00595
4
4.00037
3.99981
4.00037
3.99982
4.00583
4.28204
4.29078
4.2837
4.28955
2.24111
2.66564
2.98686
3.9981
2.24114
2.66559
2.98687
4.28205
4.29036
4.28334
4.28956
2.24111
2.66564
3.9981
2.98684
2.66559
2.24114
2.98686
3.9994
4
4
3.99962
4
3.99955
3.99955
3.9994
4
4
3.99962
4
3.99955
3.99955
3.9994
4
4
3.99963
4
3.99955
3.99955
4.21892
4.00059
4.00059
4.2199
4.00595
4
4.00037
3.99981
4.00037
3.99982
4.00587
4.21893
4.00059
4.00059
4.22017
2.24111
2.66564
2.98685
3.9981
2.24114
2.66559
2.98686
4.28202
4.29059
4.28346
4.28955
2.24111
2.66564
3.9981
2.98686
2.66559
2.24114
2.98687
4.28202
4.29078
4.28368
4.28953
4.00378
4.00037
4.00037
3.99977
4.00049
4.0056
4.00555
4.00528
4.00067
4.12083
4.00059
4.00075
4.22087
4.15658
4.29205
4.28564
4.14999
1.79348
2.66579
2.98657
2.98665
2.24128
2.24132
2.23899
4.00582
4.00292
4.15628
4.29202
4.28533
4.14876
4.00595
4
4.00037
3.99981
4.00037
3.99982
4.00574
4.21888
4.00059
4.00059
4.2195
4.21887
4.00059
4.00059
4.21923
2.24111
2.66564
3.9981
2.98685
2.66559
2.24114
2.98686
2.24111
2.66563
3.9981
2.9868
2.66559
2.24113
2.98686
4.28197
4.2903
4.28318
4.28947
4.28196
4.28986
4.2828
4.28945
4.12235
4.00059
4.00073
4.22192
4.11931
4.00059
4.00075
4.22026
4.00579
4.00067
1.79354
2.66581
2.98673
2.98651
2.24132
2.24128
2.23928
4.15823
4.29308
4.28659
4.15264
4.15476
4.29096
4.28444
4.14919
4.00689
4.00309
3.13256
4.23612
4.1237
3.13481
3.13267
4.23766
4.12675
3.13481
4.21067
2.23872
2.23875
4.17741
1.79113
4.2082
4.2082
3.13477
4.23551
4.23506
3.13479
4.20815
2.23875
2.66487
4.1772
2.23876
4.20819
4.17726
4.20815
2.23875
2.66487
4.1772
2.23876
4.20819
4.17726
2.32361
4.00279
4.21066
2.23875
2.23873
4.17741
1.7911
4.2082
4.2082
3.13267
4.23727
4.12567
3.13481
4.20815
2.23875
2.66487
4.17724
2.23876
4.20819
4.17726
3.13477
4.23565
4.23511
3.13479
4.20815
2.66487
2.23875
4.1772
2.23876
4.17726
4.20819
4.17702
2.66453
2.66453
4.17694
2.66449
4.17702
4.17702
4.17702
2.66453
2.66453
4.17694
2.66449
4.17702
4.17702
4.17702
2.66453
2.66453
4.17694
2.66449
4.17702
4.17702
3.13477
4.23578
4.23512
3.13481
4.20815
2.66487
2.23875
4.17724
2.23876
4.17726
4.20819
3.13477
4.23596
4.23512
3.13481
4.21064
2.23874
2.23874
4.17741
1.79108
4.2082
4.2082
2.32359
4.00211
3.13258
4.23696
4.12548
3.13481
4.20815
2.66487
2.23875
4.1772
2.23876
4.17726
4.20819
3.13477
4.23565
4.23506
3.13479
3.13477
4.23527
4.23501
3.13479
3.13267
4.23768
4.12679
3.13481
3.13252
4.2361
4.1236
3.13481
2.32359
4.00314
2.66658
4
4
2.66657
4
2.66658
2.66658
2.66673
4
4
2.66663
4
2.6667
2.66663
2.66673
4
4
2.66663
4
2.66663
2.6667
2.66668
4
4
2.66662
4
2.6667
2.6667
2.66668
4
4
2.66662
4
2.6667
2.6667
2.66673
4
4
2.66663
2.66663
4
2.6667
2.66673
4
4
2.66663
4
2.6667
2.66663
2.66668
4
4
2.66662
2.6667
4
2.6667
2.66673
4
4
2.66663
2.66663
4
2.6667
2.66673
4
4
2.66663
4
2.66663
2.6667
2.66658
4
4
2.66657
2.66658
4
2.66658
2.66658
4
4
2.66657
2.66658
4
2.66658
2.66658
4
4
2.66657
4
2.66658
2.66658
2.66673
4
4
2.66663
2.6667
4
2.66663
2.66668
4
4
2.66662
2.6667
4
2.6667
2.66673
4
4
2.66663
2.6667
4
2.66663
3.62815
4.00437
2.9887
2.98787
2.98796
2.98695
3.63309
3.62971
2.66895
4.27099
4.27026
4.40728
2.2664
2.26563
4.20133
4.13286
3.97925
4.21886
4.20083
4.13297
3.9794
2.69952
4.26602
4.00059
2.66895
4.26601
2.69952
2.66895
2.69951
2.66895
4.26602
4.00059
4.26601
2.69954
2.66893
4.20227
4.21899
4.13358
3.98158
4.20383
4.1333
3.98001
4.19424
4.0601
3.99733
4.22285
4.06871
4.12246
4.02047
2.69973
4.26612
4.00059
2.66886
4.26605
2.69956
2.66875
2.70026
2.66851
4.26781
4.00059
4.26631
2.69882
2.66863
4.20785
4.22371
4.13382
3.98523
4.20605
4.13279
3.99522
4.20113
4.13292
4.21898
3.97922
4.13304
4.20078
3.97927
2.69951
4.26601
4.00059
2.66895
4.26601
2.6995
2.66895
2.6995
2.66895
4.00059
4.26601
4.26601
2.66893
2.69951
4.20182
4.21938
4.13386
3.98003
4.20309
4.13335
3.97964
2.66658
4
4
2.66658
4
2.66658
2.66658
2.66658
4
4
2.66658
4
2.66658
2.66658
2.66658
2.66658
4
4
4
2.66658
2.66658
2.66699
4
4.00037
2.66766
4
2.66701
2.66768
2.66675
4
4
2.66663
4
2.66663
2.66675
2.66696
2.6677
4.00037
4
4
2.6677
2.66696
4.19045
4.06187
4.22709
4.01213
4.12686
4.07674
4.00277
2.69966
4.26612
4.00059
2.66887
4.26605
2.69953
2.66882
2.70003
2.66866
4.00059
4.26736
4.26615
2.66872
2.69827
4.20607
4.22497
4.13447
3.9821
4.20509
4.13453
3.98594
2.66675
4
4
2.66663
4
2.66663
2.66675
2.66699
4
4.00037
2.66765
4
2.66701
2.66768
2.66696
2.6677
4
4.00037
4
2.66696
2.6677
2.66697
4
4.00037
2.66762
4
2.66701
2.66753
2.66693
4
4.00037
2.66764
4
2.66698
2.66751
2.66693
2.66742
4.00046
4.00046
4
2.6675
2.66743
3.62481
3.99743
5.13904
5.13902
2.26139
2.26113
4.85485
3.62541
3.99981
2.98782
2.987
3.63287
2.98542
2.98478
2.6956
3.99993
5.13746
3.13477
2.6956
3.99993
5.13746
4.20048
3.99022
4.23495
4.18483
3.98873
4.202
4.18477
4.19969
4.18456
3.9882
4.235
3.98827
4.19923
4.18463
2.69561
3.13476
3.99992
5.13757
2.69555
3.99994
5.1376
2.69637
3.99882
5.1379
3.13465
2.69465
3.99948
5.13751
4.2057
3.99296
4.23904
4.18462
4.002
4.20387
4.18196
4.19224
4.07685
3.9952
4.23656
4.02505
4.06598
4.16547
2.69575
3.13474
3.99988
5.13766
2.69561
3.99973
5.13737
2.6956
3.99993
3.13477
5.13746
3.99993
2.6956
5.13746
4.20005
3.9885
4.23547
4.18528
3.98828
4.20128
4.18488
4.19949
4.18457
4.23523
3.98813
3.98821
4.18465
4.19919
2.6956
3.13476
3.99995
5.13757
2.69556
3.99994
5.1376
3.99923
3.99915
4.177
4.177
3.99918
3.99918
4.17692
3.99916
3.99914
4.17695
4.17695
3.99916
3.99916
4.17693
3.99921
4.177
3.99916
4.177
3.99916
3.99918
4.17693
3.99921
4.177
3.99916
4.177
3.99916
3.99918
4.17693
3.99907
4.0008
4.20813
4.1861
4.00085
3.99902
4.18607
3.99938
3.9991
4.17839
4.17724
3.99939
3.99911
4.17839
3.99917
4.20818
4.00078
4.18616
3.99913
4.0009
4.18611
3.99945
4.17838
3.99916
4.17726
3.99916
3.99945
4.17843
2.69609
3.99898
3.13464
5.1379
3.9996
2.69413
5.13765
4.20381
3.99136
4.23985
4.18493
3.99718
4.20303
4.18304
4.18798
4.07786
4.23899
4.0019
4.01599
4.16815
4.07023
2.6957
3.13471
3.99985
5.13766
2.6956
3.99974
5.13753
3.99907
4.0008
4.1861
4.20813
3.99902
4.00085
4.18607
3.99938
3.9991
4.17724
4.17839
3.99911
3.99939
4.17839
3.99945
4.17838
3.99916
4.17726
3.99916
3.99945
4.17843
3.99917
4.20818
4.00078
4.18616
3.99913
4.0009
4.18611
3.99867
3.99862
4.21178
4.21183
4.00013
3.99991
4.19196
3.99926
3.99906
4.17854
4.17858
3.99931
3.99935
4.17936
3.99905
4.20881
4.0007
4.18626
3.99908
4.00057
4.18702
3.99903
4.20878
4.00066
4.18626
3.99908
4.00042
4.18697
4.19379
4.05963
3.99135
4.22045
4.06705
4.12119
4.02263
2.69974
4.26612
4.00059
2.66888
2.69957
4.26605
2.66873
2.7003
2.66849
4.26781
4.00059
2.69881
4.26631
2.66864
4.20795
4.22269
4.13356
3.98595
4.20626
4.13213
3.99683
4.19087
4.06262
4.02171
4.23098
4.07925
4.12867
3.9983
2.6996
4.26612
4.00059
2.66887
2.69953
4.26605
2.66879
2.69996
2.66872
4.26755
4.00059
2.69811
4.2662
2.66872
4.20573
4.22639
4.13468
3.98075
4.20468
4.13539
3.98288
2.66693
4
4.00037
2.66764
4
2.66751
2.66698
2.66697
4
4.00037
2.66762
4
2.66753
2.66701
2.66693
2.66742
4.00046
4.00046
4
2.66743
2.6675
3.63452
2.99008
2.98937
4.00729
3.63379
2.99037
2.98969
3.63452
3.9995
2.9898
2.98903
3.63392
2.9903
2.98956
4.03832
3.95606
4.29013
4.17592
4.01566
3.95971
4.32754
4.02735
3.99841
4.29587
4.294
4.30096
4.01689
4.00871
4.02286
4.28875
3.98694
4.31913
3.99718
4.32432
4.01262
4.04298
4.16236
3.95442
4.29272
3.96114
4.30451
4.02606
4.01398
4.01038
4.30634
4.18018
3.99361
4.03442
4.34682
4.01267
3.99273
4.29852
4.29972
4.30788
4.01092
3.99436
4.00858
4.29452
3.98155
4.32177
3.98405
4.33135
4.00683
4.01721
4.16315
4.01808
4.30872
4.03721
4.32321
4.00273
4.20126
4.13286
3.97928
4.21892
4.20078
4.13297
3.9794
2.69952
4.26601
4.00059
2.66895
2.69949
4.26601
2.66895
2.69951
2.66895
4.26602
4.00059
2.69954
4.26601
2.66893
4.20207
4.21908
4.13356
3.98135
4.20361
4.13322
3.97992
2.66699
4
4.00037
2.66765
2.66768
4
2.66701
2.66675
4
4
2.66663
2.66663
4
2.66675
2.66696
2.6677
4.00037
4
2.6677
4
2.66696
2.66699
4
4.00037
2.66765
4
2.66768
2.66701
2.66675
4
4
2.66663
4
2.66675
2.66663
2.66696
2.6677
4.00037
4
4
2.6677
2.66696
4.00787
3.98102
4.28205
4.31646
3.9812
4.00773
4.31655
4.01223
3.99492
4.29415
4.28959
3.99325
4.01383
4.29363
4.00785
4.28218
3.98301
4.3173
3.98142
4.00951
4.31674
4.01236
4.29338
3.99283
4.28948
3.993
4.01221
4.29345
4.00783
3.98096
4.28204
4.31651
3.98104
4.00777
4.31659
4.01207
3.99402
4.29441
4.28959
4.29374
4.01284
3.99299
4.00767
4.2823
3.98232
4.3176
3.98125
4.31678
4.00848
4.01227
4.29342
3.99281
4.2894
4.01221
4.29354
3.9929
3.62809
4.00437
2.98861
2.98786
2.98797
2.98699
3.63295
3.62978
2.66895
4.2711
4.27016
2.26645
4.40728
2.26561
2.66693
4
4.00037
2.66765
2.66755
4
2.66698
2.66697
4
4.00037
2.66762
2.66701
4
2.66753
2.66693
2.66741
4.00046
4.00046
2.66745
4
2.66751
4.19038
4.06218
4.01569
4.22854
4.07754
4.12755
4.0007
2.69959
4.26612
4.00059
2.66887
4.26605
2.66879
2.69951
2.69996
2.66873
4.26755
4.00059
4.2662
2.69812
2.66872
4.20585
4.22552
4.13462
3.98153
4.13487
3.98463
4.20491
4.02478
3.97067
4.29465
4.1764
4.00873
3.98706
4.33375
4.01929
3.99615
4.29656
4.29567
4.00238
4.01412
4.30292
4.0157
4.29033
3.98515
4.31988
3.99292
4.01015
4.32632
4.02663
4.16164
3.97556
4.29763
4.01527
3.99083
4.3107
3.63398
2.98979
2.98955
4.006
3.63366
2.98992
2.9902
3.63411
3.99964
2.98936
2.98945
2.98965
2.99023
3.63315
4.02651
3.99322
4.30185
4.17889
4.00048
4.0066
4.34063
4.02024
3.99503
4.29786
4.29814
4.30593
4.01383
4.00015
4.01542
4.29302
3.98323
4.3211
3.98826
4.32942
4.00939
4.03136
4.16372
3.99651
4.30372
4.00704
4.31698
4.01266
2.66699
4
4.00037
2.66766
2.66768
4
2.66701
2.66675
4
4
2.66663
2.66663
4
2.66675
2.66696
2.6677
4.00037
4
2.6677
4
2.66696
4.20123
4.13287
3.97926
4.21891
4.20076
4.13298
3.97939
2.69952
4.26601
4.00059
2.66895
2.6995
4.26601
2.66895
2.69951
2.66895
4.26602
4.00059
2.69954
4.26601
2.66893
4.2021
4.21917
4.13386
3.9805
4.2034
4.13334
3.97977
2.66675
4
4
2.66663
4
2.66675
2.66663
2.66699
4
4.00037
2.66765
4
2.66768
2.66701
2.66696
2.6677
4
4.00037
4
2.66696
2.6677
4.00765
4.28216
3.98094
4.31665
3.98091
4.31681
4.00771
4.01162
3.99239
4.29524
4.28992
3.99256
4.01108
4.29416
4.00726
4.28259
3.98075
4.31837
3.98087
4.00677
4.31722
4.01201
4.29354
4.2896
3.99279
3.99275
4.29372
4.0121
4.00778
3.98101
4.2821
4.3166
3.98108
4.00769
4.3167
4.01193
3.99382
4.29473
4.2897
4.29383
4.01275
3.99294
4.00765
4.28241
3.98186
4.3179
3.98121
4.31701
4.00834
4.01211
4.29351
3.99278
4.28952
4.01208
4.29356
3.99288
2.66658
4
4
2.66658
2.66658
4
2.66658
2.66658
4
4
2.66658
2.66658
4
2.66658
2.66658
2.66658
4
4
2.66658
4
2.66658
2.66658
4
4
2.66658
2.66658
4
2.66658
2.66658
4
4
2.66658
2.66658
4
2.66658
2.66658
2.66658
4
4
2.66658
4
2.66658
2.66658
4
4
2.66658
4
2.66658
2.66658
2.66658
4
4
2.66658
4
2.66658
2.66658
2.66658
2.66658
4
4
4
2.66658
2.66658
4.20124
4.13292
4.21899
3.97924
4.13303
4.20083
3.97931
2.69951
4.26602
4.00059
2.66895
2.66895
4.26602
2.69953
2.6995
2.66895
4.00059
4.26601
2.66893
4.26602
2.69951
4.20196
4.21924
4.13387
3.9803
4.13329
4.20334
3.97973
2.66675
4
4
2.66663
2.66675
4
2.66663
2.66699
4
4.00037
2.66766
2.66701
4
2.66768
2.66696
2.6677
4
4.00037
2.66696
4
2.6677
4.20113
4.13292
3.97928
4.21903
4.20077
4.13304
3.9793
2.69951
4.26601
4.00059
2.66895
4.26601
2.66895
2.6995
2.6995
2.66895
4.26602
4.00059
4.26601
2.69954
2.66893
4.20187
4.21938
4.13386
3.98001
4.13335
3.97959
4.20311
4.00767
4.28216
3.98098
4.3166
3.98101
4.31676
4.00762
4.01185
3.99326
4.29497
4.28982
4.01223
4.29401
3.99284
4.00742
4.28252
3.98147
4.31806
4.00774
3.98107
4.31709
4.01206
4.29351
4.28955
3.99275
4.29361
4.0121
3.99283
4.0076
3.98091
4.28216
4.31663
3.98091
4.00766
4.31679
4.0116
3.99239
4.29522
4.28992
4.29416
4.01107
3.99258
4.00726
4.28259
3.9807
4.31839
3.98087
4.31722
4.0068
4.01202
4.29356
3.99273
4.28958
4.01214
4.29374
3.99271
2.66696
4
4.00037
2.66762
2.66749
4
2.66701
2.66693
4
4.00037
2.66765
2.66698
4
2.66754
2.66693
2.66738
4.00046
4.00046
2.66746
4
2.66743
3.62766
4.00402
2.98796
2.98857
2.98704
2.98784
3.63284
3.62905
2.66873
4.27074
4.27059
2.26591
4.40676
2.26618
4.19418
4.06045
4.2242
4.0009
4.12317
4.06947
4.01832
2.69968
4.26612
4.00059
2.66886
4.26605
2.66875
2.69956
2.70026
2.66857
4.00059
4.2675
4.26623
2.66868
2.69864
4.20764
4.22422
4.13394
3.98455
4.13312
3.99391
4.20588
4.03175
4.29918
3.98418
4.17827
4.00415
4.33693
3.99124
4.02411
3.9967
4.29739
4.29692
4.00422
4.01543
4.30455
4.01854
4.29208
3.98429
4.32061
3.99063
4.01074
4.32813
4.03819
4.1638
4.29991
3.98
4.01998
4.31277
3.98858
3.63436
2.98973
2.98964
4.00662
3.6334
2.99034
2.98976
3.63446
3.99955
2.98977
2.98904
2.99034
2.98952
3.63334
4.01965
4.29721
3.97883
4.17713
4.00475
4.33759
4.00253
4.01557
3.99464
4.29707
4.29697
4.30438
4.01266
3.99795
4.01264
4.29124
3.98414
4.3203
3.99045
4.32766
4.00883
4.02044
4.1617
4.30148
3.99203
4.31495
4.0099
4.00786
2.66675
4
4
2.66663
2.66675
4
2.66663
2.66699
4
4.00037
2.66765
2.66701
4
2.66768
2.66696
2.6677
4
4.00037
2.66696
4
2.6677
4.20119
4.13286
4.21893
3.97931
4.13293
4.20077
3.97937
2.69952
4.26601
4.00059
2.66895
2.66895
4.26602
2.69949
2.69954
2.66895
4.00059
4.26601
2.66893
4.26602
2.69951
4.20199
4.21911
4.13363
3.98112
4.13318
4.20351
3.97983
4.20133
4.13286
4.21886
3.97927
4.13297
4.20082
3.97939
2.69952
4.26602
4.00059
2.66895
4.26601
2.66895
2.69949
2.69954
2.66895
4.00059
4.26602
4.26602
2.66893
2.69951
4.20227
4.21899
4.13363
3.98153
4.1333
3.98001
4.20388
4.00781
4.28212
3.98092
4.31654
3.98099
4.3167
4.00776
4.01192
3.9934
4.29462
4.28967
4.01214
4.29386
3.99289
4.00754
4.28238
3.98195
4.31773
4.00794
3.98113
4.31694
4.01218
4.29341
4.28947
3.99282
4.29356
4.01218
3.99285
4.00787
4.28205
3.98097
4.31645
3.9812
4.31655
4.00772
4.01228
3.99488
4.29418
4.28953
4.29368
4.0139
3.99321
4.00785
4.28218
3.98305
4.31728
3.98142
4.31674
4.00949
4.01235
4.29338
4.28943
3.99284
4.2935
4.01221
3.99299
4.19087
4.06262
4.23094
4.0217
4.12867
4.07925
3.99832
2.69959
4.26612
4.00059
2.66887
2.66879
4.26605
2.69954
2.69994
2.66872
4.00059
4.26755
2.66872
4.2662
2.69809
4.20578
4.22636
4.13473
3.98071
4.13544
4.20473
3.98283
4.19379
4.05963
4.22045
3.99139
4.12119
4.06705
4.02263
2.69974
4.26612
4.00059
2.66888
2.66873
4.26605
2.69957
2.70032
2.66849
4.00059
4.26781
2.66864
4.26631
2.69881
4.20795
4.22269
4.13361
3.98593
4.13213
4.20628
3.99683
3.62815
4.00437
2.98787
2.98868
2.98695
2.98796
3.63309
3.62971
2.66895
4.27026
4.27099
4.40728
2.26563
2.2664
4.01395
4.30628
4.01027
4.18013
3.99349
4.34683
4.03438
4.01264
3.99273
4.29852
4.29968
4.01094
4.30783
3.9944
4.00859
4.29448
3.98153
4.32177
4.00676
3.98392
4.33131
4.01723
4.16321
4.30862
4.01794
4.32318
4.03717
4.00283
4.03838
4.29018
3.95612
4.17597
4.01579
4.32769
3.95978
4.02733
3.99839
4.29593
4.29411
4.01693
4.30112
4.00869
4.02297
4.28877
3.98698
4.31913
4.01269
3.99727
4.32442
4.04296
4.16237
4.2928
3.95448
4.30469
3.96128
4.02604
3.63445
2.98937
2.99008
4.00724
3.63379
2.98969
2.99038
3.63445
3.99949
2.9891
2.98979
2.98956
2.99028
3.63375
2.69632
3.99883
5.13807
3.13465
2.69451
3.99947
5.1374
4.20559
3.99419
4.23781
4.18426
4.20402
4.00487
4.18097
4.19126
4.07614
3.98656
4.23336
4.06283
4.02941
4.16338
2.69574
3.13474
3.99988
5.13766
2.69561
3.99973
5.13737
2.69605
3.99902
5.13802
3.13462
2.69414
3.99956
5.13749
4.20374
3.98866
4.24199
4.18566
4.20257
3.99052
4.1848
4.18895
4.07934
4.01887
4.24502
4.07672
4.00475
4.17222
2.69569
3.13471
3.99992
5.13766
2.6956
3.99976
5.13737
3.99867
3.99855
4.21183
4.21178
3.99996
4.00009
4.19196
3.99926
3.99906
4.17858
4.17854
4.17936
3.99935
3.99931
3.99903
4.20878
4.00066
4.18626
4.00045
4.18697
3.99908
3.99905
4.20881
4.0007
4.18626
4.00057
4.18702
3.99908
2.6956
3.99993
5.13746
3.13477
2.6956
3.99993
5.13746
4.20027
3.98985
4.23516
4.18487
4.20172
3.98868
4.18474
4.1996
4.18456
3.98819
4.2351
4.19923
3.98827
4.18464
2.69561
3.13476
3.99992
5.13757
2.69556
3.99994
5.1376
3.99907
4.0008
4.20813
4.1861
4.00085
3.99902
4.18607
3.99938
3.99907
4.17843
4.17724
3.99911
3.99943
4.17839
3.99917
4.20818
4.00078
4.18616
4.0009
3.99913
4.18611
3.99945
4.17838
3.99916
4.17726
3.99916
3.99945
4.17843
3.99907
4.0008
4.20813
4.1861
4.00085
3.99902
4.18607
3.99938
3.99907
4.17843
4.17724
4.17839
3.99943
3.99911
3.99917
4.20818
4.00078
4.18616
4.0009
4.18611
3.99913
3.99945
4.17838
3.99916
4.17726
3.99945
4.17843
3.99916
3.62559
3.99759
5.13922
5.13897
2.26165
2.26092
4.85587
3.62603
4.00012
2.98764
2.98712
2.98562
3.63262
2.98466
3.99863
3.99858
4.21183
4.21178
3.99995
4.00007
4.19196
3.99926
3.99906
4.17858
4.17854
3.99931
3.99935
4.17936
3.99903
4.20878
4.00066
4.18626
4.00045
3.99908
4.18697
3.99903
4.20881
4.0007
4.18626
3.99908
4.00051
4.18702
2.69603
3.99905
5.1379
3.13462
2.69405
3.99959
5.13765
4.20362
3.98992
4.24077
4.18533
3.99332
4.1839
4.20277
4.18801
4.07865
4.01001
4.24164
4.00923
4.07356
4.17021
2.69567
3.13471
3.99992
5.13766
3.9998
5.13753
2.6956
3.99907
4.0008
4.20813
4.1861
4.00085
3.99902
4.18607
3.99938
3.9991
4.17839
4.17724
3.99911
3.99939
4.17839
3.99917
4.20818
4.00078
4.18616
4.0009
3.99913
4.18611
3.99945
4.17838
3.99916
4.17726
3.99916
3.99945
4.17843
2.6956
3.99993
5.13746
3.13477
2.6956
3.99993
5.13746
4.20023
3.98932
4.23526
4.18501
4.20153
3.98857
4.1848
4.19958
4.18457
3.98814
4.23516
4.19921
3.98827
4.18464
2.6956
3.13476
3.99992
5.13757
2.69557
3.99994
5.1376
3.99907
4.0008
4.1861
4.20813
3.99902
4.00085
4.18607
3.99938
3.99907
4.17724
4.17843
4.17839
3.99911
3.99943
3.99945
4.17838
3.99916
4.17726
3.99945
4.17843
3.99916
3.99917
4.20818
4.00078
4.18616
4.0009
4.18611
3.99913
3.99923
3.99915
4.177
4.177
3.99918
3.99918
4.17692
3.99916
3.99914
4.17695
4.17695
3.99916
3.99916
4.17693
3.99921
4.177
3.99916
4.177
3.99918
3.99916
4.17693
3.99921
4.177
3.99916
4.177
3.99916
3.99918
4.17693
3.99923
3.99915
4.177
4.177
3.99918
3.99918
4.17692
3.99916
3.99914
4.17695
4.17695
3.99916
3.99916
4.17693
3.99921
4.177
3.99916
4.177
3.99918
3.99916
4.17693
3.99921
4.177
3.99916
4.177
3.99916
3.99918
4.17693
3.99923
3.99915
4.177
4.177
3.99918
3.99918
4.17692
3.99916
3.99914
4.17695
4.17695
4.17693
3.99916
3.99916
3.99921
4.177
3.99916
4.177
3.99918
4.17693
3.99916
3.99921
4.177
3.99916
4.177
3.99918
4.17693
3.99916
2.6956
3.99993
3.13477
5.13746
3.99993
2.6956
5.13746
4.20019
3.98893
4.2353
4.18516
4.18482
3.98836
4.20142
4.19955
4.18457
4.23517
3.98815
4.18465
3.98821
4.19919
2.6956
3.13476
3.99995
5.13757
3.99994
2.69556
5.1376
3.99907
4.0008
4.1861
4.20813
3.99902
4.00085
4.18607
3.99938
3.9991
4.17724
4.17839
3.99939
3.99911
4.17839
3.99945
4.17838
3.99916
4.17726
3.99945
3.99916
4.17843
3.99917
4.20818
4.00078
4.18616
3.99913
4.0009
4.18611
2.6956
3.99993
5.13746
3.13477
2.6956
3.99993
5.13746
4.20005
3.98854
4.23547
4.18528
3.98828
4.18488
4.20127
4.19949
4.18457
3.98812
4.23524
3.9882
4.19919
4.18465
2.6956
3.13476
3.99995
5.13757
3.99994
5.1376
2.69556
3.99863
3.99855
4.21177
4.21179
4.00004
3.99997
4.19191
3.99926
3.99906
4.17858
4.17854
3.99931
3.99935
4.17936
3.99903
4.20876
4.0007
4.18626
4.00052
3.99908
4.18697
3.99903
4.20878
4.0007
4.18626
3.99908
4.00049
4.18697
3.62551
3.99749
5.13886
5.13922
2.26087
2.26166
4.85587
3.62584
3.99978
2.98748
2.98736
2.98478
3.63203
2.98542
2.69632
3.99878
3.13463
5.13798
3.99953
2.69457
5.13751
4.20556
3.99156
4.23995
4.18491
3.99813
4.18288
4.20362
4.19225
4.07758
4.23926
4.0033
4.01802
4.16753
4.06923
2.69575
3.13474
3.99985
5.13766
3.99973
5.13737
2.69561
3.99907
4.0008
4.1861
4.20813
3.99902
4.00085
4.18607
3.99938
3.99907
4.17724
4.17843
3.99943
3.99911
4.17839
3.99945
4.17838
3.99916
4.17726
3.99945
3.99916
4.17843
3.99917
4.20818
4.00078
4.18616
3.99913
4.0009
4.18611
2.6956
3.99993
3.13477
5.13746
3.99993
2.6956
5.13746
4.20017
3.98937
4.23528
4.18501
4.1848
3.98854
4.20158
4.19951
4.18456
4.23516
3.98816
4.18464
3.98829
4.1992
2.69561
3.13476
3.99992
5.13757
3.99994
2.69555
5.1376
2.6956
3.99993
3.13477
5.13746
3.99993
2.6956
5.13746
4.20044
3.99014
4.23495
4.18483
3.98875
4.18477
4.202
4.19969
4.18456
4.235
3.98815
3.98826
4.18463
4.19923
2.69561
3.13476
3.99992
5.13757
3.99994
5.1376
2.69556
2.69604
3.99905
3.13466
5.1379
3.99953
2.69404
5.13765
4.20362
3.98873
4.24198
4.18568
4.18481
3.9906
4.20252
4.18874
4.07936
4.24499
4.01865
4.17211
4.00488
4.07638
2.69562
3.13471
3.99991
5.13766
3.99975
2.69557
5.13753
2.69632
3.99872
3.13465
5.1379
3.99946
2.69463
5.13751
4.20573
3.99411
4.23779
4.18426
4.181
4.00472
4.20407
4.19156
4.07603
4.2333
3.98674
4.16341
4.02928
4.06323
2.69583
3.13474
3.99988
5.13766
3.99976
2.69562
5.13737
3.6255
3.99764
5.13897
5.13922
2.26092
2.26165
4.85587
3.62591
4.00021
2.98698
2.98783
3.63291
2.9846
2.98559
4
4
4
4
4
4
4
4
4
4
4
4
4
4
4
4
4
4
4
4
4
4
4
4
4
4
4
4
4
4
4
4
4
4
4
4
4
4
4
4
4
4
4
4
4
4
4
4
4
4
4
4
4
4
4
4
4
4
4
4
4
4
4
4
4
4
4
4
4
4
4
4
4
4
4
4
4
4
4
4
4
4
4
4
4
4
4
4
4
4
4
4
4
4
4
4
4
4
4
4
4
4
4
4
4
4
4
4
4
4
4
4
4.00294
4.00076
4.00133
4.00143
4.00153
4.00241
4.00278
4.00273
4.0015
4.00059
4.00038
4.0015
4.00273
4.00038
4.00273
4.00038
4.0015
4.00059
4.0015
4.00273
4.00038
4.00258
4.0015
4.00059
4.00038
4.0015
4.00265
4.00038
4.00248
4.00077
4.00129
4.00076
4.00149
4.00243
4.00063
4.00273
4.0015
4.00059
4.00038
4.0015
4.00273
4.00038
4.00273
4.00038
4.00059
4.0015
4.0015
4.00038
4.00273
4
4
4
4
4
4
4
4
4
4
4
4
4
4
4
4
4
4
4
4
4
4.00003
4.00026
4.00037
4.00084
4.00026
4.00003
4.00084
4
4
4
4
4
4
4
4.00003
4.00084
4.00037
4.00026
4.00026
4.00084
4.00003
4.00265
4.0015
4.00059
4.00038
4.0015
4.00265
4.00038
4.00257
4.00077
4.00076
4.00137
4.00145
4.00053
4.00252
4
4
4
4
4
4
4
4.00003
4.00026
4.00037
4.00084
4.00026
4.00003
4.00084
4.00003
4.00084
4.00026
4.00037
4.00026
4.00003
4.00084
4.00003
4.00026
4.00037
4.00084
4.00026
4.00003
4.00084
4.00003
4.00026
4.00037
4.00084
4.00026
4.00003
4.00077
4.00017
4.00059
4.00047
4.00047
4.00017
4.00061
4.00053
4.00258
4.0015
4.00059
4.00038
4.00265
4.0015
4.00045
4.00248
4.00077
4.00129
4.00076
4.00243
4.00149
4.00063
4.00265
4.0015
4.00059
4.00038
4.00265
4.0015
4.00038
4.00252
4.00084
4.0014
4.00076
4.00275
4.00149
4.00059
4.00003
4.00026
4.00037
4.00084
4.00026
4.00077
4.00003
4.00003
4.00026
4.00037
4.00084
4.00026
4.00084
4.00003
4.00017
4.00059
4.00047
4.00047
4.00017
4.00053
4.00061
4.00273
4.0015
4.00059
4.00038
4.00273
4.0015
4.00038
4.00273
4.00038
4.0015
4.00059
4.00273
4.0015
4.00038
4.00003
4.00026
4.00037
4.00084
4.00084
4.00026
4.00003
4
4
4
4
4
4
4
4.00003
4.00084
4.00037
4.00026
4.00084
4.00026
4.00003
4.00003
4.00026
4.00037
4.00084
4.00026
4.00084
4.00003
4
4
4
4
4
4
4
4.00003
4.00084
4.00037
4.00026
4.00026
4.00084
4.00003
4.00294
4.00076
4.00133
4.00143
4.00241
4.00153
4.00278
4.00003
4.00026
4.00037
4.00084
4.00084
4.00026
4.00003
4.00003
4.00026
4.00037
4.00084
4.00003
4.00026
4.00084
4.00013
4.00059
4.00047
4.00047
4.00053
4.00013
4.00061
4.00265
4.0015
4.00059
4.00038
4.0015
4.00038
4.00265
4.00253
4.00075
4.0014
4.00076
4.00149
4.00266
4.00046
4.00003
4.00026
4.00037
4.00084
4.00084
4.00026
4.00003
4
4
4
4
4
4
4
4.00003
4.00084
4.00037
4.00026
4.00084
4.00026
4.00003
4.00273
4.0015
4.00059
4.00038
4.00273
4.0015
4.00038
4.00273
4.00038
4.0015
4.00059
4.00273
4.0015
4.00038
4
4
4
4
4
4
4
4.00003
4.00026
4.00037
4.00084
4.00026
4.00084
4.00003
4.00003
4.00084
4.00026
4.00037
4.00026
4.00003
4.00084
4
4
4
4
4
4
4
4
4
4
4
4
4
4
4
4
4
4
4
4
4
4
4
4
4
4
4
4
4
4
4
4
4
4
4
4
4
4
4
4
4
4
4
4
4
4
4
4
4
4
4
4
4
4
4
4
4
4
4
4
4
4
4
4.00273
4.0015
4.00059
4.00038
4.00038
4.0015
4.00273
4.00273
4.00038
4.00059
4.0015
4.00038
4.0015
4.00273
4
4
4
4
4
4
4
4.00003
4.00026
4.00037
4.00084
4.00003
4.00026
4.00084
4.00003
4.00084
4.00026
4.00037
4.00003
4.00026
4.00084
4.00273
4.0015
4.00059
4.00038
4.0015
4.00038
4.00273
4.00273
4.00038
4.0015
4.00059
4.0015
4.00273
4.00038
4.00003
4.00026
4.00037
4.00084
4.00084
4.00026
4.00003
4.00003
4.00026
4.00037
4.00084
4.00003
4.00026
4.00084
4.00013
4.00059
4.00047
4.00047
4.00059
4.00013
4.00053
4.00262
4.00067
4.00133
4.00136
4.00252
4.00144
4.00257
4.00258
4.0015
4.00059
4.00038
4.0015
4.00038
4.00265
4.00257
4.00077
4.00076
4.00137
4.00145
4.00063
4.00258
4
4
4
4
4
4
4
4.00003
4.00026
4.00037
4.00084
4.00003
4.00026
4.00084
4.00003
4.00084
4.00026
4.00037
4.00003
4.00026
4.00084
4.00273
4.0015
4.00059
4.00038
4.00038
4.0015
4.00273
4.00273
4.00038
4.00059
4.0015
4.00038
4.0015
4.00273
4.00273
4.0015
4.00059
4.00038
4.0015
4.00038
4.00273
4.00273
4.00038
4.00059
4.0015
4.0015
4.00038
4.00273
4.00265
4.0015
4.00059
4.00038
4.00038
4.0015
4.00265
4.00252
4.00084
4.00076
4.0014
4.00059
4.00149
4.00275
4.00258
4.0015
4.00059
4.00038
4.00045
4.0015
4.00265
4.00248
4.00077
4.00076
4.00129
4.00063
4.00149
4.00243
4.00294
4.00076
4.00143
4.00133
4.00153
4.00278
4.00241
4
4
4
4
4
4
4
4
4
4
4
4
4
4
4
4
4
4
4
4
4
4
4
4
4.00007
4
4
4.00007
4
4
4
4
4
4
4
4
4.00007
4
4
4
4.00007
4
4
4
4
4
4
4
4
4
4
4
4.00007
4
4
4.00007
4
4.00007
4
4
4
4
4.00007
4
4
4
4.00007
4
4
4.00007
4
4
4
4.00007
4
4
4.00007
4
4.00009
4
4
4
4.00007
4.00007
4
4
4
4.00007
4
4
4.00007
4
4
4
4.00007
4
4
4.00007
4
4.00009
4
4
4
4.00007
4.00007
4
4
4
4.00007
4
4
4.00007
4
4
4
4
4
4
4
4
4.00007
4
4
4
4.00007
4
4
4
4
4.00007
4
4
4.00007
4
4
4
4
4
4
4
4
4.00007
4
4
4
4.00007
4
4
4
4
4.00007
4
4
4.00007
4
4
4.00007
4
4
4
4.00007
4
4.00009
4
4
4
4.00007
4.00007
4
4
4
4.00007
4
4
4.00007
4
4
4
4
4
4
4
4
4.00007
4
4
4
4.00007
4
4
4
4
4
4
4
4
4
4
4
4.00007
4
4
4.00007
4
4.00007
4
4
4
4
4.00007
4
4
4
4
4
4
4
4
4
4
4
4
4
4
4
4
4
4
4
4
4
4
4
4
4
4
4
4
4
4
4
4
4
4
4
4
4
4
4
4
4
4
4
4
4
4
4
4
4
4
4
4
4
4
4
4
4
4
4
4
4
4
4
4
4
4
4
4
4
4
4
4
4.00007
4
4
4
4.00007
4
4.00007
4
4
4
4
4.00007
4
4
4
4.00007
4
4
4.00007
4
4
4.00007
4
4
4
4.00007
4
4.00009
4
4
4
4.00007
4.00007
4
4
4
4
4
4
4
4
4
4.00007
4
4
4
4.00007
4
4.00007
4
4
4
4
4.00007
4.00256
4.37051
4.36714
3.62947
4.00326
4.37027
4.36776
4.00409
3.63148
4.37525
4.37225
4.37398
4.37067
4.00522
4.00625
3.62976
4.37314
4.37157
4.00351
4.25534
4.25262
4.00431
4.01778
4.2758
3.93199
3.9202
4.01789
4.00358
4.00514
4.01818
4.27474
3.93124
3.91902
4.01842
4.00401
4.00628
3.64945
4.28955
4.2884
4.10594
4.10515
4.02867
4.00341
4.01801
4.26602
3.93003
3.93003
4.01801
4.00334
4.00273
4.00059
4.0015
4.00038
4.00273
4.0015
4.00038
4.00341
3.92996
4.26602
4.01801
3.92999
4.00332
4.01801
4.00332
4.01801
4.26602
3.92996
3.92996
4.01801
4.00332
4.00273
4.00059
4.0015
4.00038
4.00273
4.0015
4.00038
4.00332
3.92996
4.26601
4.01801
3.92996
4.00332
4.01801
4.00349
4.01801
4.26611
3.9299
3.92986
4.01791
4.00332
4.00258
4.00059
4.00143
4.00057
4.00254
4.0015
4.00038
4.00332
3.92997
4.26604
4.01791
3.92993
4.00334
4.01791
4.00322
4.01793
4.26698
3.93062
3.93068
4.01784
4.00347
4.00253
4.00068
4.00143
4.00045
4.00252
4.00156
4.00048
4.00327
3.93014
4.26647
4.01784
3.93022
4.0033
4.01781
4.00332
4.01801
4.26601
3.92999
3.92999
4.01801
4.00325
4.00273
4.00059
4.0015
4.00038
4.00273
4.0015
4.00038
4.00332
3.92996
4.26601
4.01801
3.92996
4.00332
4.01801
4.00273
4.00059
4.0015
4.00038
4.00273
4.0015
4.00038
4.00332
4.01801
4.26601
3.92996
3.92996
4.01801
4.00332
4.00332
3.92996
4.01801
4.26601
4.00332
3.92996
4.01801
4
4
4
4
4
4
4
4
4
4
4
4
4
4
4
4
4
4
4
4
4
4
4
4
4
4
4
4
4
4
4
4
4
4
4
4
4
4
4
4
4
4
4
4
4
4
4
4
4
4
4
4
4
4
4
4
4
4
4
4
4
4
4
4.00018
4.00026
4
4.00003
4
4.00026
4.00025
4.00003
4.00037
4.00026
4.00084
4.00003
4.00026
4.00084
4.00018
4
4
4.00026
4
4.00018
4.00026
4
4
4
4
4
4
4
4
4
4
4.00007
4.00007
4
4
4
4.00007
4
4
4
4.00007
4