/*--------------------------------*- C++ -*----------------------------------*\
| =========                 |                                                 |
| \\      /  F ield         | OpenFOAM: The Open Source CFD Toolbox           |
|  \\    /   O peration     | Version:  2412                                  |
|   \\  /    A nd           | Website:  www.openfoam.com                      |
|    \\/     M anipulation  |                                                 |
\*---------------------------------------------------------------------------*/
FoamFile
{
    version     2.0;
    format      ascii;
    arch        "LSB;label=32;scalar=64";
    class       volScalarField;
    location    "0/chip";
    object      cellVolumeRatio;
}
// * * * * * * * * * * * * * * * * * * * * * * * * * * * * * * * * * * * * * //

dimensions      [0 0 0 0 0 0 0];

internalField   nonuniform List<scalar> 
7068
(
1
1
1
1
0.124897
0.124871
0.124871
0.12485
1
0.996448
1
1
0.996394
0.996399
1
0.996447
1
1
0.996399
0.996401
1
1
1
0.999726
0.999726
0.999727
0.999726
1
0.996399
0.996399
1
0.996449
1
0.996399
0.996394
0.996444
0.12485
0.124871
0.124871
0.12485
0.124871
0.124871
0.124897
0.124897
0.124897
0.124871
0.12485
0.124871
0.937947
0.99982
0.899601
0.99972
0.99972
0.899665
0.904147
0.99972
0.99976
0.899355
0.899555
0.99972
0.99972
0.899184
0.124889
1
1
0.124891
1
0.124892
0.124892
0.124922
0.99984
1
0.124875
0.99984
0.124925
0.124874
0.906167
0.99972
0.99974
0.898873
0.124922
1
0.99984
0.124875
0.99984
0.124874
0.124926
0.124925
0.99984
0.99984
0.124867
0.99978
0.124924
0.124917
0.122583
0.937747
0.129496
0.13263
0.132583
0.129497
0.129461
0.132688
0.127917
0.129493
0.129496
0.132632
0.132585
0.129493
0.949305
0.124903
0.124903
0.949292
0.124909
0.949289
0.949289
0.937979
0.124753
0.124875
0.949221
0.124756
0.93799
0.949236
0.129459
0.132702
0.128155
0.129493
0.937979
0.124875
0.124753
0.949221
0.124756
0.949236
0.93799
0.93382
0.124748
0.124746
0.949158
0.124703
0.937979
0.937988
0.904173
0.99972
0.99976
0.89967
0.906337
0.99972
0.99974
0.898472
0.124925
0.99984
0.99984
0.124867
0.99978
0.124917
0.124924
0.936396
0.939616
0.128821
0.135384
0.135641
0.127961
0.130105
0.135338
0.135615
0.129246
0.124785
0.124867
0.135384
0.135338
0.124809
0.124812
0.127961
0.899592
0.99972
0.99972
0.899561
0.124922
0.99984
1
0.124876
0.99984
0.124924
0.124874
0.124922
0.99984
1
0.124875
0.99984
0.124927
0.124874
0.135428
0.135254
0.135519
0.135141
0.135429
0.135243
0.135512
0.13514
0.124809
0.124872
0.135181
0.996361
0.124809
0.124874
0.135141
0.124809
0.124872
0.135179
0.99636
0.124809
0.124874
0.13514
0.937955
0.99982
0.124924
0.99984
0.99984
0.124867
0.99978
0.124919
0.124922
0.906254
0.99972
0.99974
0.898733
0.129183
0.135363
0.135635
0.128399
0.936508
0.939815
0.124782
0.124867
0.135363
0.13536
0.12481
0.124811
0.128399
0.129746
0.13536
0.135628
0.128803
0.124922
0.99984
1
0.124875
0.99984
0.124927
0.124874
0.899573
0.99972
0.99972
0.899338
0.124922
1
0.99984
0.124875
0.99984
0.124874
0.124925
0.135429
0.135231
0.135503
0.135142
0.124809
0.124871
0.135173
0.996362
0.124809
0.124874
0.135142
0.135429
0.135246
0.135509
0.135143
0.124809
0.124872
0.996361
0.135179
0.124874
0.124809
0.135143
0.124889
1
1
0.124891
1
0.124892
0.124892
0.124889
1
1
0.124891
1
0.124892
0.124892
0.124889
1
1
0.124891
1
0.124892
0.124892
0.899564
0.99972
0.99972
0.899293
0.124922
1
0.99984
0.124875
0.99984
0.124874
0.124927
0.899555
0.99972
0.99972
0.899193
0.124809
0.124872
0.135177
0.996361
0.124809
0.124874
0.135143
0.13543
0.135243
0.135507
0.135143
0.124809
0.124871
0.996362
0.135173
0.124874
0.124809
0.135144
0.13543
0.135231
0.135504
0.135144
0.124922
0.99984
0.99984
0.124866
0.99978
0.124923
0.12492
0.93804
0.99982
0.904283
0.99972
0.99974
0.899184
0.129537
0.135375
0.135631
0.128469
0.124785
0.124866
0.135375
0.135353
0.12481
0.12481
0.128469
0.936643
0.939768
0.12939
0.135353
0.135627
0.128736
0.124922
1
0.99984
0.124876
0.99984
0.124874
0.124924
0.899573
0.99972
0.99972
0.899485
0.899583
0.99972
0.99972
0.899664
0.124809
0.124872
0.996361
0.135175
0.124874
0.124809
0.13514
0.124809
0.124872
0.996361
0.135182
0.124874
0.124809
0.13514
0.135432
0.135235
0.135509
0.13514
0.135431
0.135254
0.135517
0.13514
0.906356
0.99972
0.99974
0.898471
0.904172
0.99972
0.99976
0.89967
0.937956
0.99982
0.124785
0.124867
0.135337
0.135387
0.124812
0.124809
0.127964
0.130105
0.135337
0.135616
0.12924
0.12882
0.135387
0.13564
0.127964
0.936414
0.939609
0.129463
0.132687
0.12769
0.129493
0.129461
0.132699
0.12861
0.129493
0.933839
0.124746
0.124748
0.949158
0.124703
0.937988
0.937979
0.129496
0.132628
0.132583
0.129497
0.937979
0.124753
0.124875
0.949221
0.124756
0.93799
0.949236
0.937979
0.124753
0.124875
0.949221
0.124756
0.93799
0.949236
0.122586
0.937764
0.933829
0.124747
0.124747
0.949158
0.124702
0.937988
0.937979
0.129462
0.132701
0.128379
0.129493
0.937979
0.124753
0.124875
0.949221
0.124756
0.93799
0.949236
0.129496
0.132631
0.132586
0.129497
0.937979
0.124875
0.124753
0.949221
0.124756
0.949236
0.93799
0.949305
0.124903
0.124903
0.949292
0.124909
0.949289
0.949289
0.949305
0.124903
0.124903
0.949292
0.124909
0.949289
0.949289
0.949305
0.124903
0.124903
0.949292
0.124909
0.949289
0.949289
0.129496
0.132634
0.132585
0.129493
0.937979
0.124875
0.124753
0.949221
0.124756
0.949236
0.93799
0.129496
0.132631
0.132585
0.129493
0.93382
0.124747
0.124747
0.949158
0.124702
0.937979
0.937979
0.122587
0.937889
0.12946
0.132689
0.128142
0.129493
0.937979
0.124875
0.124753
0.949221
0.124756
0.949236
0.93799
0.129496
0.132628
0.132585
0.129497
0.129496
0.132632
0.132584
0.129497
0.129462
0.132697
0.128601
0.129493
0.129462
0.132689
0.127694
0.129493
0.122586
0.937705
0.124995
1
1
0.124996
1
0.124995
0.124995
0.124987
0.99998
1
0.124993
0.99998
0.124988
0.124992
0.124987
1
0.99998
0.124993
0.99998
0.124992
0.124988
0.124981
0.99998
0.99998
0.12499
0.99996
0.124986
0.124986
0.124981
0.99998
0.99998
0.12499
0.99996
0.124986
0.124986
0.124987
0.99998
1
0.124993
0.124992
0.99998
0.124988
0.124987
0.99998
1
0.124993
0.99998
0.124988
0.124992
0.124981
0.99998
0.99998
0.12499
0.124986
0.99996
0.124986
0.124987
0.99998
1
0.124993
0.124992
0.99998
0.124988
0.124987
1
0.99998
0.124993
0.99998
0.124992
0.124988
0.124995
1
1
0.124996
0.124995
1
0.124995
0.124995
1
1
0.124996
0.124995
1
0.124995
0.124995
1
1
0.124996
1
0.124995
0.124995
0.124987
1
0.99998
0.124993
0.124988
0.99998
0.124992
0.124981
0.99998
0.99998
0.12499
0.124986
0.99996
0.124986
0.124987
1
0.99998
0.124993
0.124988
0.99998
0.124992
0.710035
0.939566
0.129916
0.129939
0.129847
0.12989
0.709253
0.709419
0.12484
0.850615
0.850641
0.695842
0.122647
0.122683
0.891923
0.891978
0.899601
0.899613
0.891978
0.891923
0.899613
0.131132
0.852237
0.99972
0.124856
0.852238
0.131133
0.124856
0.131133
0.124856
0.852238
0.99972
0.852238
0.131135
0.124857
0.891783
0.899635
0.891613
0.899665
0.891613
0.891783
0.899635
0.896226
0.912562
0.904147
0.896703
0.912562
0.896226
0.896703
0.131126
0.852204
0.99974
0.124857
0.852158
0.131131
0.124857
0.131118
0.124869
0.851845
0.99974
0.852142
0.131106
0.12486
0.891391
0.89851
0.891389
0.899355
0.891389
0.891391
0.89851
0.891922
0.891968
0.899516
0.899555
0.891922
0.891968
0.899516
0.131133
0.852238
0.99972
0.124856
0.852238
0.131134
0.124856
0.131132
0.124856
0.99972
0.852238
0.852238
0.124857
0.131134
0.891789
0.899424
0.891541
0.899184
0.891541
0.891789
0.899424
0.124995
1
1
0.124995
1
0.124995
0.124995
0.124995
1
1
0.124995
1
0.124995
0.124995
0.124995
0.124995
1
1
1
0.124995
0.124995
0.124978
0.99998
0.99984
0.124943
0.99998
0.124975
0.124942
0.124986
1
0.99998
0.124993
0.99998
0.124993
0.124986
0.124979
0.124941
0.99984
0.99998
0.99998
0.124941
0.124979
0.895067
0.913527
0.894177
0.906167
0.895067
0.913527
0.894177
0.131129
0.852204
0.99976
0.124858
0.852158
0.131136
0.124857
0.131128
0.124864
0.99976
0.851938
0.852144
0.12486
0.131115
0.890862
0.897539
0.891136
0.898873
0.891136
0.890862
0.897539
0.124986
1
0.99998
0.124993
0.99998
0.124993
0.124986
0.124978
0.99998
0.99984
0.124943
0.99998
0.124975
0.124942
0.124979
0.124941
0.99998
0.99984
0.99998
0.124979
0.124941
0.12497
0.99998
0.9999
0.124942
1
0.124972
0.124936
0.12497
0.99998
0.99988
0.124942
1
0.124973
0.124934
0.12496
0.124922
0.99986
0.99988
0.99996
0.124929
0.124931
0.709372
0.941565
0.706048
0.706001
0.122672
0.122674
0.647531
0.709962
0.939224
0.129893
0.12992
0.709295
0.129872
0.129888
0.129795
0.93912
0.705968
0.129496
0.129795
0.93912
0.705951
0.896086
0.887295
0.132598
0.125716
0.887249
0.895931
0.125714
0.896207
0.125718
0.887187
0.132588
0.887207
0.896261
0.125717
0.129796
0.129496
0.939104
0.705928
0.129787
0.939119
0.705931
0.129771
0.938526
0.706485
0.129479
0.129748
0.939183
0.705962
0.895496
0.886971
0.132856
0.125735
0.886306
0.895649
0.125826
0.899713
0.125299
0.899001
0.13277
0.885485
0.913995
0.125989
0.129783
0.129492
0.939099
0.7059
0.129789
0.939132
0.705952
0.129795
0.93912
0.129496
0.705968
0.93912
0.129795
0.705951
0.896072
0.886753
0.132598
0.12572
0.887016
0.895803
0.125716
0.896215
0.125718
0.132588
0.88715
0.88712
0.125718
0.896269
0.129796
0.129496
0.939104
0.705914
0.12979
0.93912
0.705931
0.124909
0.124911
0.949312
0.949312
0.124911
0.124911
0.949348
0.124897
0.124901
0.949309
0.949309
0.124899
0.124899
0.949335
0.124903
0.949315
0.124906
0.949296
0.124906
0.124904
0.949341
0.124903
0.949315
0.124906
0.949296
0.124906
0.124904
0.949341
0.124756
0.124883
0.937998
0.947286
0.124882
0.124757
0.947295
0.124886
0.124873
0.948905
0.949237
0.124887
0.124871
0.948911
0.124753
0.937996
0.124877
0.947289
0.124755
0.124879
0.947313
0.124893
0.948921
0.124875
0.949233
0.124876
0.124893
0.94891
0.129779
0.938546
0.129485
0.706451
0.939167
0.129757
0.705974
0.895272
0.88673
0.132894
0.125734
0.885722
0.89556
0.125837
0.899219
0.125416
0.132875
0.89975
0.884085
0.126033
0.914828
0.129785
0.129492
0.939109
0.705886
0.129788
0.939128
0.70598
0.124756
0.124883
0.947286
0.937998
0.124757
0.124882
0.947295
0.124886
0.124873
0.949237
0.948905
0.124871
0.124887
0.948911
0.124893
0.948921
0.124875
0.949233
0.124876
0.124893
0.94891
0.124753
0.937996
0.124877
0.947289
0.124755
0.124879
0.947313
0.124703
0.124862
0.937266
0.937332
0.12481
0.124803
0.945515
0.124877
0.12485
0.948862
0.948862
0.124862
0.124863
0.948585
0.124762
0.937898
0.124869
0.947246
0.124748
0.12487
0.94698
0.124761
0.937908
0.124865
0.947246
0.124746
0.124867
0.94698
0.896675
0.912685
0.904173
0.898192
0.912685
0.896675
0.898192
0.131124
0.852204
0.99974
0.124856
0.131131
0.852158
0.12486
0.131117
0.124867
0.851845
0.99974
0.131106
0.852142
0.124858
0.891669
0.899269
0.891461
0.89967
0.891461
0.891669
0.899269
0.894425
0.913409
0.906337
0.891953
0.913409
0.894425
0.891953
0.13113
0.852204
0.99976
0.124858
0.131136
0.852158
0.12486
0.131123
0.12487
0.851822
0.99976
0.131117
0.852125
0.124864
0.890539
0.896458
0.891077
0.898472
0.891077
0.890539
0.896458
0.12497
0.99998
0.99988
0.124942
1
0.124934
0.124973
0.12497
0.99998
0.9999
0.124942
1
0.124936
0.124972
0.12496
0.124922
0.99988
0.99986
0.99996
0.124931
0.124929
0.709303
0.130041
0.130058
0.935716
0.709199
0.130117
0.130137
0.709298
0.937997
0.130032
0.130054
0.709337
0.130111
0.130137
0.834782
0.880871
0.135965
0.12941
0.85951
0.866064
0.137749
0.828773
0.849154
0.136927
0.135722
0.137336
0.828375
0.849563
0.832844
0.135921
0.85774
0.137165
0.857989
0.137556
0.832524
0.831199
0.128732
0.878654
0.135552
0.8649
0.137293
0.8521
0.819741
0.881486
0.136189
0.130941
0.846736
0.866245
0.137952
0.822111
0.846852
0.136843
0.135671
0.137224
0.825777
0.843685
0.825989
0.13591
0.855476
0.137112
0.852176
0.137493
0.829863
0.816437
0.130204
0.879464
0.135725
0.865536
0.137415
0.839172
0.89194
0.891987
0.899592
0.899575
0.891987
0.89194
0.899575
0.131132
0.852238
0.99972
0.124856
0.131131
0.852238
0.124856
0.131133
0.124856
0.852238
0.99972
0.131135
0.852238
0.124857
0.891818
0.899592
0.891632
0.899561
0.891632
0.891818
0.899592
0.124978
0.99998
0.99984
0.124943
0.124942
0.99998
0.124975
0.124986
1
0.99998
0.124993
0.124993
0.99998
0.124986
0.124979
0.124941
0.99984
0.99998
0.124941
0.99998
0.124979
0.124978
0.99998
0.99984
0.124943
0.99998
0.124942
0.124975
0.124986
1
0.99998
0.124993
0.99998
0.124986
0.124993
0.124979
0.124941
0.99984
0.99998
0.99998
0.124941
0.124979
0.83176
0.857177
0.135439
0.13686
0.857191
0.831712
0.136874
0.827682
0.84883
0.13676
0.135181
0.848689
0.827952
0.136672
0.831892
0.135464
0.857468
0.13699
0.857287
0.832131
0.136909
0.82757
0.13662
0.848641
0.135153
0.848646
0.827546
0.136637
0.831721
0.857178
0.13544
0.136859
0.857151
0.831695
0.136871
0.827591
0.848593
0.136743
0.135179
0.13666
0.827615
0.848597
0.831775
0.135462
0.857235
0.13698
0.857186
0.136904
0.831784
0.82755
0.13662
0.84864
0.135152
0.827527
0.136631
0.848618
0.710053
0.939562
0.129915
0.12994
0.129848
0.129888
0.709299
0.709405
0.124839
0.850581
0.85066
0.122645
0.695842
0.122684
0.12497
0.99998
0.99986
0.124941
0.124936
1
0.124973
0.12497
0.99998
0.9999
0.124942
0.124972
1
0.124936
0.12496
0.124926
0.99988
0.99986
0.12493
0.99996
0.124928
0.894836
0.913551
0.906254
0.893332
0.913551
0.894836
0.893332
0.131129
0.852204
0.99974
0.124858
0.852158
0.12486
0.131133
0.131121
0.124871
0.851821
0.99974
0.852125
0.131111
0.124861
0.890745
0.897091
0.891106
0.898733
0.890745
0.897091
0.891106
0.829526
0.881237
0.136017
0.129994
0.856082
0.866919
0.137826
0.8264
0.848465
0.136893
0.135701
0.847758
0.827465
0.137301
0.830536
0.135917
0.857138
0.137145
0.856424
0.83165
0.137536
0.825674
0.129339
0.879461
0.135604
0.848007
0.866073
0.137354
0.709428
0.130039
0.130074
0.935978
0.709304
0.130131
0.130129
0.709397
0.938264
0.13004
0.130052
0.130139
0.130113
0.709256
0.825003
0.88112
0.136139
0.130362
0.850149
0.865419
0.137881
0.824448
0.847526
0.136875
0.135696
0.137269
0.826675
0.845432
0.828277
0.135924
0.856062
0.137133
0.853654
0.13752
0.830738
0.821921
0.1296
0.878685
0.135676
0.864376
0.137362
0.843228
0.124978
0.99998
0.99984
0.124943
0.124942
0.99998
0.124975
0.124986
1
0.99998
0.124993
0.124993
0.99998
0.124986
0.124979
0.124941
0.99984
0.99998
0.124941
0.99998
0.124979
0.891939
0.891986
0.899573
0.899562
0.891986
0.891939
0.899562
0.131135
0.852238
0.99972
0.124856
0.131134
0.852238
0.124856
0.131133
0.124856
0.852238
0.99972
0.131135
0.852238
0.124857
0.89178
0.899508
0.891533
0.899338
0.891533
0.89178
0.899508
0.124986
1
0.99998
0.124993
0.99998
0.124986
0.124993
0.124978
0.99998
0.99984
0.124943
0.99998
0.124942
0.124975
0.124979
0.124941
0.99998
0.99984
0.99998
0.124979
0.124941
0.831598
0.135434
0.857117
0.136859
0.857085
0.136871
0.831636
0.827319
0.847981
0.13672
0.135173
0.848376
0.826974
0.136655
0.831484
0.135457
0.856597
0.136966
0.856958
0.831106
0.136902
0.827423
0.136621
0.135152
0.848566
0.848514
0.136634
0.827464
0.83168
0.857109
0.135437
0.136861
0.857115
0.831654
0.136871
0.82756
0.84846
0.136747
0.135179
0.136666
0.82753
0.848558
0.831694
0.135461
0.856948
0.136981
0.857078
0.136904
0.831643
0.827536
0.136621
0.848575
0.135153
0.827489
0.136634
0.848577
0.124995
1
1
0.124995
0.124995
1
0.124995
0.124995
1
1
0.124995
0.124995
1
0.124995
0.124995
0.124995
1
1
0.124995
1
0.124995
0.124995
1
1
0.124995
0.124995
1
0.124995
0.124995
1
1
0.124995
0.124995
1
0.124995
0.124995
0.124995
1
1
0.124995
1
0.124995
0.124995
1
1
0.124995
1
0.124995
0.124995
0.124995
1
1
0.124995
1
0.124995
0.124995
0.124995
0.124995
1
1
1
0.124995
0.124995
0.891922
0.891959
0.899543
0.899564
0.891922
0.891959
0.899543
0.131131
0.852238
0.99972
0.124856
0.124856
0.852237
0.131133
0.13113
0.124856
0.99972
0.852238
0.124857
0.852237
0.131134
0.891799
0.899487
0.89152
0.899293
0.891799
0.89152
0.899487
0.124986
1
0.99998
0.124993
0.124986
0.99998
0.124993
0.124978
0.99998
0.99984
0.124943
0.124975
0.99998
0.124942
0.124979
0.124941
0.99998
0.99984
0.124979
0.99998
0.124941
0.891922
0.891968
0.899555
0.899516
0.891968
0.891922
0.899516
0.131131
0.852238
0.99972
0.124856
0.852238
0.124856
0.131131
0.131132
0.124856
0.852238
0.99972
0.852238
0.131135
0.124857
0.89178
0.899433
0.891532
0.899193
0.89178
0.899433
0.891532
0.831645
0.135438
0.857108
0.13686
0.857079
0.136872
0.831661
0.827458
0.848223
0.136738
0.135177
0.82729
0.136661
0.84846
0.831606
0.135459
0.856836
0.136977
0.831456
0.857025
0.136905
0.827492
0.13662
0.135152
0.848575
0.136635
0.827481
0.84855
0.831598
0.857116
0.135434
0.13686
0.857085
0.831636
0.136872
0.827327
0.847981
0.136721
0.135173
0.136655
0.826975
0.848367
0.831484
0.135457
0.856597
0.136965
0.856958
0.136902
0.831107
0.827432
0.13662
0.848566
0.135153
0.827463
0.136632
0.848507
0.124968
0.99998
0.9999
0.124942
0.124936
1
0.124972
0.12497
0.99998
0.99986
0.124941
0.124973
1
0.124938
0.12496
0.124928
0.99986
0.99988
0.124929
0.99996
0.124931
0.710055
0.939623
0.129948
0.129914
0.129876
0.129851
0.709391
0.70946
0.124836
0.850623
0.850575
0.122665
0.69583
0.122659
0.895932
0.91253
0.895838
0.904283
0.895932
0.91253
0.895838
0.131129
0.852204
0.99974
0.124857
0.852158
0.12486
0.131131
0.131124
0.124867
0.99974
0.851841
0.852125
0.124856
0.131105
0.891302
0.898171
0.891362
0.899184
0.891302
0.898171
0.891362
0.828012
0.136109
0.881029
0.130047
0.852114
0.137844
0.865286
0.825983
0.848099
0.1369
0.13571
0.846861
0.827252
0.1373
0.829623
0.135923
0.856421
0.13715
0.854604
0.831254
0.137538
0.825391
0.129245
0.135633
0.878151
0.846464
0.137337
0.863966
0.709378
0.130056
0.130045
0.935887
0.709337
0.130116
0.130133
0.709383
0.93811
0.130045
0.130052
0.130114
0.130136
0.709338
0.826472
0.136054
0.881401
0.130311
0.854142
0.137864
0.867022
0.824781
0.847887
0.136874
0.135687
0.137269
0.826844
0.846302
0.829162
0.135913
0.856776
0.137129
0.855575
0.137519
0.831124
0.82207
0.129696
0.135646
0.880004
0.137374
0.866348
0.844798
0.124986
1
0.99998
0.124993
0.124986
0.99998
0.124993
0.124978
0.99998
0.99984
0.124943
0.124975
0.99998
0.124942
0.124979
0.124941
0.99998
0.99984
0.124979
0.99998
0.124941
0.891941
0.891987
0.899575
0.899573
0.891941
0.891987
0.899575
0.131132
0.852238
0.99972
0.124856
0.124856
0.852237
0.131134
0.131132
0.124856
0.99972
0.852238
0.124857
0.852237
0.131134
0.891827
0.89957
0.891633
0.899485
0.891827
0.891633
0.89957
0.891923
0.891978
0.899613
0.899583
0.891923
0.891978
0.899613
0.131134
0.852237
0.99972
0.124856
0.852238
0.124856
0.131132
0.131135
0.124856
0.99972
0.852238
0.852238
0.124857
0.131131
0.891783
0.899635
0.891612
0.899664
0.891783
0.899635
0.891612
0.83166
0.13544
0.857142
0.13686
0.857125
0.136871
0.831678
0.827512
0.848379
0.13673
0.135175
0.827401
0.136656
0.848517
0.831671
0.135461
0.857107
0.136972
0.83161
0.857133
0.136902
0.827532
0.136619
0.135151
0.848624
0.13663
0.827528
0.848586
0.83176
0.135439
0.857159
0.13686
0.857191
0.136874
0.831712
0.827681
0.84884
0.136759
0.135182
0.136671
0.827944
0.848688
0.831892
0.135464
0.85746
0.136991
0.857287
0.136909
0.832131
0.827578
0.136619
0.135154
0.848641
0.136635
0.827546
0.848639
0.894425
0.913409
0.891971
0.906356
0.894425
0.913409
0.891971
0.131129
0.852204
0.99974
0.124858
0.12486
0.852158
0.131134
0.131123
0.12487
0.99974
0.851822
0.124864
0.852125
0.131116
0.890538
0.896457
0.891076
0.898471
0.890538
0.891076
0.896457
0.896675
0.912685
0.898192
0.904172
0.896675
0.912685
0.898192
0.131124
0.852204
0.99976
0.124856
0.12486
0.852158
0.131131
0.131115
0.124867
0.99976
0.851845
0.124858
0.852141
0.131107
0.891669
0.899269
0.89146
0.89967
0.891669
0.89146
0.899269
0.710035
0.939566
0.129939
0.129918
0.12989
0.129847
0.709253
0.709419
0.12484
0.850625
0.850615
0.695842
0.122683
0.122647
0.819765
0.136192
0.881513
0.130941
0.84677
0.137948
0.866253
0.822135
0.846852
0.136843
0.135669
0.825776
0.137219
0.843684
0.826005
0.13591
0.855476
0.137112
0.82987
0.852185
0.137491
0.816468
0.130202
0.135721
0.879446
0.13741
0.865518
0.839179
0.834725
0.135963
0.880879
0.129413
0.859493
0.137754
0.866057
0.828708
0.849137
0.136927
0.135726
0.828358
0.137345
0.849529
0.832803
0.13592
0.857731
0.137165
0.832516
0.857981
0.137558
0.831117
0.128739
0.135555
0.878679
0.137303
0.864875
0.852091
0.70927
0.130058
0.13004
0.935735
0.709199
0.130134
0.130119
0.70927
0.938018
0.130053
0.130038
0.13013
0.130119
0.709187
0.129771
0.938533
0.706485
0.129479
0.129748
0.939173
0.70598
0.895897
0.887349
0.132847
0.125732
0.895778
0.887269
0.125824
0.900487
0.125249
0.898836
0.132719
0.914187
0.887503
0.125985
0.129778
0.129492
0.939099
0.7059
0.129788
0.939132
0.705969
0.129778
0.93854
0.706484
0.129486
0.129755
0.939177
0.70599
0.894582
0.88604
0.132907
0.125736
0.895291
0.884126
0.125834
0.897798
0.125522
0.900574
0.132981
0.914713
0.880517
0.126045
0.129782
0.129492
0.93909
0.705886
0.12979
0.939137
0.705982
0.124703
0.124862
0.937313
0.937275
0.124805
0.124809
0.945515
0.124877
0.12485
0.948862
0.948862
0.948585
0.124863
0.124862
0.124761
0.937908
0.124865
0.947246
0.124867
0.94698
0.124746
0.124762
0.937898
0.124869
0.947246
0.12487
0.94698
0.124748
0.129795
0.93912
0.705968
0.129496
0.129795
0.93912
0.705951
0.896094
0.887136
0.132596
0.125719
0.895916
0.887178
0.125717
0.896197
0.125718
0.887187
0.132586
0.896261
0.887187
0.125719
0.129796
0.129496
0.939104
0.705928
0.129788
0.939119
0.705931
0.124756
0.124883
0.937998
0.947286
0.124881
0.124757
0.947295
0.124886
0.124872
0.948905
0.949237
0.124871
0.124888
0.948911
0.124753
0.937996
0.124877
0.947289
0.124879
0.124754
0.947313
0.124893
0.948921
0.124875
0.949233
0.124876
0.124893
0.94891
0.124756
0.124883
0.937998
0.947286
0.124881
0.124757
0.947295
0.124886
0.124872
0.948905
0.949237
0.948911
0.124888
0.124871
0.124753
0.937996
0.124877
0.947289
0.124879
0.947313
0.124755
0.124893
0.948921
0.124875
0.949233
0.124893
0.94891
0.124876
0.709283
0.94157
0.706052
0.705952
0.122665
0.12268
0.647503
0.70993
0.939197
0.129894
0.129919
0.129862
0.709291
0.129893
0.124702
0.124862
0.937323
0.937294
0.124804
0.124807
0.945524
0.124877
0.12485
0.948862
0.948862
0.124862
0.124863
0.948585
0.124762
0.937908
0.124867
0.947246
0.124868
0.124747
0.94698
0.124762
0.937898
0.124868
0.947246
0.124747
0.124869
0.94697
0.129777
0.938544
0.706452
0.129486
0.129759
0.939167
0.70596
0.894929
0.886385
0.1329
0.125737
0.885026
0.125834
0.895391
0.898535
0.125474
0.900356
0.132931
0.882477
0.914869
0.126039
0.129787
0.129492
0.93909
0.705886
0.939128
0.705966
0.12979
0.124756
0.124883
0.937998
0.947286
0.124882
0.124757
0.947295
0.124886
0.124873
0.948905
0.949237
0.124871
0.124887
0.948911
0.124753
0.937996
0.124877
0.947289
0.124879
0.124755
0.947313
0.124893
0.948921
0.124875
0.949233
0.124876
0.124893
0.94891
0.129795
0.93912
0.705968
0.129496
0.129795
0.93912
0.705951
0.896069
0.887021
0.132599
0.125719
0.895869
0.887107
0.125717
0.896197
0.125718
0.88715
0.132589
0.89626
0.887142
0.125719
0.129796
0.129496
0.939104
0.705914
0.129788
0.939119
0.705931
0.124756
0.124883
0.947286
0.937998
0.124757
0.124881
0.947295
0.124886
0.124872
0.949237
0.948905
0.948911
0.124871
0.124888
0.124893
0.948921
0.124875
0.949233
0.124893
0.94891
0.124876
0.124753
0.937996
0.124877
0.947289
0.124879
0.947313
0.124755
0.124909
0.124911
0.949312
0.949312
0.124911
0.124911
0.949348
0.124897
0.124901
0.949309
0.949309
0.124899
0.124899
0.949335
0.124903
0.949315
0.124906
0.949296
0.124904
0.124906
0.949341
0.124903
0.949315
0.124906
0.949296
0.124906
0.124904
0.949341
0.124909
0.124911
0.949312
0.949312
0.124911
0.124911
0.949348
0.124897
0.124901
0.949309
0.949309
0.124899
0.124899
0.949335
0.124903
0.949315
0.124906
0.949296
0.124904
0.124906
0.949341
0.124903
0.949315
0.124906
0.949296
0.124906
0.124904
0.949341
0.124909
0.124911
0.949312
0.949312
0.124911
0.124911
0.949348
0.124897
0.124901
0.949309
0.949309
0.949335
0.124899
0.124899
0.124903
0.949315
0.124906
0.949296
0.124904
0.949341
0.124906
0.124903
0.949315
0.124906
0.949296
0.124904
0.949341
0.124906
0.129795
0.93912
0.129496
0.705968
0.93912
0.129795
0.705951
0.896067
0.886893
0.132598
0.12572
0.125716
0.887096
0.895813
0.896205
0.125718
0.132588
0.887141
0.125719
0.88714
0.896269
0.129796
0.129496
0.939105
0.705914
0.939119
0.12979
0.705931
0.124756
0.124883
0.947286
0.937998
0.124757
0.124882
0.947295
0.124886
0.124873
0.949237
0.948905
0.124887
0.124871
0.948911
0.124893
0.948921
0.124875
0.949233
0.124893
0.124876
0.94891
0.124753
0.937996
0.124877
0.947289
0.124755
0.124879
0.947313
0.129795
0.93912
0.705968
0.129496
0.129795
0.93912
0.705951
0.896072
0.886752
0.132598
0.12572
0.887016
0.125716
0.895802
0.896215
0.125718
0.88715
0.132588
0.88712
0.896269
0.125718
0.129796
0.129496
0.939104
0.705914
0.93912
0.705931
0.12979
0.124702
0.124864
0.937304
0.937313
0.124806
0.124805
0.945534
0.124877
0.12485
0.948862
0.948862
0.124862
0.124863
0.948585
0.124762
0.937899
0.124868
0.947246
0.12487
0.124747
0.94698
0.124762
0.937899
0.124868
0.947246
0.124747
0.124869
0.94698
0.709324
0.941589
0.705951
0.706025
0.122681
0.122664
0.647485
0.70993
0.939256
0.129911
0.129899
0.129897
0.70936
0.129866
0.129774
0.938542
0.12948
0.706479
0.939183
0.129748
0.705965
0.895169
0.886657
0.132867
0.125731
0.885618
0.125822
0.895549
0.898982
0.125353
0.132829
0.899656
0.883901
0.125994
0.914045
0.12978
0.129492
0.939109
0.7059
0.939132
0.705969
0.129788
0.124756
0.124883
0.947286
0.937998
0.124757
0.124881
0.947295
0.124886
0.124872
0.949237
0.948905
0.124888
0.124871
0.948911
0.124893
0.948921
0.124875
0.949233
0.124893
0.124876
0.94891
0.124753
0.937996
0.124877
0.947289
0.124754
0.124879
0.947313
0.129795
0.93912
0.129496
0.705968
0.93912
0.129795
0.705951
0.896091
0.887002
0.132598
0.125719
0.125717
0.887106
0.895882
0.896215
0.125718
0.132589
0.88716
0.125719
0.887132
0.896269
0.129796
0.129496
0.939104
0.705928
0.939119
0.129787
0.705931
0.129795
0.93912
0.129496
0.705968
0.93912
0.129795
0.705951
0.896095
0.887295
0.132598
0.125716
0.88724
0.125714
0.89593
0.896207
0.125718
0.132588
0.887187
0.887207
0.125717
0.896261
0.129796
0.129496
0.939104
0.705928
0.939119
0.705931
0.129788
0.129776
0.938544
0.129485
0.706452
0.939184
0.12976
0.70596
0.894592
0.886033
0.132906
0.125734
0.125833
0.8841
0.895302
0.897826
0.125522
0.132977
0.900564
0.126045
0.880499
0.914733
0.129788
0.129493
0.939099
0.705886
0.939139
0.129791
0.705966
0.129769
0.938549
0.129479
0.706485
0.939187
0.129745
0.705976
0.895861
0.887366
0.132848
0.125732
0.125828
0.887295
0.895758
0.900477
0.125247
0.132724
0.898862
0.125983
0.887539
0.914193
0.129781
0.129492
0.939099
0.7059
0.939104
0.12979
0.705939
0.709352
0.941572
0.705938
0.706052
0.122685
0.122664
0.647503
0.709974
0.939177
0.12992
0.1299
0.709193
0.12989
0.129866
0.124996
1
1
0.124996
1
0.124996
0.124996
0.124993
1
1
0.124993
1
0.124993
0.124993
0.124993
1
1
0.124993
1
0.124993
0.124993
0.12499
1
1
0.12499
1
0.12499
0.12499
0.12499
1
1
0.12499
1
0.12499
0.12499
0.124993
1
1
0.124993
0.124993
1
0.124993
0.124993
1
1
0.124993
1
0.124993
0.124993
0.12499
1
1
0.12499
0.12499
1
0.12499
0.124993
1
1
0.124993
0.124993
1
0.124993
0.124993
1
1
0.124993
1
0.124993
0.124993
0.124996
1
1
0.124996
0.124996
1
0.124996
0.124996
1
1
0.124996
0.124996
1
0.124996
0.124996
1
1
0.124996
1
0.124996
0.124996
0.124993
1
1
0.124993
0.124993
1
0.124993
0.12499
1
1
0.12499
0.12499
1
0.12499
0.124993
1
1
0.124993
0.124993
1
0.124993
0.12492
0.12484
0.996398
0.996358
0.996318
0.124885
0.124897
0.124943
0.996517
0.99972
0.124856
0.996517
0.124943
0.124856
0.124943
0.124856
0.996517
0.99972
0.996517
0.124943
0.124856
0.12494
0.996517
0.99972
0.124857
0.996537
0.124942
0.124857
0.124934
0.124879
0.996418
0.99974
0.996418
0.124931
0.124869
0.124943
0.996517
0.99972
0.124856
0.996517
0.124943
0.124856
0.124943
0.124856
0.99972
0.996517
0.996517
0.124856
0.124943
0.124995
1
1
0.124995
1
0.124995
0.124995
0.124995
1
1
0.124995
1
0.124995
0.124995
0.124995
0.124995
1
1
1
0.124995
0.124995
0.124943
0.99988
0.99984
0.124971
0.99988
0.124943
0.124971
0.124993
1
1
0.124993
1
0.124993
0.124993
0.124941
0.124968
0.99984
0.99988
0.99988
0.124968
0.124941
0.124943
0.996517
0.99972
0.124858
0.996517
0.124943
0.124858
0.124939
0.124879
0.99972
0.996418
0.996498
0.124864
0.124936
0.124993
1
1
0.124993
1
0.124993
0.124993
0.124943
0.99988
0.99984
0.124971
0.99988
0.124943
0.124971
0.124941
0.124968
0.99988
0.99984
0.99988
0.124941
0.124968
0.124942
0.99988
0.99984
0.124969
0.99988
0.124942
0.124969
0.124942
0.99988
0.99986
0.124969
0.99988
0.124942
0.124967
0.124922
0.124955
0.99984
0.99986
0.99994
0.124945
0.124942
0.124939
0.996517
0.99972
0.124856
0.124941
0.996517
0.124859
0.124932
0.124877
0.996418
0.99974
0.12493
0.996418
0.124867
0.124943
0.996517
0.99972
0.124858
0.124943
0.996517
0.124858
0.124938
0.124873
0.996478
0.99974
0.12493
0.996498
0.12487
0.124942
0.99988
0.99986
0.124969
0.99988
0.124967
0.124942
0.124942
0.99988
0.99984
0.124969
0.99988
0.124969
0.124942
0.124922
0.124955
0.99986
0.99984
0.99994
0.124942
0.124945
0.124943
0.996517
0.99972
0.124856
0.124943
0.996517
0.124856
0.124943
0.124856
0.996517
0.99972
0.124943
0.996517
0.124856
0.124943
0.99988
0.99984
0.124971
0.124971
0.99988
0.124943
0.124993
1
1
0.124993
0.124993
1
0.124993
0.124941
0.124968
0.99984
0.99988
0.124968
0.99988
0.124941
0.124943
0.99988
0.99984
0.124971
0.99988
0.124971
0.124943
0.124993
1
1
0.124993
1
0.124993
0.124993
0.124941
0.124968
0.99984
0.99988
0.99988
0.124968
0.124941
0.124919
0.124839
0.996378
0.996378
0.124884
0.996318
0.124896
0.124941
0.99988
0.99984
0.124968
0.124968
0.99988
0.124941
0.124942
0.99988
0.99984
0.124969
0.124942
0.99988
0.124969
0.124926
0.124956
0.99986
0.99984
0.124944
0.99992
0.124946
0.124943
0.996517
0.99972
0.124858
0.996537
0.124858
0.124943
0.124944
0.124879
0.996478
0.99974
0.996498
0.124936
0.124871
0.124943
0.99988
0.99984
0.124971
0.124971
0.99988
0.124943
0.124993
1
1
0.124993
0.124993
1
0.124993
0.124941
0.124968
0.99984
0.99988
0.124968
0.99988
0.124941
0.124943
0.996517
0.99972
0.124856
0.124943
0.996517
0.124856
0.124943
0.124856
0.996517
0.99972
0.124943
0.996517
0.124856
0.124993
1
1
0.124993
1
0.124993
0.124993
0.124943
0.99988
0.99984
0.124971
0.99988
0.124971
0.124943
0.124941
0.124968
0.99988
0.99984