/*--------------------------------*- C++ -*----------------------------------*\
| =========                 |                                                 |
| \\      /  F ield         | OpenFOAM: The Open Source CFD Toolbox           |
|  \\    /   O peration     | Version:  2412                                  |
|   \\  /    A nd           | Website:  www.openfoam.com                      |
|    \\/     M anipulation  |                                                 |
\*---------------------------------------------------------------------------*/
FoamFile
{
    version     2.0;
    format      ascii;
    arch        "LSB;label=32;scalar=64";
    class       volScalarField;
    location    "0/chip";
    object      faceWeight;
}
// * * * * * * * * * * * * * * * * * * * * * * * * * * * * * * * * * * * * * //

dimensions      [0 0 0 0 0 0 0];

internalField   nonuniform List<scalar> 
7068
(
0.5
0.5
0.5
0.5
0.333109
0.333085
0.333085
0.333066
0.5
0.499928
0.5
0.5
0.499924
0.499922
0.5
0.499928
0.5
0.5
0.499922
0.499922
0.5
0.5
0.5
0.499922
0.499922
0.499922
0.49997
0.5
0.499933
0.499948
0.5
0.499928
0.5
0.499931
0.499948
0.499928
0.333066
0.333085
0.333085
0.333066
0.333085
0.333085
0.333109
0.333109
0.333109
0.333085
0.333066
0.333085
0.485286
0.499975
0.470946
0.499985
0.499985
0.470962
0.475196
0.499985
0.499978
0.470885
0.470936
0.499985
0.499985
0.470852
0.49997
0.5
0.5
0.49997
0.5
0.499965
0.499965
0.499756
0.499977
0.5
0.499968
0.499977
0.499753
0.49997
0.475084
0.499985
0.499978
0.470778
0.499756
0.5
0.499977
0.499968
0.499977
0.49997
0.499753
0.499854
0.499977
0.499977
0.499961
0.499992
0.49976
0.499769
0.327771
0.485278
0.327187
0.467656
0.467628
0.327198
0.327248
0.46758
0.473848
0.327188
0.327187
0.467524
0.467618
0.327184
0.5
0.333115
0.333115
0.499996
0.333121
0.499999
0.499999
0.498731
0.33299
0.333088
0.499987
0.333
0.498736
0.499991
0.327253
0.467516
0.473741
0.327188
0.498731
0.333088
0.33299
0.499987
0.333
0.499991
0.498733
0.498906
0.332986
0.332984
0.499987
0.332974
0.498737
0.498737
0.475343
0.499985
0.499978
0.470958
0.474886
0.499985
0.499975
0.470685
0.492882
0.499977
0.499977
0.499961
0.49997
0.486422
0.486346
0.484864
0.485423
0.469027
0.45784
0.459894
0.468594
0.467949
0.457317
0.4594
0.467569
0.333224
0.333141
0.349696
0.349911
0.333186
0.333188
0.340362
0.470945
0.499985
0.499985
0.470939
0.486507
0.499977
0.5
0.499968
0.499977
0.486476
0.49997
0.486507
0.499977
0.5
0.499968
0.499977
0.486478
0.49997
0.459875
0.457825
0.459905
0.457802
0.459875
0.457766
0.459849
0.457802
0.33317
0.333121
0.349336
0.499922
0.333173
0.333113
0.34931
0.33317
0.33312
0.349334
0.499922
0.333174
0.333113
0.349306
0.48529
0.499975
0.493654
0.499977
0.499977
0.499961
0.49997
0.486406
0.499763
0.475008
0.499997
0.499975
0.470742
0.468744
0.457684
0.459759
0.468307
0.484876
0.48543
0.333223
0.333141
0.349761
0.349536
0.333187
0.333187
0.340303
0.342296
0.349536
0.35078
0.340303
0.486503
0.499977
0.5
0.499968
0.499977
0.486456
0.49997
0.47094
0.499985
0.499985
0.470888
0.486506
0.5
0.499977
0.499968
0.499977
0.49997
0.486461
0.45986
0.457616
0.459704
0.457781
0.333169
0.333121
0.349343
0.499922
0.333173
0.333113
0.349315
0.459859
0.457728
0.459788
0.457782
0.333169
0.33312
0.499922
0.349338
0.333113
0.333173
0.349311
0.49997
0.5
0.5
0.49997
0.5
0.499965
0.499965
0.49997
0.5
0.5
0.49997
0.5
0.499965
0.499965
0.49997
0.5
0.5
0.49997
0.5
0.499965
0.499965
0.470936
0.499997
0.499997
0.470878
0.499756
0.5
0.499977
0.499968
0.499977
0.49997
0.499751
0.470935
0.499997
0.499997
0.470853
0.333169
0.333121
0.349344
0.499922
0.333173
0.333113
0.349308
0.350519
0.3494
0.350613
0.349308
0.333169
0.333121
0.499922
0.349343
0.333113
0.333173
0.349308
0.350519
0.349398
0.350625
0.349308
0.493155
0.499977
0.499977
0.499961
0.49997
0.486363
0.499767
0.485307
0.49998
0.475126
0.499997
0.49998
0.470846
0.468401
0.457592
0.459612
0.468072
0.333223
0.33314
0.349801
0.349515
0.333187
0.333188
0.340218
0.4849
0.485418
0.341904
0.349515
0.350743
0.340218
0.499756
0.5
0.499977
0.499968
0.499977
0.49997
0.499758
0.47094
0.499997
0.499997
0.470918
0.470941
0.499997
0.499997
0.470962
0.33317
0.33312
0.499922
0.349337
0.333113
0.333173
0.349302
0.33317
0.333121
0.499922
0.349336
0.333113
0.333173
0.3493
0.350518
0.349384
0.3506
0.349302
0.350516
0.349374
0.35058
0.3493
0.474891
0.499997
0.499978
0.470684
0.475343
0.499997
0.49998
0.470958
0.485288
0.49998
0.333224
0.333141
0.349546
0.349494
0.333188
0.333186
0.339636
0.342654
0.349546
0.350803
0.340627
0.341337
0.349494
0.350696
0.339636
0.484868
0.485425
0.327251
0.467672
0.474039
0.327188
0.327253
0.467354
0.473445
0.327188
0.500595
0.332984
0.332986
0.499987
0.332975
0.499999
0.499999
0.327187
0.467617
0.467628
0.327198
0.5
0.33299
0.333088
0.499992
0.333
0.500001
0.499991
0.5
0.33299
0.333088
0.499992
0.333
0.499999
0.499991
0.327767
0.48528
0.498906
0.332984
0.332985
0.499987
0.332975
0.499999
0.498737
0.327256
0.346807
0.33995
0.327188
0.5
0.33299
0.333088
0.499987
0.333
0.500001
0.499991
0.327187
0.46759
0.467618
0.327198
0.5
0.333088
0.33299
0.499992
0.333
0.499991
0.499999
0.5
0.333115
0.333115
0.500001
0.333121
0.5
0.5
0.5
0.333115
0.333115
0.500001
0.333121
0.5
0.5
0.5
0.333115
0.333115
0.499996
0.333121
0.499999
0.499999
0.327187
0.346707
0.346651
0.327184
0.498731
0.333088
0.33299
0.499987
0.333
0.499991
0.498736
0.327187
0.346715
0.346651
0.327184
0.498906
0.332985
0.332985
0.499987
0.332975
0.499999
0.498737
0.327763
0.485291
0.327247
0.346783
0.339701
0.327188
0.498731
0.333088
0.33299
0.499992
0.333
0.499991
0.498733
0.327187
0.346695
0.34665
0.327198
0.327187
0.346679
0.346648
0.327198
0.327256
0.346827
0.340186
0.327188
0.327247
0.346736
0.339238
0.327188
0.327767
0.485271
0.333324
0.5
0.5
0.333325
0.5
0.333324
0.333324
0.33332
0.5
0.5
0.333323
0.5
0.333321
0.333323
0.33332
0.5
0.5
0.333323
0.5
0.333323
0.333321
0.333318
0.5
0.5
0.333321
0.5
0.33332
0.33332
0.333318
0.5
0.5
0.333321
0.5
0.33332
0.33332
0.33332
0.5
0.5
0.333323
0.333323
0.5
0.333321
0.33332
0.5
0.5
0.333323
0.5
0.333321
0.333323
0.333318
0.5
0.5
0.333321
0.33332
0.5
0.33332
0.33332
0.5
0.5
0.333323
0.333323
0.5
0.333321
0.33332
0.5
0.5
0.333323
0.5
0.333323
0.333321
0.333324
0.5
0.5
0.333325
0.333324
0.5
0.333324
0.333324
0.5
0.5
0.333325
0.333324
0.5
0.333324
0.333324
0.5
0.5
0.333325
0.5
0.333324
0.333324
0.33332
0.5
0.5
0.333323
0.333321
0.5
0.333323
0.333318
0.5
0.5
0.333321
0.33332
0.5
0.33332
0.33332
0.5
0.5
0.333323
0.333321
0.5
0.333323
0.499561
0.485969
0.327077
0.327165
0.327205
0.327264
0.499933
0.499505
0.333264
0.499982
0.499968
0.511056
0.327906
0.327916
0.499994
0.476965
0.470946
0.470947
0.476965
0.495249
0.470947
0.328553
0.499998
0.499985
0.333226
0.5
0.328563
0.333226
0.328557
0.333226
0.5
0.499985
0.5
0.328568
0.333227
0.491008
0.470953
0.476933
0.470962
0.476933
0.495243
0.470953
0.498571
0.480021
0.475196
0.470707
0.480021
0.495437
0.470707
0.328558
0.500002
0.499985
0.333226
0.500001
0.328554
0.33322
0.328573
0.333251
0.499812
0.499983
0.499999
0.328715
0.333239
0.490915
0.470698
0.4769
0.470885
0.4769
0.495236
0.470698
0.499989
0.476961
0.470925
0.470936
0.49525
0.476961
0.470925
0.328557
0.499998
0.499985
0.333226
0.5
0.328556
0.333226
0.328556
0.333226
0.499985
0.5
0.5
0.333227
0.328557
0.491023
0.470905
0.476908
0.470852
0.476908
0.495246
0.470905
0.333324
0.5
0.5
0.333325
0.5
0.333325
0.333324
0.333324
0.5
0.5
0.333325
0.5
0.333325
0.333324
0.333324
0.333324
0.5
0.5
0.5
0.333324
0.333324
0.33332
0.499998
0.499977
0.3333
0.5
0.333318
0.333299
0.33332
0.5
0.5
0.333323
0.5
0.333323
0.33332
0.333321
0.333299
0.499977
0.5
0.5
0.333299
0.333321
0.499361
0.480022
0.470067
0.475084
0.495286
0.480022
0.470067
0.328562
0.5
0.499985
0.333228
0.5
0.328558
0.333224
0.328577
0.33325
0.499983
0.499803
0.499995
0.333241
0.328721
0.49089
0.47045
0.476857
0.470778
0.476857
0.495168
0.47045
0.33332
0.5
0.5
0.333323
0.5
0.333323
0.33332
0.33332
0.499998
0.499977
0.3333
0.5
0.333318
0.333299
0.333321
0.333299
0.5
0.499977
0.5
0.333321
0.333299
0.333317
0.499998
0.499978
0.333299
0.5
0.333317
0.333279
0.333317
0.499998
0.499978
0.333298
0.5
0.333317
0.333276
0.333312
0.333297
0.49998
0.49998
0.499997
0.333289
0.333291
0.499833
0.487428
0.499972
0.499963
0.327914
0.327919
0.578903
0.499783
0.485923
0.327079
0.32715
0.49993
0.327218
0.327259
0.327179
0.485323
0.5
0.327187
0.32718
0.497552
0.499999
0.500004
0.467656
0.346663
0.337139
0.467642
0.47632
0.337136
0.491054
0.337137
0.467628
0.346652
0.467632
0.476338
0.337139
0.327174
0.327188
0.485319
0.499999
0.327168
0.499855
0.499997
0.327179
0.485344
0.499616
0.327165
0.327305
0.49821
0.499993
0.499864
0.46758
0.346877
0.337166
0.467449
0.476283
0.337226
0.492438
0.335138
0.473848
0.346706
0.467745
0.479775
0.337234
0.327164
0.327185
0.485315
0.500001
0.327169
0.499848
0.500001
0.327179
0.485323
0.327187
0.5
0.497555
0.32718
0.499999
0.499987
0.467524
0.346677
0.337154
0.467586
0.476278
0.337142
0.491062
0.337137
0.346658
0.467618
0.46761
0.337141
0.476339
0.327174
0.327188
0.485316
0.499999
0.327169
0.499855
0.499997
0.333121
0.333128
0.5
0.5
0.333126
0.333126
0.487009
0.333111
0.333109
0.499998
0.499998
0.33311
0.33311
0.487004
0.333115
0.5
0.333117
0.499998
0.333119
0.333115
0.487007
0.333115
0.5
0.333117
0.499998
0.333119
0.333115
0.487007
0.333
0.333078
0.49873
0.5
0.333075
0.333003
0.486476
0.333085
0.333086
0.499875
0.499986
0.333085
0.333086
0.486905
0.33299
0.498731
0.333071
0.499875
0.332992
0.333067
0.486481
0.333093
0.499991
0.333089
0.49999
0.333088
0.333093
0.486905
0.327182
0.485367
0.327173
0.49961
0.498263
0.327312
0.499989
0.499898
0.467516
0.346962
0.337172
0.467286
0.476265
0.337258
0.492558
0.33527
0.346911
0.473741
0.467366
0.33733
0.479789
0.327167
0.327188
0.485321
0.500001
0.327168
0.499852
0.499999
0.333
0.333078
0.5
0.49873
0.333003
0.333075
0.486476
0.333085
0.333086
0.499986
0.499875
0.333086
0.333085
0.486905
0.333093
0.499991
0.333089
0.49999
0.333088
0.333093
0.486905
0.33299
0.498731
0.333071
0.499875
0.332992
0.333067
0.486481
0.332974
0.333119
0.498788
0.498795
0.333021
0.333024
0.486013
0.333074
0.333066
0.499876
0.499874
0.333066
0.333066
0.486824
0.332986
0.49874
0.333056
0.499876
0.332987
0.333068
0.486399
0.332984
0.498744
0.333056
0.499874
0.332986
0.333066
0.486401
0.498448
0.480066
0.475343
0.471046
0.480066
0.495458
0.471046
0.328563
0.464779
0.499985
0.333227
0.328553
0.464777
0.333221
0.328572
0.33325
0.464704
0.499983
0.328715
0.464773
0.333238
0.490951
0.470864
0.476921
0.470958
0.476921
0.495235
0.470864
0.499564
0.479966
0.474886
0.469554
0.479966
0.495256
0.469554
0.328562
0.46478
0.499985
0.333228
0.328558
0.464777
0.333226
0.328576
0.333251
0.4647
0.499983
0.328715
0.464772
0.333242
0.490839
0.470212
0.476839
0.470685
0.476839
0.495161
0.470212
0.333317
0.499998
0.499978
0.333298
0.5
0.333276
0.333317
0.333317
0.499998
0.499978
0.333299
0.5
0.333279
0.333317
0.333312
0.333297
0.49998
0.49998
0.499997
0.333291
0.333289
0.499994
0.327106
0.327211
0.484675
0.499933
0.327129
0.327228
0.499998
0.485159
0.327096
0.327204
0.49993
0.327125
0.32724
0.492472
0.469027
0.350946
0.342509
0.460154
0.465338
0.353514
0.499158
0.45784
0.350684
0.349696
0.350995
0.453258
0.45778
0.498987
0.350939
0.459894
0.353006
0.459761
0.353325
0.453761
0.492422
0.340362
0.468594
0.349546
0.465466
0.351126
0.458466
0.499177
0.467949
0.351791
0.344068
0.457306
0.463984
0.354476
0.499754
0.457317
0.350733
0.349911
0.351218
0.45266
0.456485
0.500133
0.351231
0.4594
0.353113
0.458521
0.353639
0.453162
0.49923
0.341546
0.467569
0.350194
0.46424
0.351847
0.455512
0.499994
0.476966
0.470945
0.470939
0.476966
0.495248
0.470939
0.328553
0.464789
0.499985
0.333226
0.328552
0.464789
0.333226
0.328557
0.333226
0.464789
0.499985
0.328568
0.464789
0.333227
0.491018
0.470942
0.476933
0.470939
0.476933
0.495245
0.470942
0.33332
0.499998
0.499977
0.3333
0.333299
0.5
0.333318
0.33332
0.5
0.5
0.333323
0.333323
0.5
0.33332
0.333321
0.333299
0.499977
0.5
0.333299
0.5
0.333321
0.33332
0.499998
0.499977
0.3333
0.5
0.333299
0.333318
0.33332
0.5
0.5
0.333323
0.5
0.33332
0.333323
0.333321
0.333299
0.499977
0.5
0.5
0.333299
0.333321
0.499476
0.459875
0.350522
0.352748
0.459877
0.453743
0.352758
0.499931
0.457825
0.350518
0.349336
0.457807
0.453262
0.350464
0.500066
0.350537
0.459905
0.352839
0.459892
0.453779
0.352786
0.499476
0.350416
0.457802
0.34931
0.457801
0.453226
0.350427
0.499478
0.459875
0.350524
0.352749
0.459866
0.453738
0.352758
0.499954
0.457766
0.350515
0.349334
0.350455
0.453189
0.457784
0.500047
0.350544
0.459849
0.352853
0.459865
0.352787
0.453703
0.499478
0.350418
0.457802
0.349306
0.453221
0.350425
0.457796
0.499561
0.485973
0.327078
0.32717
0.327208
0.327266
0.499933
0.499505
0.333264
0.464446
0.464457
0.327903
0.438741
0.327926
0.333317
0.499998
0.499978
0.333299
0.333292
0.5
0.333317
0.333317
0.499998
0.499978
0.333299
0.333317
0.5
0.333279
0.333311
0.333298
0.49998
0.49998
0.33329
0.499997
0.333288
0.499443
0.480012
0.475008
0.469868
0.480012
0.495275
0.469868
0.32856
0.46478
0.499998
0.333228
0.464777
0.333221
0.328554
0.328576
0.333267
0.4647
0.499998
0.464772
0.328712
0.333237
0.490874
0.470351
0.476847
0.470742
0.49516
0.470351
0.476847
0.495154
0.468744
0.351165
0.343088
0.459375
0.464931
0.353857
0.499526
0.457684
0.350697
0.349761
0.457377
0.453061
0.351075
0.499508
0.351021
0.459759
0.353042
0.459421
0.453572
0.353431
0.495355
0.340859
0.468307
0.349746
0.457519
0.465084
0.351414
0.499998
0.327118
0.327174
0.484699
0.499933
0.327188
0.327178
0.499996
0.485159
0.327127
0.327153
0.327216
0.327164
0.499956
0.496498
0.468222
0.351572
0.343488
0.458079
0.464386
0.354144
0.499722
0.457466
0.350723
0.349853
0.351146
0.452854
0.45687
0.499763
0.351164
0.459528
0.353087
0.458841
0.353546
0.453349
0.4963
0.341058
0.467849
0.349993
0.46461
0.351573
0.456452
0.33332
0.499998
0.499977
0.3333
0.333299
0.5
0.333318
0.33332
0.5
0.5
0.333323
0.333323
0.5
0.33332
0.333321
0.333299
0.499977
0.5
0.333299
0.5
0.333321
0.499988
0.476966
0.47094
0.470939
0.476966
0.49525
0.470939
0.328557
0.464789
0.499985
0.333226
0.328556
0.464789
0.333226
0.328557
0.333226
0.464789
0.499985
0.328568
0.464789
0.333227
0.49101
0.470926
0.476912
0.470888
0.476912
0.495241
0.470926
0.33332
0.5
0.5
0.333323
0.5
0.33332
0.333323
0.33332
0.499998
0.499977
0.3333
0.5
0.333299
0.333318
0.333321
0.333299
0.5
0.499977
0.5
0.333321
0.333299
0.49948
0.350528
0.45986
0.352755
0.459848
0.352768
0.453719
0.499992
0.457616
0.350537
0.349343
0.457723
0.453022
0.35047
0.500008
0.350559
0.459704
0.352887
0.459808
0.453535
0.352809
0.49948
0.350425
0.349315
0.457781
0.457766
0.350437
0.453201
0.499489
0.459859
0.350526
0.352754
0.459858
0.453724
0.352763
0.499953
0.457728
0.350531
0.349338
0.350464
0.45315
0.45777
0.500042
0.350552
0.459788
0.352864
0.45984
0.352797
0.453657
0.499489
0.350423
0.457782
0.349311
0.453207
0.35043
0.457783
0.333324
0.5
0.5
0.333325
0.333324
0.5
0.333325
0.333324
0.5
0.5
0.333325
0.333325
0.5
0.333324
0.333324
0.333324
0.5
0.5
0.333324
0.5
0.333324
0.333324
0.5
0.5
0.333325
0.333324
0.5
0.333325
0.333324
0.5
0.5
0.333325
0.333325
0.5
0.333324
0.333324
0.333324
0.5
0.5
0.333324
0.5
0.333324
0.333324
0.5
0.5
0.333325
0.5
0.333324
0.333325
0.333324
0.5
0.5
0.333325
0.5
0.333324
0.333325
0.333324
0.333324
0.5
0.5
0.5
0.333324
0.333324
0.49999
0.47696
0.470931
0.470936
0.49525
0.47696
0.470931
0.328553
0.464789
0.499997
0.333226
0.333226
0.464789
0.328563
0.328552
0.333226
0.499997
0.464789
0.333227
0.464789
0.328557
0.491015
0.470921
0.476908
0.470878
0.495243
0.476908
0.470921
0.33332
0.5
0.5
0.333323
0.33332
0.5
0.333323
0.33332
0.499998
0.499977
0.3333
0.333318
0.5
0.333299
0.333321
0.333299
0.5
0.499977
0.333321
0.5
0.333299
0.499989
0.476961
0.470935
0.470925
0.476961
0.495253
0.470925
0.328553
0.464789
0.499997
0.333226
0.464789
0.333226
0.328552
0.328556
0.333226
0.464789
0.499997
0.464789
0.328568
0.333227
0.49102
0.470906
0.476907
0.470853
0.495246
0.470906
0.476907
0.499486
0.35053
0.459859
0.352754
0.459848
0.352765
0.453725
0.499969
0.457672
0.350538
0.349344
0.453096
0.35047
0.457747
0.50003
0.350556
0.459761
0.352874
0.453614
0.459824
0.352803
0.499486
0.350423
0.349312
0.457782
0.350433
0.453206
0.457776
0.499478
0.459859
0.350528
0.352755
0.459848
0.453719
0.352769
0.499991
0.457616
0.350538
0.349343
0.35047
0.453022
0.457723
0.500008
0.350559
0.459704
0.352886
0.459808
0.352809
0.453535
0.499478
0.350424
0.457781
0.349316
0.453201
0.350436
0.457766
0.333316
0.499998
0.499978
0.333299
0.333279
0.5
0.333317
0.333317
0.499998
0.499978
0.333299
0.333317
0.5
0.333293
0.333311
0.333298
0.49998
0.49998
0.33329
0.499997
0.333291
0.499561
0.485978
0.327162
0.327091
0.327254
0.327192
0.499931
0.499509
0.333264
0.464453
0.464447
0.327906
0.438739
0.327908
0.498652
0.479999
0.47051
0.475126
0.495417
0.479999
0.47051
0.32856
0.46478
0.499998
0.333226
0.464777
0.333221
0.328554
0.328571
0.333252
0.499998
0.464702
0.464772
0.333239
0.32872
0.490898
0.470619
0.476893
0.470846
0.49523
0.470619
0.476893
0.4951
0.351442
0.468401
0.343171
0.458533
0.353958
0.464651
0.49949
0.457592
0.350715
0.349801
0.457178
0.452981
0.351099
0.499496
0.351116
0.459612
0.353066
0.459049
0.453464
0.353487
0.494595
0.340779
0.349827
0.468072
0.457185
0.351404
0.464873
0.499998
0.327167
0.327133
0.484705
0.499931
0.327138
0.327212
0.499998
0.485158
0.32713
0.327175
0.327134
0.327234
0.499955
0.496558
0.3513
0.468577
0.343415
0.458932
0.354051
0.464659
0.49977
0.457557
0.350703
0.349811
0.35112
0.452923
0.457064
0.499732
0.351066
0.459679
0.353054
0.459231
0.353491
0.453456
0.497068
0.341137
0.34991
0.468083
0.351574
0.464802
0.456791
0.33332
0.5
0.5
0.333323
0.33332
0.5
0.333323
0.33332
0.499998
0.499977
0.3333
0.333318
0.5
0.333299
0.333321
0.333299
0.5
0.499977
0.333321
0.5
0.333299
0.499995
0.476966
0.470939
0.47094
0.495251
0.476966
0.470939
0.328553
0.464789
0.499997
0.333226
0.333226
0.464789
0.328556
0.328563
0.333226
0.499997
0.464789
0.333227
0.464789
0.328557
0.491023
0.470937
0.47693
0.470918
0.495245
0.47693
0.470937
0.499994
0.476965
0.470947
0.470941
0.495249
0.476965
0.470947
0.328557
0.464789
0.499997
0.333226
0.464789
0.333226
0.328553
0.328567
0.333226
0.499997
0.464789
0.464789
0.333227
0.328553
0.491008
0.470953
0.476933
0.470962
0.495243
0.470953
0.476933
0.499484
0.350527
0.459865
0.35275
0.459857
0.352762
0.453733
0.499969
0.457718
0.350522
0.349337
0.453137
0.35046
0.457766
0.500035
0.350549
0.459818
0.352858
0.453662
0.45985
0.352794
0.499484
0.350418
0.349309
0.457797
0.350426
0.453221
0.457787
0.499476
0.350522
0.45987
0.352748
0.459877
0.352758
0.453743
0.499931
0.457825
0.350517
0.349336
0.350465
0.453261
0.457807
0.500067
0.350537
0.459904
0.35284
0.459892
0.352786
0.453779
0.499476
0.350416
0.349309
0.457802
0.350427
0.453226
0.4578
0.499564
0.479966
0.469559
0.474891
0.495256
0.479966
0.469559
0.32856
0.464779
0.499998
0.333228
0.333221
0.464777
0.328564
0.328577
0.333251
0.499998
0.4647
0.333238
0.464772
0.328716
0.490835
0.470211
0.476839
0.470684
0.495156
0.476839
0.470211
0.498448
0.480066
0.471046
0.475343
0.495458
0.480066
0.471046
0.328563
0.464779
0.499998
0.333227
0.333225
0.464777
0.328553
0.328567
0.33325
0.499998
0.464704
0.333242
0.464773
0.328714
0.490951
0.470864
0.476921
0.470958
0.495235
0.476921
0.470864
0.499561
0.485969
0.327165
0.327079
0.327264
0.327205
0.499933
0.499505
0.333264
0.464447
0.464456
0.438741
0.327916
0.327906
0.499178
0.351792
0.467955
0.344068
0.457312
0.354477
0.463986
0.499754
0.457317
0.350734
0.349908
0.45266
0.351214
0.456486
0.500132
0.351231
0.4594
0.353113
0.453162
0.458522
0.35364
0.499224
0.341549
0.350186
0.467569
0.351845
0.464236
0.45552
0.492477
0.350944
0.469031
0.342512
0.460152
0.353521
0.465336
0.499158
0.457835
0.350685
0.349704
0.453253
0.351006
0.457768
0.498986
0.350938
0.459893
0.353006
0.45376
0.45976
0.353326
0.492431
0.340369
0.349548
0.468594
0.35114
0.465459
0.45846
0.499996
0.327211
0.327107
0.484678
0.499933
0.327228
0.32713
0.499996
0.485156
0.327196
0.327107
0.327233
0.327136
0.499956
0.327176
0.485354
0.499993
0.327165
0.3273
0.498224
0.499999
0.499833
0.467672
0.346813
0.337154
0.476316
0.467673
0.337206
0.492573
0.33509
0.474039
0.34655
0.479848
0.46823
0.337196
0.327164
0.327185
0.485317
0.499999
0.327168
0.499848
0.500003
0.327184
0.485355
0.500011
0.327175
0.327314
0.498247
0.499992
0.499954
0.467354
0.347074
0.337185
0.476204
0.466909
0.337288
0.492342
0.335382
0.473445
0.347222
0.479678
0.466497
0.337405
0.327167
0.327188
0.485311
0.499999
0.32717
0.499853
0.500003
0.332975
0.333121
0.500035
0.500039
0.333023
0.333022
0.486013
0.333074
0.333066
0.499874
0.499876
0.486824
0.333066
0.333066
0.332984
0.499999
0.333056
0.499874
0.333066
0.486401
0.332986
0.332986
0.499999
0.333056
0.499876
0.333068
0.486399
0.332987
0.327179
0.485323
0.5
0.327187
0.32718
0.497555
0.499999
0.500003
0.467617
0.346666
0.337142
0.47631
0.467625
0.337139
0.491058
0.337137
0.467628
0.346653
0.476338
0.467627
0.337141
0.327174
0.327188
0.485317
0.500001
0.327169
0.499855
0.499997
0.333
0.333078
0.499999
0.5
0.333075
0.333003
0.486476
0.333085
0.333085
0.499873
0.499986
0.333086
0.333086
0.486905
0.33299
0.499999
0.333071
0.499873
0.333066
0.332992
0.486481
0.333093
0.499991
0.333089
0.49999
0.333088
0.333093
0.486905
0.333
0.333078
0.499999
0.5
0.333075
0.333003
0.486476
0.333085
0.333085
0.499873
0.499986
0.486905
0.333086
0.333086
0.33299
0.499999
0.333072
0.499873
0.333067
0.486481
0.332992
0.333093
0.499991
0.333089
0.49999
0.333093
0.486905
0.333088
0.499836
0.48742
0.499616
0.499976
0.327907
0.327926
0.578908
0.499787
0.485931
0.327079
0.32716
0.327204
0.500076
0.327273
0.332975
0.333119
0.500035
0.498788
0.333023
0.333023
0.486013
0.333074
0.333066
0.499874
0.499876
0.333066
0.333066
0.486824
0.332984
0.499999
0.333056
0.499874
0.333067
0.332986
0.486401
0.332985
0.49874
0.333056
0.499876
0.332987
0.333068
0.486398
0.327183
0.485365
0.500007
0.327175
0.327312
0.498257
0.499989
0.49993
0.467434
0.347011
0.337178
0.467116
0.337269
0.476226
0.492462
0.335328
0.473621
0.347059
0.466966
0.479747
0.337365
0.327167
0.327188
0.485311
0.500001
0.499988
0.499999
0.32717
0.333
0.333078
0.499999
0.5
0.333075
0.333003
0.486476
0.333085
0.333086
0.499875
0.499986
0.333086
0.333085
0.486905
0.33299
0.499999
0.333071
0.499875
0.333067
0.332992
0.486481
0.333093
0.499991
0.333089
0.49999
0.333088
0.333093
0.486905
0.327179
0.485323
0.5
0.327187
0.32718
0.497555
0.499999
0.499996
0.46759
0.346672
0.337145
0.476302
0.467609
0.337141
0.491058
0.337137
0.467618
0.346657
0.476338
0.467616
0.337141
0.327174
0.327188
0.485321
0.500001
0.327168
0.499855
0.499997
0.333
0.333078
0.5
0.499999
0.333003
0.333075
0.486476
0.333085
0.333085
0.499986
0.499873
0.486905
0.333086
0.333086
0.333093
0.499991
0.333089
0.49999
0.333093
0.486905
0.333088
0.33299
0.499999
0.333072
0.499873
0.333067
0.486481
0.332992
0.333121
0.333128
0.5
0.5
0.333126
0.333126
0.487009
0.333111
0.333109
0.499999
0.499999
0.33311
0.33311
0.487004
0.333115
0.5
0.333117
0.499999
0.333115
0.333119
0.487007
0.333115
0.5
0.333117
0.499999
0.333119
0.333115
0.487007
0.333121
0.333128
0.5
0.5
0.333126
0.333126
0.487009
0.333111
0.333109
0.499999
0.499999
0.33311
0.33311
0.487004
0.333115
0.5
0.333117
0.499999
0.333115
0.333119
0.487007
0.333115
0.5
0.333117
0.499999
0.333119
0.333115
0.487007
0.333121
0.333128
0.5
0.5
0.333126
0.333126
0.487009
0.333111
0.333109
0.499998
0.499998
0.487004
0.33311
0.33311
0.333115
0.5
0.333117
0.499998
0.333115
0.487007
0.333119
0.333115
0.5
0.333117
0.499998
0.333115
0.487007
0.333119
0.327179
0.485323
0.327187
0.5
0.497555
0.32718
0.499999
0.49999
0.467558
0.346673
0.33715
0.33714
0.467604
0.476286
0.49106
0.337137
0.346657
0.467617
0.337141
0.467615
0.476339
0.327174
0.327188
0.485316
0.500001
0.499999
0.32717
0.499997
0.333
0.333078
0.5
0.49873
0.333003
0.333075
0.486476
0.333085
0.333086
0.499986
0.499875
0.333085
0.333086
0.486905
0.333093
0.499991
0.333089
0.49999
0.333093
0.333088
0.486905
0.33299
0.498731
0.333071
0.499875
0.332992
0.333067
0.486481
0.327179
0.485323
0.5
0.327187
0.32718
0.497555
0.499999
0.499986
0.467524
0.346677
0.337154
0.467586
0.337142
0.476278
0.491062
0.337137
0.467618
0.346658
0.46761
0.476339
0.337141
0.327174
0.327188
0.485316
0.499999
0.499999
0.499997
0.327169
0.332975
0.333119
0.50004
0.498796
0.333022
0.333022
0.486016
0.333074
0.333066
0.499874
0.499876
0.333066
0.333066
0.486824
0.332985
0.5
0.333056
0.499874
0.333067
0.332987
0.486401
0.332985
0.498744
0.333056
0.499876
0.332987
0.333066
0.486401
0.499838
0.487423
0.49961
0.499977
0.327929
0.327911
0.57891
0.499787
0.485934
0.327123
0.327081
0.327262
0.500074
0.327217
0.327181
0.485346
0.327166
0.500003
0.498203
0.327307
0.499993
0.499894
0.467507
0.346937
0.337167
0.46728
0.337235
0.476264
0.492332
0.335192
0.34686
0.47373
0.467347
0.337268
0.479734
0.327165
0.327185
0.48532
0.500001
0.499984
0.500001
0.327168
0.333
0.333078
0.5
0.49873
0.333003
0.333075
0.486476
0.333085
0.333085
0.499986
0.499873
0.333086
0.333086
0.486905
0.333093
0.499991
0.333089
0.49999
0.333093
0.333088
0.486905
0.33299
0.498731
0.333071
0.499873
0.332992
0.333066
0.486481
0.327179
0.485323
0.327187
0.5
0.497555
0.32718
0.499999
0.499996
0.467586
0.346672
0.337145
0.337141
0.467608
0.476301
0.491063
0.337137
0.346657
0.467622
0.337141
0.467615
0.476339
0.327174
0.327188
0.485319
0.500001
0.5
0.327168
0.499997
0.327179
0.485323
0.327187
0.5
0.497552
0.32718
0.499999
0.500004
0.467656
0.346663
0.337139
0.467641
0.337136
0.476318
0.491054
0.337137
0.346652
0.467628
0.467632
0.337139
0.476338
0.327174
0.327188
0.485317
0.499999
0.5
0.499997
0.327169
0.327182
0.485362
0.327176
0.499615
0.498248
0.327312
0.499989
0.499956
0.467353
0.347073
0.337184
0.337287
0.466907
0.476207
0.492349
0.335384
0.347219
0.47345
0.337405
0.4665
0.479685
0.327168
0.327187
0.485313
0.499999
0.499984
0.327171
0.499999
0.327179
0.485356
0.327164
0.499616
0.498223
0.327303
0.499993
0.499829
0.467673
0.346813
0.337154
0.337205
0.467676
0.476311
0.492565
0.335082
0.346551
0.474039
0.337194
0.468233
0.47985
0.327163
0.327185
0.485312
0.499999
0.499986
0.327169
0.500001
0.499835
0.487424
0.499615
0.499616
0.327929
0.327898
0.578908
0.499785
0.485923
0.327168
0.327075
0.500072
0.327272
0.327208
0.333325
0.5
0.5
0.333325
0.5
0.333325
0.333325
0.333323
0.5
0.5
0.333323
0.5
0.333323
0.333323
0.333323
0.5
0.5
0.333323
0.5
0.333323
0.333323
0.333321
0.5
0.5
0.333321
0.5
0.333321
0.333321
0.333321
0.5
0.5
0.333321
0.5
0.333321
0.333321
0.333323
0.5
0.5
0.333323
0.333323
0.5
0.333323
0.333323
0.5
0.5
0.333323
0.5
0.333323
0.333323
0.333321
0.5
0.5
0.333321
0.333321
0.5
0.333321
0.333323
0.5
0.5
0.333323
0.333323
0.5
0.333323
0.333323
0.5
0.5
0.333323
0.5
0.333323
0.333323
0.333325
0.5
0.5
0.333325
0.333325
0.5
0.333325
0.333325
0.5
0.5
0.333325
0.333325
0.5
0.333325
0.333325
0.5
0.5
0.333325
0.5
0.333325
0.333325
0.333323
0.5
0.5
0.333323
0.333323
0.5
0.333323
0.333321
0.5
0.5
0.333321
0.333321
0.5
0.333321
0.333323
0.5
0.5
0.333323
0.333323
0.5
0.333323
0.33328
0.333307
0.499689
0.499692
0.49968
0.333269
0.333264
0.333226
0.499712
0.499985
0.333244
0.499712
0.333226
0.333244
0.333226
0.333244
0.499712
0.499985
0.499712
0.333226
0.333244
0.333228
0.499712
0.499985
0.333243
0.499713
0.333226
0.333243
0.333258
0.333257
0.499697
0.49998
0.499693
0.333251
0.333279
0.333226
0.499712
0.499985
0.333243
0.499712
0.333226
0.333243
0.333226
0.333243
0.499985
0.499712
0.499712
0.333243
0.333226
0.333325
0.5
0.5
0.333325
0.5
0.333325
0.333325
0.333325
0.5
0.5
0.333325
0.5
0.333325
0.333325
0.333324
0.333324
0.5
0.5
0.5
0.333324
0.333324
0.333311
0.499977
0.499977
0.3333
0.499977
0.333311
0.3333
0.333323
0.5
0.5
0.333323
0.5
0.333323
0.333323
0.333309
0.333299
0.499977
0.499977
0.499977
0.333299
0.333309
0.333228
0.499712
0.499985
0.333244
0.499712
0.333228
0.333244
0.333256
0.333255
0.49998
0.499693
0.499707
0.33328
0.33325
0.333323
0.5
0.5
0.333323
0.5
0.333323
0.333323
0.333311
0.499977
0.499977
0.3333
0.499977
0.333311
0.3333
0.333309
0.333299
0.499977
0.499977
0.499977
0.333309
0.333299
0.33331
0.499977
0.499977
0.333299
0.499977
0.33331
0.333299
0.333309
0.499977
0.499977
0.333298
0.499977
0.333309
0.3333
0.333313
0.333297
0.499988
0.49999
0.499988
0.333304
0.333306
0.333228
0.499712
0.499985
0.333243
0.333227
0.499712
0.333242
0.333257
0.333256
0.499697
0.49998
0.33325
0.499693
0.333278
0.333228
0.499712
0.499985
0.333244
0.333228
0.499712
0.333244
0.333256
0.333257
0.499708
0.49998
0.333251
0.499713
0.333278
0.333309
0.499977
0.499977
0.333298
0.499977
0.3333
0.333309
0.33331
0.499977
0.499977
0.333299
0.499977
0.333299
0.33331
0.333313
0.333297
0.49998
0.49998
0.499988
0.333306
0.333304
0.333226
0.499712
0.499985
0.333244
0.333226
0.499712
0.333244
0.333226
0.333243
0.499712
0.499985
0.333226
0.499712
0.333243
0.333311
0.499977
0.499977
0.3333
0.3333
0.499977
0.333311
0.333323
0.5
0.5
0.333323
0.333323
0.5
0.333323
0.333309
0.333299
0.499977
0.499977
0.333299
0.499977
0.333309
0.333311
0.499977
0.499977
0.3333
0.499977
0.3333
0.333311
0.333323
0.5
0.5
0.333323
0.5
0.333323
0.333323
0.333309
0.333299
0.499977
0.499977
0.499977
0.333299
0.333309
0.333281
0.333307
0.499687
0.499693
0.333269
0.499679
0.333264
0.333309
0.499977
0.499977
0.333299
0.333299
0.499977
0.333309
0.33331
0.499977
0.499977
0.333299
0.33331
0.499977
0.333299
0.333315
0.333298
0.49998
0.499983
0.333307
0.499988
0.333305
0.333228
0.499712
0.499997
0.333244
0.499713
0.333244
0.333228
0.333272
0.333273
0.499708
0.499983
0.499713
0.333267
0.333297
0.333311
0.499977
0.499977
0.3333
0.3333
0.499977
0.333311
0.333323
0.5
0.5
0.333323
0.333323
0.5
0.333323
0.333309
0.333299
0.499977
0.499977
0.333299
0.499977
0.333309
0.333226
0.499712
0.499985
0.333244
0.333226
0.499712
0.333244
0.333226
0.333244
0.499712
0.499985
0.333226
0.499712
0.333244
0.333323
0.5
0.5
0.333323
0.5
0.333323
0.333323
0.333311
0.499977
0.499977
0.3333
0.499977
0.3333
0.333311
0.333309
0.333299
0.499977
0.499977
0.499977
0.333309
0.333299
0.333325
0.5
0.5
0.333325
0.333325
0.5