/*--------------------------------*- C++ -*----------------------------------*\
| =========                 |                                                 |
| \\      /  F ield         | OpenFOAM: The Open Source CFD Toolbox           |
|  \\    /   O peration     | Version:  2412                                  |
|   \\  /    A nd           | Website:  www.openfoam.com                      |
|    \\/     M anipulation  |                                                 |
\*---------------------------------------------------------------------------*/
FoamFile
{
    version     2.0;
    format      ascii;
    arch        "LSB;label=32;scalar=64";
    class       volScalarField;
    location    "0/chip";
    object      minPyrVolume;
}
// * * * * * * * * * * * * * * * * * * * * * * * * * * * * * * * * * * * * * //

dimensions      [0 0 0 0 0 0 0];

internalField   nonuniform List<scalar> 
7068
(
3.25521e-14
3.25521e-14
3.25521e-14
3.25521e-14
5.21507e-13
5.2159e-13
5.2159e-13
5.21657e-13
3.25521e-14
2.08691e-12
3.25521e-14
3.25521e-14
2.08651e-12
2.08651e-12
3.25521e-14
2.08691e-12
3.25521e-14
3.25521e-14
2.08652e-12
2.08651e-12
3.25521e-14
3.25521e-14
3.25521e-14
2.086e-12
2.086e-12
2.086e-12
2.086e-12
3.25521e-14
2.08652e-12
2.08652e-12
3.25521e-14
2.08691e-12
3.25521e-14
2.08651e-12
2.08651e-12
2.08691e-12
5.21657e-13
5.2159e-13
5.2159e-13
5.21657e-13
5.2159e-13
5.2159e-13
5.21507e-13
5.21507e-13
5.21507e-13
5.2159e-13
5.21657e-13
5.2159e-13
2.61276e-13
3.25612e-14
2.72644e-13
3.25573e-14
3.25573e-14
2.72676e-13
2.62234e-13
3.25573e-14
3.25577e-14
2.72729e-13
2.72649e-13
3.25573e-14
3.25573e-14
2.72668e-13
2.6046e-13
3.25521e-14
3.25521e-14
2.60476e-13
3.25521e-14
2.6047e-13
2.6047e-13
2.60796e-13
3.25549e-14
3.25521e-14
2.6048e-13
3.25549e-14
2.60801e-13
2.60474e-13
2.62875e-13
3.25573e-14
3.25577e-14
2.72767e-13
2.60796e-13
3.25521e-14
3.25549e-14
2.6048e-13
3.25549e-14
2.60474e-13
2.60805e-13
2.60942e-13
3.25549e-14
3.25549e-14
2.60499e-13
3.25549e-14
2.60801e-13
2.60792e-13
6.04619e-14
2.61397e-13
6.54502e-14
2.74251e-13
2.74182e-13
6.54465e-14
6.53789e-14
2.74352e-13
2.62584e-13
6.5447e-14
6.54502e-14
2.74258e-13
2.74183e-13
6.54497e-14
2.34059e-13
5.21494e-13
5.21494e-13
2.34059e-13
5.21465e-13
2.34059e-13
2.34059e-13
2.34059e-13
5.21946e-13
5.21579e-13
2.34059e-13
5.21929e-13
2.34059e-13
2.34059e-13
6.53759e-14
2.74376e-13
2.62915e-13
6.5447e-14
2.34059e-13
5.21579e-13
5.21946e-13
2.34059e-13
5.21929e-13
2.34059e-13
2.34059e-13
2.34059e-13
5.2197e-13
5.21973e-13
2.34059e-13
5.22128e-13
2.34059e-13
2.34059e-13
2.61971e-13
3.25573e-14
3.25577e-14
2.72734e-13
2.63294e-13
3.25573e-14
3.25575e-14
2.72746e-13
2.60942e-13
3.25549e-14
3.25549e-14
2.60499e-13
3.25549e-14
2.60792e-13
2.60801e-13
2.6131e-13
2.60004e-13
2.62094e-13
2.81428e-13
2.81878e-13
2.61247e-13
2.64125e-13
2.81509e-13
2.81831e-13
2.63209e-13
5.21714e-13
5.21471e-13
5.23819e-13
5.23849e-13
5.21579e-13
5.21578e-13
5.24786e-13
2.72643e-13
3.25573e-14
3.25573e-14
2.7267e-13
2.60796e-13
3.25549e-14
3.25521e-14
2.6048e-13
3.25549e-14
2.608e-13
2.60474e-13
2.60796e-13
3.25549e-14
3.25521e-14
2.6048e-13
3.25549e-14
2.60805e-13
2.60474e-13
2.81493e-13
2.81243e-13
2.81652e-13
2.81101e-13
2.81494e-13
2.81241e-13
2.8164e-13
2.811e-13
5.21602e-13
5.21467e-13
5.23665e-13
2.0864e-12
5.21594e-13
5.21474e-13
5.23652e-13
5.21601e-13
5.21468e-13
5.23681e-13
2.0864e-12
5.21593e-13
5.21475e-13
5.23651e-13
2.61277e-13
3.25612e-14
2.60941e-13
3.25549e-14
3.25549e-14
2.60499e-13
3.25549e-14
2.60793e-13
2.60797e-13
2.63038e-13
3.25573e-14
3.25575e-14
2.72755e-13
2.62681e-13
2.81444e-13
2.81869e-13
2.61919e-13
2.6132e-13
2.6e-13
5.21695e-13
5.21471e-13
5.23826e-13
5.23851e-13
5.21577e-13
5.21577e-13
5.2488e-13
2.63545e-13
2.81499e-13
2.81846e-13
2.62526e-13
2.60796e-13
3.25549e-14
3.25521e-14
2.60481e-13
3.25549e-14
2.60806e-13
2.60474e-13
2.72643e-13
3.25573e-14
3.25573e-14
2.72672e-13
2.60796e-13
3.25521e-14
3.25549e-14
2.6048e-13
3.25549e-14
2.60474e-13
2.60801e-13
2.81493e-13
2.81266e-13
2.81625e-13
2.81107e-13
5.216e-13
5.21467e-13
5.23678e-13
2.0864e-12
5.21592e-13
5.21474e-13
5.23647e-13
2.81494e-13
2.81254e-13
2.81635e-13
2.81109e-13
5.216e-13
5.21468e-13
2.0864e-12
5.23679e-13
5.21475e-13
5.21593e-13
5.23649e-13
2.6046e-13
3.25521e-14
3.25521e-14
2.60476e-13
3.25521e-14
2.6047e-13
2.6047e-13
2.6046e-13
3.25521e-14
3.25521e-14
2.60476e-13
3.25521e-14
2.6047e-13
2.6047e-13
2.6046e-13
3.25521e-14
3.25521e-14
2.60476e-13
3.25521e-14
2.6047e-13
2.6047e-13
2.72644e-13
3.25573e-14
3.25573e-14
2.72673e-13
2.60796e-13
3.25521e-14
3.25549e-14
2.60481e-13
3.25549e-14
2.60474e-13
2.60806e-13
2.72643e-13
3.25573e-14
3.25573e-14
2.72668e-13
5.216e-13
5.21468e-13
5.23672e-13
2.0864e-12
5.21593e-13
5.21474e-13
5.23648e-13
2.81496e-13
2.81267e-13
2.81629e-13
2.81108e-13
5.216e-13
5.21467e-13
2.0864e-12
5.23678e-13
5.21474e-13
5.21592e-13
5.23648e-13
2.81495e-13
2.81266e-13
2.81627e-13
2.81108e-13
2.60937e-13
3.25549e-14
3.25549e-14
2.60499e-13
3.25549e-14
2.60798e-13
2.60793e-13
2.61275e-13
3.25612e-14
2.62386e-13
3.25573e-14
3.25577e-14
2.72739e-13
2.63203e-13
2.81485e-13
2.81854e-13
2.6202e-13
5.21713e-13
5.21471e-13
5.23859e-13
5.2384e-13
5.21576e-13
5.21578e-13
5.24923e-13
2.61323e-13
2.60001e-13
2.63012e-13
2.81467e-13
2.81859e-13
2.62432e-13
2.60796e-13
3.25521e-14
3.25549e-14
2.6048e-13
3.25549e-14
2.60474e-13
2.608e-13
2.72641e-13
3.25573e-14
3.25573e-14
2.72674e-13
2.72642e-13
3.25573e-14
3.25573e-14
2.72679e-13
5.21601e-13
5.21468e-13
2.0864e-12
5.23676e-13
5.21475e-13
5.21594e-13
5.2365e-13
5.21602e-13
5.21467e-13
2.0864e-12
5.23677e-13
5.21474e-13
5.21594e-13
5.23653e-13
2.81502e-13
2.81245e-13
2.81641e-13
2.81101e-13
2.815e-13
2.81243e-13
2.81649e-13
2.811e-13
2.63293e-13
3.25573e-14
3.25575e-14
2.72748e-13
2.61974e-13
3.25573e-14
3.25577e-14
2.72737e-13
2.61275e-13
3.25612e-14
5.21713e-13
5.21471e-13
5.23847e-13
5.23821e-13
5.21578e-13
5.21579e-13
5.24797e-13
2.64126e-13
2.81509e-13
2.81833e-13
2.63201e-13
2.62092e-13
2.81431e-13
2.81875e-13
2.61253e-13
2.61306e-13
2.60003e-13
6.53768e-14
2.74348e-13
2.62207e-13
6.5447e-14
6.53761e-14
2.74376e-13
2.63655e-13
6.5447e-14
2.34059e-13
5.21973e-13
5.2197e-13
2.34059e-13
5.22127e-13
2.34059e-13
2.34059e-13
6.54502e-14
2.74247e-13
2.74181e-13
6.54465e-14
2.34059e-13
5.21947e-13
5.2158e-13
2.34059e-13
5.21929e-13
2.34059e-13
2.34059e-13
2.34059e-13
5.21946e-13
5.2158e-13
2.34059e-13
5.21929e-13
2.34059e-13
2.34059e-13
6.04596e-14
2.61395e-13
2.34059e-13
5.21972e-13
5.21971e-13
2.34059e-13
5.22118e-13
2.34059e-13
2.34059e-13
6.53751e-14
2.74378e-13
2.63274e-13
6.5447e-14
2.34059e-13
5.21946e-13
5.21579e-13
2.34059e-13
5.21929e-13
2.34059e-13
2.34059e-13
6.54502e-14
2.74253e-13
2.74184e-13
6.54465e-14
2.34059e-13
5.2158e-13
5.21946e-13
2.34059e-13
5.21929e-13
2.34059e-13
2.34059e-13
2.34059e-13
5.21494e-13
5.21494e-13
2.34059e-13
5.21465e-13
2.34059e-13
2.34059e-13
2.34059e-13
5.21494e-13
5.21494e-13
2.34059e-13
5.21465e-13
2.34059e-13
2.34059e-13
2.34059e-13
5.21494e-13
5.21494e-13
2.34059e-13
5.21465e-13
2.34059e-13
2.34059e-13
6.54502e-14
2.74259e-13
2.74183e-13
6.54497e-14
2.34059e-13
5.21579e-13
5.21946e-13
2.34059e-13
5.21929e-13
2.34059e-13
2.34059e-13
6.54502e-14
2.74255e-13
2.74183e-13
6.54497e-14
2.34059e-13
5.21971e-13
5.21971e-13
2.34059e-13
5.22118e-13
2.34059e-13
2.34059e-13
6.0461e-14
2.61413e-13
6.53771e-14
2.74355e-13
2.62941e-13
6.5447e-14
2.34059e-13
5.2158e-13
5.21947e-13
2.34059e-13
5.21929e-13
2.34059e-13
2.34059e-13
6.54502e-14
2.7425e-13
2.74184e-13
6.54465e-14
6.54502e-14
2.74254e-13
2.74184e-13
6.54465e-14
6.53751e-14
2.74373e-13
2.63646e-13
6.5447e-14
6.5379e-14
2.74351e-13
2.62211e-13
6.5447e-14
6.04597e-14
2.61389e-13
6.51069e-14
3.25521e-14
3.25521e-14
6.51067e-14
3.25521e-14
6.51068e-14
6.51068e-14
6.51076e-14
3.25521e-14
3.25521e-14
6.51072e-14
3.25521e-14
6.51073e-14
6.51072e-14
6.51076e-14
3.25521e-14
3.25521e-14
6.51072e-14
3.25521e-14
6.51072e-14
6.51073e-14
6.51079e-14
3.25521e-14
3.25521e-14
6.51076e-14
3.25521e-14
6.51078e-14
6.51078e-14
6.51079e-14
3.25521e-14
3.25521e-14
6.51076e-14
3.25521e-14
6.51078e-14
6.51078e-14
6.51076e-14
3.25521e-14
3.25521e-14
6.51072e-14
6.51072e-14
3.25521e-14
6.51073e-14
6.51076e-14
3.25521e-14
3.25521e-14
6.51072e-14
3.25521e-14
6.51073e-14
6.51072e-14
6.51079e-14
3.25521e-14
3.25521e-14
6.51076e-14
6.51078e-14
3.25521e-14
6.51078e-14
6.51076e-14
3.25521e-14
3.25521e-14
6.51072e-14
6.51072e-14
3.25521e-14
6.51073e-14
6.51076e-14
3.25521e-14
3.25521e-14
6.51072e-14
3.25521e-14
6.51072e-14
6.51073e-14
6.51069e-14
3.25521e-14
3.25521e-14
6.51067e-14
6.51068e-14
3.25521e-14
6.51068e-14
6.51069e-14
3.25521e-14
3.25521e-14
6.51067e-14
6.51068e-14
3.25521e-14
6.51068e-14
6.51069e-14
3.25521e-14
3.25521e-14
6.51067e-14
3.25521e-14
6.51068e-14
6.51068e-14
6.51076e-14
3.25521e-14
3.25521e-14
6.51072e-14
6.51073e-14
3.25521e-14
6.51072e-14
6.51079e-14
3.25521e-14
3.25521e-14
6.51076e-14
6.51078e-14
3.25521e-14
6.51078e-14
6.51076e-14
3.25521e-14
3.25521e-14
6.51072e-14
6.51073e-14
3.25521e-14
6.51072e-14
2.26258e-14
2.61092e-13
6.57136e-14
6.56599e-14
6.56826e-14
6.56638e-14
2.25912e-14
2.25481e-14
6.51288e-14
2.90668e-14
2.90689e-14
2.16009e-14
6.04673e-14
6.04662e-14
2.34059e-13
2.60437e-13
2.34059e-13
2.72645e-13
2.34059e-13
2.60426e-13
2.34059e-13
6.56695e-14
2.9137e-14
3.25573e-14
6.51413e-14
2.9137e-14
6.56644e-14
6.51414e-14
6.56696e-14
6.51413e-14
2.9137e-14
3.25573e-14
2.9137e-14
6.56662e-14
6.51411e-14
2.34059e-13
2.72652e-13
2.60401e-13
2.34059e-13
2.34059e-13
2.60418e-13
2.34059e-13
2.34059e-13
2.60784e-13
2.34059e-13
2.72737e-13
2.34059e-13
2.60739e-13
2.34059e-13
6.56565e-14
2.91365e-14
3.25573e-14
6.51416e-14
2.91349e-14
6.56671e-14
6.5141e-14
6.56405e-14
6.51314e-14
2.91196e-14
3.25573e-14
2.91341e-14
6.55227e-14
6.51346e-14
2.34059e-13
2.72895e-13
2.60395e-13
2.34059e-13
2.34059e-13
2.60449e-13
2.34059e-13
2.34059e-13
2.60437e-13
2.7265e-13
2.34059e-13
2.60429e-13
2.34059e-13
2.34059e-13
6.56696e-14
2.9137e-14
3.25573e-14
6.51414e-14
2.9137e-14
6.56676e-14
6.51414e-14
6.56697e-14
6.51414e-14
3.25573e-14
2.9137e-14
2.9137e-14
6.51411e-14
6.56694e-14
2.34059e-13
2.7265e-13
2.60405e-13
2.34059e-13
2.34059e-13
2.60422e-13
2.34059e-13
6.51068e-14
3.25521e-14
3.25521e-14
6.51067e-14
3.25521e-14
6.51067e-14
6.51068e-14
6.51068e-14
3.25521e-14
3.25521e-14
6.51067e-14
3.25521e-14
6.51067e-14
6.51068e-14
6.51068e-14
6.51068e-14
3.25521e-14
3.25521e-14
3.25521e-14
6.51068e-14
6.51068e-14
6.51076e-14
3.25521e-14
3.25549e-14
6.51126e-14
3.25521e-14
6.51051e-14
6.51128e-14
6.51078e-14
3.25521e-14
3.25521e-14
6.51072e-14
3.25521e-14
6.51072e-14
6.51078e-14
6.51073e-14
6.5113e-14
3.25549e-14
3.25521e-14
3.25521e-14
6.5113e-14
6.51073e-14
2.34059e-13
2.60904e-13
2.73047e-13
2.34059e-13
2.60775e-13
2.34059e-13
2.34059e-13
6.56577e-14
2.91365e-14
3.25573e-14
6.51413e-14
2.91349e-14
6.5666e-14
6.5141e-14
6.56458e-14
6.51267e-14
3.25573e-14
2.91228e-14
2.91343e-14
6.51367e-14
6.55225e-14
2.34059e-13
2.72981e-13
2.60393e-13
2.34059e-13
2.34059e-13
2.60453e-13
2.34059e-13
6.51078e-14
3.25521e-14
3.25521e-14
6.51072e-14
3.25521e-14
6.51072e-14
6.51078e-14
6.51076e-14
3.25521e-14
3.25549e-14
6.51125e-14
3.25521e-14
6.51051e-14
6.51128e-14
6.51073e-14
6.5113e-14
3.25521e-14
3.25549e-14
3.25521e-14
6.51073e-14
6.5113e-14
6.51051e-14
3.25521e-14
3.25549e-14
6.51128e-14
3.25521e-14
6.51056e-14
6.51153e-14
6.51051e-14
3.25521e-14
3.25549e-14
6.51132e-14
3.25521e-14
6.51054e-14
6.51158e-14
6.51017e-14
6.51114e-14
3.25538e-14
3.25538e-14
3.25521e-14
6.51111e-14
6.5111e-14
2.25835e-14
2.61192e-13
2.24497e-14
2.24503e-14
6.06573e-14
6.065e-14
1.58484e-14
2.26441e-14
2.61405e-13
6.57152e-14
6.56767e-14
2.25922e-14
6.57417e-14
6.57195e-14
6.58261e-14
2.60994e-13
2.25313e-14
6.54502e-14
6.58261e-14
2.60994e-13
2.25313e-14
2.34059e-13
2.34059e-13
2.74205e-13
2.58586e-13
2.34059e-13
2.34059e-13
2.58596e-13
2.34059e-13
2.58608e-13
2.34059e-13
2.74189e-13
2.34059e-13
2.34059e-13
2.58604e-13
6.58295e-14
6.54499e-14
2.60999e-13
2.25288e-14
6.58258e-14
2.60993e-13
2.25301e-14
6.5806e-14
2.61061e-13
2.25241e-14
6.54532e-14
6.56921e-14
2.61007e-13
2.25275e-14
2.34059e-13
2.34059e-13
2.74586e-13
2.58616e-13
2.34059e-13
2.34059e-13
2.58741e-13
2.34059e-13
2.6033e-13
2.34059e-13
2.74418e-13
2.34059e-13
2.34059e-13
2.5929e-13
6.58233e-14
6.54486e-14
2.61003e-13
2.25289e-14
6.58234e-14
2.61e-13
2.25284e-14
6.58261e-14
2.60994e-13
6.54502e-14
2.25313e-14
2.60994e-13
6.58261e-14
2.25313e-14
2.34059e-13
2.34059e-13
2.74205e-13
2.58595e-13
2.34059e-13
2.34059e-13
2.58601e-13
2.34059e-13
2.58608e-13
2.74187e-13
2.34059e-13
2.34059e-13
2.58606e-13
2.34059e-13
6.58295e-14
6.54499e-14
2.61e-13
2.25288e-14
6.58281e-14
2.60993e-13
2.25301e-14
2.60473e-13
2.60477e-13
2.34059e-13
2.34059e-13
2.60474e-13
2.60474e-13
2.34059e-13
2.60477e-13
2.6048e-13
2.34059e-13
2.34059e-13
2.60478e-13
2.60478e-13
2.34059e-13
2.60473e-13
2.34059e-13
2.60478e-13
2.34059e-13
2.60478e-13
2.60473e-13
2.34059e-13
2.60473e-13
2.34059e-13
2.60478e-13
2.34059e-13
2.60478e-13
2.60473e-13
2.34059e-13
2.60557e-13
2.60766e-13
2.34059e-13
2.34059e-13
2.60762e-13
2.60557e-13
2.34059e-13
2.60512e-13
2.6049e-13
2.34059e-13
2.34059e-13
2.60514e-13
2.60488e-13
2.34059e-13
2.60553e-13
2.34059e-13
2.60756e-13
2.34059e-13
2.60555e-13
2.60758e-13
2.34059e-13
2.60517e-13
2.34059e-13
2.60484e-13
2.34059e-13
2.60484e-13
2.60516e-13
2.34059e-13
6.58084e-14
2.61055e-13
6.54521e-14
2.25238e-14
2.60998e-13
6.56983e-14
2.25269e-14
2.34059e-13
2.34059e-13
2.74662e-13
2.58614e-13
2.34059e-13
2.34059e-13
2.58757e-13
2.34059e-13
2.60417e-13
2.74634e-13
2.34059e-13
2.34059e-13
2.59343e-13
2.34059e-13
6.5818e-14
6.54479e-14
2.61002e-13
2.25289e-14
6.58234e-14
2.60998e-13
2.25287e-14
2.60557e-13
2.60767e-13
2.34059e-13
2.34059e-13
2.60557e-13
2.60762e-13
2.34059e-13
2.60512e-13
2.6049e-13
2.34059e-13
2.34059e-13
2.60488e-13
2.60514e-13
2.34059e-13
2.60517e-13
2.34059e-13
2.60484e-13
2.34059e-13
2.60484e-13
2.60516e-13
2.34059e-13
2.60553e-13
2.34059e-13
2.60756e-13
2.34059e-13
2.60555e-13
2.60758e-13
2.34059e-13
2.60618e-13
2.60884e-13
2.34059e-13
2.34059e-13
2.6079e-13
2.6078e-13
2.34059e-13
2.60541e-13
2.60496e-13
2.34059e-13
2.34059e-13
2.60515e-13
2.60516e-13
2.34059e-13
2.60582e-13
2.34059e-13
2.60757e-13
2.34059e-13
2.6056e-13
2.60761e-13
2.34059e-13
2.60586e-13
2.34059e-13
2.60754e-13
2.34059e-13
2.6056e-13
2.60757e-13
2.34059e-13
2.34059e-13
2.60774e-13
2.34059e-13
2.72707e-13
2.34059e-13
2.60752e-13
2.34059e-13
6.5657e-14
2.91364e-14
3.25573e-14
6.51415e-14
6.56645e-14
2.91349e-14
6.51432e-14
6.56406e-14
6.51316e-14
2.91196e-14
3.25573e-14
6.55225e-14
2.91341e-14
6.51348e-14
2.34059e-13
2.72884e-13
2.60395e-13
2.34059e-13
2.34059e-13
2.60446e-13
2.34059e-13
2.34059e-13
2.60928e-13
2.34059e-13
2.73105e-13
2.34059e-13
2.60758e-13
2.34059e-13
6.56576e-14
2.91365e-14
3.25573e-14
6.51413e-14
6.5666e-14
2.91349e-14
6.51405e-14
6.56401e-14
6.51339e-14
2.91214e-14
3.25573e-14
6.55241e-14
2.91333e-14
6.51366e-14
2.34059e-13
2.72983e-13
2.60392e-13
2.34059e-13
2.34059e-13
2.60438e-13
2.34059e-13
6.51051e-14
3.25521e-14
3.25549e-14
6.51132e-14
3.25521e-14
6.51158e-14
6.51054e-14
6.51051e-14
3.25521e-14
3.25549e-14
6.51128e-14
3.25521e-14
6.51153e-14
6.51056e-14
6.51017e-14
6.51114e-14
3.25538e-14
3.25538e-14
3.25521e-14
6.5111e-14
6.51111e-14
2.25827e-14
6.56764e-14
6.5609e-14
2.61316e-13
2.25857e-14
6.5663e-14
6.5597e-14
2.25817e-14
2.6023e-13
6.56782e-14
6.5614e-14
2.25873e-14
6.56649e-14
6.55964e-14
2.34059e-13
2.34059e-13
2.82293e-13
2.62042e-13
2.34059e-13
2.33161e-13
2.85545e-13
2.34059e-13
2.34059e-13
2.85546e-13
2.81877e-13
2.86032e-13
2.34059e-13
2.34059e-13
2.34059e-13
2.82274e-13
2.34059e-13
2.84874e-13
2.34059e-13
2.85326e-13
2.34059e-13
2.34059e-13
2.6174e-13
2.34059e-13
2.82013e-13
2.32512e-13
2.86247e-13
2.34059e-13
2.34059e-13
2.34059e-13
2.82926e-13
2.64479e-13
2.34059e-13
2.34059e-13
2.86751e-13
2.34059e-13
2.34059e-13
2.85612e-13
2.82154e-13
2.86296e-13
2.34059e-13
2.34059e-13
2.34059e-13
2.82364e-13
2.34059e-13
2.84999e-13
2.34059e-13
2.85702e-13
2.34059e-13
2.34059e-13
2.64025e-13
2.34059e-13
2.82957e-13
2.34059e-13
2.87268e-13
2.34059e-13
2.34059e-13
2.60437e-13
2.34059e-13
2.72645e-13
2.34059e-13
2.60425e-13
2.34059e-13
6.56695e-14
2.9137e-14
3.25573e-14
6.51413e-14
6.56675e-14
2.9137e-14
6.51414e-14
6.56696e-14
6.51414e-14
2.9137e-14
3.25573e-14
6.56662e-14
2.9137e-14
6.51411e-14
2.34059e-13
2.72645e-13
2.60403e-13
2.34059e-13
2.34059e-13
2.60419e-13
2.34059e-13
6.51076e-14
3.25521e-14
3.25549e-14
6.51125e-14
6.51128e-14
3.25521e-14
6.51051e-14
6.51078e-14
3.25521e-14
3.25521e-14
6.51072e-14
6.51072e-14
3.25521e-14
6.51078e-14
6.51073e-14
6.5113e-14
3.25549e-14
3.25521e-14
6.5113e-14
3.25521e-14
6.51073e-14
6.51076e-14
3.25521e-14
3.25549e-14
6.51125e-14
3.25521e-14
6.51128e-14
6.51051e-14
6.51078e-14
3.25521e-14
3.25521e-14
6.51072e-14
3.25521e-14
6.51078e-14
6.51072e-14
6.51073e-14
6.5113e-14
3.25549e-14
3.25521e-14
3.25521e-14
6.5113e-14
6.51073e-14
2.34059e-13
2.34059e-13
2.81514e-13
2.84572e-13
2.34059e-13
2.34059e-13
2.84586e-13
2.34059e-13
2.34059e-13
2.85344e-13
2.81152e-13
2.34059e-13
2.34059e-13
2.85253e-13
2.34059e-13
2.81555e-13
2.34059e-13
2.84692e-13
2.34059e-13
2.34059e-13
2.84615e-13
2.34059e-13
2.85133e-13
2.34059e-13
2.81115e-13
2.34059e-13
2.34059e-13
2.85169e-13
2.34059e-13
2.34059e-13
2.81517e-13
2.84573e-13
2.34059e-13
2.34059e-13
2.84585e-13
2.34059e-13
2.34059e-13
2.85342e-13
2.81157e-13
2.85227e-13
2.34059e-13
2.34059e-13
2.34059e-13
2.81552e-13
2.34059e-13
2.84705e-13
2.34059e-13
2.84616e-13
2.34059e-13
2.34059e-13
2.85132e-13
2.34059e-13
2.81117e-13
2.34059e-13
2.85156e-13
2.34059e-13
2.26261e-14
2.61092e-13
6.57089e-14
6.5661e-14
6.56814e-14
6.56603e-14
2.25906e-14
2.25481e-14
6.51287e-14
2.90661e-14
2.90696e-14
6.04672e-14
2.16009e-14
6.0466e-14
6.51051e-14
3.25521e-14
3.25549e-14
6.5113e-14
6.51124e-14
3.25521e-14
6.51054e-14
6.51051e-14
3.25521e-14
3.25549e-14
6.51128e-14
6.51056e-14
3.25521e-14
6.51153e-14
6.51017e-14
6.51111e-14
3.25538e-14
3.25538e-14
6.51112e-14
3.25521e-14
6.51113e-14
2.34059e-13
2.60907e-13
2.34059e-13
2.73077e-13
2.34059e-13
2.60774e-13
2.34059e-13
6.56573e-14
2.91365e-14
3.25573e-14
6.51413e-14
2.91349e-14
6.51405e-14
6.5667e-14
6.56413e-14
6.51253e-14
2.91214e-14
3.25573e-14
2.91333e-14
6.5524e-14
6.51369e-14
2.34059e-13
2.72994e-13
2.60391e-13
2.34059e-13
2.60444e-13
2.34059e-13
2.34059e-13
2.34059e-13
2.34059e-13
2.82565e-13
2.62962e-13
2.34059e-13
2.34059e-13
2.85968e-13
2.34059e-13
2.34059e-13
2.8556e-13
2.81955e-13
2.34059e-13
2.34059e-13
2.8613e-13
2.34059e-13
2.82374e-13
2.34059e-13
2.84912e-13
2.34059e-13
2.34059e-13
2.85458e-13
2.34059e-13
2.62666e-13
2.34059e-13
2.82312e-13
2.34059e-13
2.33667e-13
2.86647e-13
2.25824e-14
6.56629e-14
6.56268e-14
2.61334e-13
2.25848e-14
6.56325e-14
6.56233e-14
2.25817e-14
2.60225e-13
6.56595e-14
6.56368e-14
6.56241e-14
6.56283e-14
2.25842e-14
2.34059e-13
2.34059e-13
2.82833e-13
2.63553e-13
2.34059e-13
2.34059e-13
2.86331e-13
2.34059e-13
2.34059e-13
2.85595e-13
2.82083e-13
2.86211e-13
2.34059e-13
2.34059e-13
2.34059e-13
2.82381e-13
2.34059e-13
2.84965e-13
2.34059e-13
2.85588e-13
2.34059e-13
2.34059e-13
2.6309e-13
2.34059e-13
2.82666e-13
2.33333e-13
2.86877e-13
2.34059e-13
6.51076e-14
3.25521e-14
3.25549e-14
6.51126e-14
6.51128e-14
3.25521e-14
6.51051e-14
6.51078e-14
3.25521e-14
3.25521e-14
6.51072e-14
6.51072e-14
3.25521e-14
6.51078e-14
6.51073e-14
6.5113e-14
3.25549e-14
3.25521e-14
6.5113e-14
3.25521e-14
6.51073e-14
2.34059e-13
2.60437e-13
2.34059e-13
2.72641e-13
2.34059e-13
2.60425e-13
2.34059e-13
6.56694e-14
2.9137e-14
3.25573e-14
6.51413e-14
6.56676e-14
2.9137e-14
6.51414e-14
6.56696e-14
6.51413e-14
2.9137e-14
3.25573e-14
6.56662e-14
2.9137e-14
6.51411e-14
2.34059e-13
2.72647e-13
2.604e-13
2.34059e-13
2.34059e-13
2.60416e-13
2.34059e-13
6.51078e-14
3.25521e-14
3.25521e-14
6.51072e-14
3.25521e-14
6.51078e-14
6.51072e-14
6.51076e-14
3.25521e-14
3.25549e-14
6.51125e-14
3.25521e-14
6.51128e-14
6.51051e-14
6.51073e-14
6.5113e-14
3.25521e-14
3.25549e-14
3.25521e-14
6.51073e-14
6.5113e-14
2.34059e-13
2.81502e-13
2.34059e-13
2.84579e-13
2.34059e-13
2.84597e-13
2.34059e-13
2.34059e-13
2.34059e-13
2.85343e-13
2.81167e-13
2.34059e-13
2.34059e-13
2.85212e-13
2.34059e-13
2.8154e-13
2.34059e-13
2.84745e-13
2.34059e-13
2.34059e-13
2.84639e-13
2.34059e-13
2.85133e-13
2.81124e-13
2.34059e-13
2.34059e-13
2.85157e-13
2.34059e-13
2.34059e-13
2.34059e-13
2.81507e-13
2.84579e-13
2.34059e-13
2.34059e-13
2.8459e-13
2.34059e-13
2.34059e-13
2.85358e-13
2.81161e-13
2.85234e-13
2.34059e-13
2.34059e-13
2.34059e-13
2.81547e-13
2.34059e-13
2.84722e-13
2.34059e-13
2.84627e-13
2.34059e-13
2.34059e-13
2.85136e-13
2.34059e-13
2.81122e-13
2.34059e-13
2.85162e-13
2.34059e-13
6.51068e-14
3.25521e-14
3.25521e-14
6.51067e-14
6.51068e-14
3.25521e-14
6.51067e-14
6.51068e-14
3.25521e-14
3.25521e-14
6.51067e-14
6.51067e-14
3.25521e-14
6.51068e-14
6.51068e-14
6.51068e-14
3.25521e-14
3.25521e-14
6.51068e-14
3.25521e-14
6.51068e-14
6.51068e-14
3.25521e-14
3.25521e-14
6.51067e-14
6.51068e-14
3.25521e-14
6.51067e-14
6.51068e-14
3.25521e-14
3.25521e-14
6.51067e-14
6.51067e-14
3.25521e-14
6.51068e-14
6.51068e-14
6.51068e-14
3.25521e-14
3.25521e-14
6.51068e-14
3.25521e-14
6.51068e-14
6.51068e-14
3.25521e-14
3.25521e-14
6.51067e-14
3.25521e-14
6.51068e-14
6.51067e-14
6.51068e-14
3.25521e-14
3.25521e-14
6.51067e-14
3.25521e-14
6.51068e-14
6.51067e-14
6.51068e-14
6.51068e-14
3.25521e-14
3.25521e-14
3.25521e-14
6.51068e-14
6.51068e-14
2.34059e-13
2.60437e-13
2.72645e-13
2.34059e-13
2.60426e-13
2.34059e-13
2.34059e-13
6.56696e-14
2.9137e-14
3.25573e-14
6.51414e-14
6.51414e-14
2.9137e-14
6.56644e-14
6.56697e-14
6.51413e-14
3.25573e-14
2.9137e-14
6.51411e-14
2.9137e-14
6.56694e-14
2.34059e-13
2.72644e-13
2.60403e-13
2.34059e-13
2.60418e-13
2.34059e-13
2.34059e-13
6.51078e-14
3.25521e-14
3.25521e-14
6.51072e-14
6.51078e-14
3.25521e-14
6.51072e-14
6.51076e-14
3.25521e-14
3.25549e-14
6.51126e-14
6.51051e-14
3.25521e-14
6.51128e-14
6.51073e-14
6.5113e-14
3.25521e-14
3.25549e-14
6.51073e-14
3.25521e-14
6.5113e-14
2.34059e-13
2.60437e-13
2.34059e-13
2.72648e-13
2.34059e-13
2.60429e-13
2.34059e-13
6.56696e-14
2.9137e-14
3.25573e-14
6.51414e-14
2.9137e-14
6.51414e-14
6.56676e-14
6.56697e-14
6.51414e-14
2.9137e-14
3.25573e-14
2.9137e-14
6.56662e-14
6.51411e-14
2.34059e-13
2.7265e-13
2.60405e-13
2.34059e-13
2.60422e-13
2.34059e-13
2.34059e-13
2.34059e-13
2.81509e-13
2.34059e-13
2.84578e-13
2.34059e-13
2.84594e-13
2.34059e-13
2.34059e-13
2.34059e-13
2.85365e-13
2.81165e-13
2.34059e-13
2.85226e-13
2.34059e-13
2.34059e-13
2.81544e-13
2.34059e-13
2.84732e-13
2.34059e-13
2.34059e-13
2.84634e-13
2.34059e-13
2.85134e-13
2.81122e-13
2.34059e-13
2.85162e-13
2.34059e-13
2.34059e-13
2.34059e-13
2.34059e-13
2.81502e-13
2.8458e-13
2.34059e-13
2.34059e-13
2.84598e-13
2.34059e-13
2.34059e-13
2.85346e-13
2.81167e-13
2.85212e-13
2.34059e-13
2.34059e-13
2.34059e-13
2.8154e-13
2.34059e-13
2.84744e-13
2.34059e-13
2.84639e-13
2.34059e-13
2.34059e-13
2.8513e-13
2.34059e-13
2.81125e-13
2.34059e-13
2.85153e-13
2.34059e-13
6.51053e-14
3.25521e-14
3.25549e-14
6.51128e-14
6.51153e-14
3.25521e-14
6.51056e-14
6.51051e-14
3.25521e-14
3.25549e-14
6.5113e-14
6.51054e-14
3.25521e-14
6.51122e-14
6.51017e-14
6.51111e-14
3.25538e-14
3.25538e-14
6.51107e-14
3.25521e-14
6.5111e-14
2.26259e-14
2.61092e-13
6.56714e-14
6.56984e-14
6.56645e-14
6.56853e-14
2.25916e-14
2.2548e-14
6.51241e-14
2.90682e-14
2.90658e-14
6.04615e-14
2.15993e-14
6.04705e-14
2.34059e-13
2.60796e-13
2.72766e-13
2.34059e-13
2.60746e-13
2.34059e-13
2.34059e-13
6.56589e-14
2.91365e-14
3.25573e-14
6.51416e-14
2.91349e-14
6.51405e-14
6.56671e-14
6.5643e-14
6.51311e-14
3.25573e-14
2.91202e-14
2.91331e-14
6.51349e-14
6.55151e-14
2.34059e-13
2.72887e-13
2.60396e-13
2.34059e-13
2.60436e-13
2.34059e-13
2.34059e-13
2.34059e-13
2.82781e-13
2.34059e-13
2.6305e-13
2.34059e-13
2.861e-13
2.33673e-13
2.34059e-13
2.34059e-13
2.85589e-13
2.82015e-13
2.34059e-13
2.34059e-13
2.8616e-13
2.34059e-13
2.82373e-13
2.34059e-13
2.84948e-13
2.34059e-13
2.34059e-13
2.85522e-13
2.34059e-13
2.62546e-13
2.82437e-13
2.34059e-13
2.34059e-13
2.86653e-13
2.32778e-13
2.25833e-14
6.56341e-14
6.56521e-14
2.61319e-13
2.2585e-14
6.5643e-14
6.5615e-14
2.25825e-14
2.60226e-13
6.56554e-14
6.5637e-14
6.56526e-14
6.56059e-14
2.25853e-14
2.34059e-13
2.82653e-13
2.34059e-13
2.63473e-13
2.34059e-13
2.86211e-13
2.34059e-13
2.34059e-13
2.34059e-13
2.85575e-13
2.82023e-13
2.86185e-13
2.34059e-13
2.34059e-13
2.34059e-13
2.82368e-13
2.34059e-13
2.84927e-13
2.34059e-13
2.85523e-13
2.34059e-13
2.34059e-13
2.63223e-13
2.82539e-13
2.34059e-13
2.86877e-13
2.34059e-13
2.34059e-13
6.51078e-14
3.25521e-14
3.25521e-14
6.51072e-14
6.51078e-14
3.25521e-14
6.51072e-14
6.51076e-14
3.25521e-14
3.25549e-14
6.51125e-14
6.51051e-14
3.25521e-14
6.51128e-14
6.51073e-14
6.5113e-14
3.25521e-14
3.25549e-14
6.51073e-14
3.25521e-14
6.5113e-14
2.34059e-13
2.60437e-13
2.72643e-13
2.34059e-13
2.60428e-13
2.34059e-13
2.34059e-13
6.56695e-14
2.9137e-14
3.25573e-14
6.51413e-14
6.51414e-14
2.9137e-14
6.56675e-14
6.56664e-14
6.51414e-14
3.25573e-14
2.9137e-14
6.51411e-14
2.9137e-14
6.56694e-14
2.34059e-13
2.72647e-13
2.60402e-13
2.34059e-13
2.60422e-13
2.34059e-13
2.34059e-13
2.34059e-13
2.60437e-13
2.72645e-13
2.34059e-13
2.60426e-13
2.34059e-13
2.34059e-13
6.56695e-14
2.9137e-14
3.25573e-14
6.51413e-14
2.9137e-14
6.51414e-14
6.56675e-14
6.56664e-14
6.51413e-14
3.25573e-14
2.9137e-14
2.9137e-14
6.51411e-14
6.56694e-14
2.34059e-13
2.72652e-13
2.60398e-13
2.34059e-13
2.60418e-13
2.34059e-13
2.34059e-13
2.34059e-13
2.81516e-13
2.34059e-13
2.84574e-13
2.34059e-13
2.8459e-13
2.34059e-13
2.34059e-13
2.34059e-13
2.85343e-13
2.81158e-13
2.34059e-13
2.85215e-13
2.34059e-13
2.34059e-13
2.81551e-13
2.34059e-13
2.84711e-13
2.34059e-13
2.34059e-13
2.84624e-13
2.34059e-13
2.85129e-13
2.81118e-13
2.34059e-13
2.8515e-13
2.34059e-13
2.34059e-13
2.34059e-13
2.81513e-13
2.34059e-13
2.84572e-13
2.34059e-13
2.84586e-13
2.34059e-13
2.34059e-13
2.34059e-13
2.85342e-13
2.81157e-13
2.85251e-13
2.34059e-13
2.34059e-13
2.34059e-13
2.81555e-13
2.34059e-13
2.84693e-13
2.34059e-13
2.84615e-13
2.34059e-13
2.34059e-13
2.85132e-13
2.81119e-13
2.34059e-13
2.85166e-13
2.34059e-13
2.34059e-13
2.34059e-13
2.60928e-13
2.73105e-13
2.34059e-13
2.60758e-13
2.34059e-13
2.34059e-13
6.56573e-14
2.91364e-14
3.25573e-14
6.51413e-14
6.51405e-14
2.91349e-14
6.56639e-14
6.56412e-14
6.51339e-14
3.25573e-14
2.91214e-14
6.51366e-14
2.91333e-14
6.55238e-14
2.34059e-13
2.72985e-13
2.6039e-13
2.34059e-13
2.60435e-13
2.34059e-13
2.34059e-13
2.34059e-13
2.60774e-13
2.72707e-13
2.34059e-13
2.60752e-13
2.34059e-13
2.34059e-13
6.5657e-14
2.91364e-14
3.25573e-14
6.51415e-14
6.51432e-14
2.91349e-14
6.56645e-14
6.56396e-14
6.51316e-14
3.25573e-14
2.91196e-14
6.51348e-14
2.91341e-14
6.55228e-14
2.34059e-13
2.72884e-13
2.60392e-13
2.34059e-13
2.60446e-13
2.34059e-13
2.34059e-13
2.26258e-14
2.61092e-13
6.56599e-14
6.5713e-14
6.56638e-14
6.56826e-14
2.25912e-14
2.25481e-14
6.51288e-14
2.90689e-14
2.90668e-14
2.16009e-14
6.04662e-14
6.04673e-14
2.34059e-13
2.82932e-13
2.34059e-13
2.64477e-13
2.34059e-13
2.86743e-13
2.34059e-13
2.34059e-13
2.34059e-13
2.85612e-13
2.82152e-13
2.34059e-13
2.86289e-13
2.34059e-13
2.34059e-13
2.82362e-13
2.34059e-13
2.84999e-13
2.34059e-13
2.34059e-13
2.857e-13
2.34059e-13
2.64022e-13
2.82949e-13
2.34059e-13
2.87257e-13
2.34059e-13
2.34059e-13
2.34059e-13
2.82292e-13
2.34059e-13
2.62041e-13
2.34059e-13
2.85555e-13
2.33159e-13
2.34059e-13
2.34059e-13
2.85548e-13
2.81885e-13
2.34059e-13
2.86046e-13
2.34059e-13
2.34059e-13
2.82273e-13
2.34059e-13
2.84874e-13
2.34059e-13
2.34059e-13
2.8533e-13
2.34059e-13
2.61748e-13
2.82022e-13
2.34059e-13
2.86264e-13
2.32515e-13
2.34059e-13
2.25825e-14
6.5609e-14
6.5676e-14
2.61312e-13
2.25857e-14
6.5597e-14
6.56627e-14
2.25825e-14
2.60229e-13
6.56174e-14
6.56786e-14
6.55973e-14
6.5663e-14
2.25862e-14
6.58066e-14
2.61054e-13
2.25227e-14
6.54532e-14
6.56924e-14
2.61008e-13
2.25271e-14
2.34059e-13
2.34059e-13
2.74561e-13
2.58615e-13
2.34059e-13
2.34059e-13
2.58747e-13
2.34059e-13
2.60222e-13
2.34059e-13
2.74339e-13
2.34059e-13
2.34059e-13
2.59309e-13
6.58207e-14
6.54486e-14
2.61003e-13
2.25289e-14
6.58236e-14
2.61e-13
2.25284e-14
6.58058e-14
2.61051e-13
2.25225e-14
6.54515e-14
6.56927e-14
2.60993e-13
2.25266e-14
2.34059e-13
2.34059e-13
2.74695e-13
2.58619e-13
2.34059e-13
2.34059e-13
2.58741e-13
2.34059e-13
2.60471e-13
2.34059e-13
2.74817e-13
2.34059e-13
2.34059e-13
2.59321e-13
6.58179e-14
6.54479e-14
2.61004e-13
2.25289e-14
6.58228e-14
2.60997e-13
2.25284e-14
2.60618e-13
2.60886e-13
2.34059e-13
2.34059e-13
2.60783e-13
2.60789e-13
2.34059e-13
2.60541e-13
2.60496e-13
2.34059e-13
2.34059e-13
2.34059e-13
2.60516e-13
2.60515e-13
2.60586e-13
2.34059e-13
2.60754e-13
2.34059e-13
2.60759e-13
2.34059e-13
2.6056e-13
2.60582e-13
2.34059e-13
2.60757e-13
2.34059e-13
2.60761e-13
2.34059e-13
2.6056e-13
6.58261e-14
2.60994e-13
2.25313e-14
6.54502e-14
6.58261e-14
2.60994e-13
2.25313e-14
2.34059e-13
2.34059e-13
2.74202e-13
2.58591e-13
2.34059e-13
2.34059e-13
2.58602e-13
2.34059e-13
2.58608e-13
2.34059e-13
2.74188e-13
2.34059e-13
2.34059e-13
2.58607e-13
6.58295e-14
6.54499e-14
2.60999e-13
2.25288e-14
6.58257e-14
2.60993e-13
2.25301e-14
2.60557e-13
2.60766e-13
2.34059e-13
2.34059e-13
2.60762e-13
2.60557e-13
2.34059e-13
2.60512e-13
2.60489e-13
2.34059e-13
2.34059e-13
2.60488e-13
2.60515e-13
2.34059e-13
2.60553e-13
2.34059e-13
2.60756e-13
2.34059e-13
2.60758e-13
2.60555e-13
2.34059e-13
2.60517e-13
2.34059e-13
2.60484e-13
2.34059e-13
2.60484e-13
2.60516e-13
2.34059e-13
2.60557e-13
2.60767e-13
2.34059e-13
2.34059e-13
2.60762e-13
2.60557e-13
2.34059e-13
2.60512e-13
2.60489e-13
2.34059e-13
2.34059e-13
2.34059e-13
2.60515e-13
2.60488e-13
2.60553e-13
2.34059e-13
2.60756e-13
2.34059e-13
2.60758e-13
2.34059e-13
2.60555e-13
2.60517e-13
2.34059e-13
2.60484e-13
2.34059e-13
2.60516e-13
2.34059e-13
2.60484e-13
2.25832e-14
2.61196e-13
2.24489e-14
2.24499e-14
6.06564e-14
6.06505e-14
1.58476e-14
2.26428e-14