/*--------------------------------*- C++ -*----------------------------------*\
| =========                 |                                                 |
| \\      /  F ield         | OpenFOAM: The Open Source CFD Toolbox           |
|  \\    /   O peration     | Version:  2412                                  |
|   \\  /    A nd           | Website:  www.openfoam.com                      |
|    \\/     M anipulation  |                                                 |
\*---------------------------------------------------------------------------*/
FoamFile
{
    version     2.0;
    format      ascii;
    arch        "LSB;label=32;scalar=64";
    class       volScalarField;
    location    "0/chip";
    object      minTetVolume;
}
// * * * * * * * * * * * * * * * * * * * * * * * * * * * * * * * * * * * * * //

dimensions      [0 0 0 0 0 0 0];

internalField   nonuniform List<scalar> 
7068
(
0.000497007
0.000497007
0.000497007
0.000497007
0.000124843
0.00012472
0.00012472
0.000124729
0.000497007
0.000497872
0.000497007
0.000497007
0.000497916
0.000497875
0.000497007
0.000497927
0.000497007
0.000497007
0.000497875
0.000497875
0.000497007
0.000497007
0.000497007
0.000498908
0.000498908
0.000498908
0.000498908
0.000497007
0.000497875
0.000497875
0.000497007
0.000497914
0.000497007
0.000497875
0.000497916
0.000497872
0.000124729
0.00012472
0.00012472
0.00012473
0.00012472
0.00012472
0.000124843
0.000124843
0.000124843
0.00012472
0.00012473
0.00012472
0.000493037
0.000496507
0.000346652
0.000496619
0.000496619
0.000346108
0.000344377
0.000496619
0.000496466
0.000344698
0.000346695
0.000496619
0.000496619
0.00034564
0.00049729
0.000497007
0.000497007
0.000497133
0.000497007
0.000497134
0.000497134
0.000491922
0.00049659
0.000497007
0.000497023
0.00049659
0.000491946
0.000497059
0.000340439
0.000496619
0.000496466
0.000344333
0.000491922
0.000497007
0.00049659
0.000497023
0.00049659
0.000497059
0.00049195
0.000493627
0.00049659
0.00049659
0.000496865
0.000496585
0.000492206
0.000492307
0.000380892
0.000494686
0.00037681
0.000338163
0.00033856
0.000376802
0.000377384
0.000336988
0.000337975
0.000376854
0.00037681
0.000337656
0.000338503
0.000376805
0.000405822
0.000124857
0.000124857
0.000405852
0.000124865
0.000405818
0.000405818
0.000378482
0.000124165
0.000124722
0.000405673
0.000124132
0.000378471
0.000405672
0.000377383
0.000336678
0.000336793
0.000376854
0.000378482
0.000124722
0.000124165
0.000405673
0.000124132
0.000405672
0.000378471
0.000380173
0.000124215
0.000124225
0.000405605
0.00012432
0.00037852
0.00037852
0.000347554
0.000496619
0.000496466
0.000345059
0.000335513
0.000496619
0.000496457
0.00034385
0.000493627
0.00049659
0.00049659
0.000496865
0.000496585
0.000492307
0.000492206
0.000492493
0.000485605
0.000327321
0.000343373
0.00033307
0.000340202
0.000314716
0.000341876
0.000331129
0.000328124
0.000123455
0.000124416
0.000494071
0.000494086
0.000123505
0.000123472
0.000495692
0.000346656
0.000496619
0.000496619
0.00034604
0.000491922
0.00049659
0.000497007
0.000497023
0.00049659
0.000491942
0.000497059
0.000491922
0.00049659
0.000497007
0.000497023
0.00049659
0.00049195
0.000497059
0.00033435
0.000344449
0.000334269
0.000344591
0.00033438
0.000344323
0.00033401
0.000344597
0.000123482
0.000124543
0.000493875
0.000497874
0.000123491
0.000124553
0.000493808
0.000123483
0.00012454
0.000493872
0.000497874
0.000123484
0.000124553
0.000493809
0.000493062
0.000496507
0.000493773
0.00049659
0.00049659
0.000496865
0.000496585
0.000492222
0.000492205
0.000338606
0.000496619
0.000496457
0.000344117
0.000322509
0.000342964
0.000332622
0.000335004
0.000492301
0.000485457
0.000123458
0.00012442
0.000494147
0.000494095
0.00012349
0.000123483
0.000495665
0.000319482
0.000342218
0.000331553
0.000333171
0.000491922
0.00049659
0.000497007
0.000497026
0.00049659
0.000491951
0.000497059
0.000346655
0.000496619
0.000496619
0.000345821
0.000491922
0.000497007
0.00049659
0.000497023
0.00049659
0.000497059
0.000491949
0.000334289
0.000343842
0.000333445
0.00034454
0.000123481
0.00012454
0.000493877
0.000497872
0.00012348
0.000124554
0.000493808
0.000334283
0.000344093
0.000333811
0.000344528
0.000123482
0.00012454
0.000497874
0.000493872
0.000124553
0.000123481
0.000493807
0.00049729
0.000497007
0.000497007
0.000497136
0.000497007
0.000497134
0.000497134
0.00049729
0.000497007
0.000497007
0.000497136
0.000497007
0.000497134
0.000497134
0.00049729
0.000497007
0.000497007
0.000497133
0.000497007
0.000497134
0.000497134
0.000346664
0.000496619
0.000496619
0.000345799
0.000491922
0.000497007
0.00049659
0.000497026
0.00049659
0.000497059
0.000491951
0.000346669
0.000496619
0.000496619
0.00034564
0.000123481
0.00012454
0.000493877
0.000497871
0.000123481
0.000124554
0.000493807
0.000334284
0.000343935
0.000333664
0.000344531
0.000123481
0.00012454
0.000497871
0.000493877
0.000124554
0.00012348
0.000493807
0.000334289
0.000343843
0.00033347
0.000344563
0.000493826
0.00049659
0.00049659
0.000496865
0.000496585
0.000492203
0.000492222
0.000493143
0.000496507
0.000342544
0.000496619
0.000496466
0.000344543
0.000322111
0.000342565
0.000331906
0.000336234
0.00012347
0.000124415
0.000494151
0.000494099
0.000123481
0.000123481
0.000495655
0.000492473
0.000485427
0.00031993
0.000342635
0.000332305
0.000332041
0.000491922
0.000497007
0.00049659
0.000497023
0.00049659
0.000497059
0.000491942
0.000346658
0.000496619
0.000496619
0.000345952
0.000346651
0.000496619
0.000496619
0.000346134
0.000123483
0.00012454
0.00049787
0.000493877
0.000124553
0.000123483
0.000493809
0.000123482
0.000124543
0.000497874
0.000493875
0.000124553
0.000123491
0.000493807
0.000334316
0.000344171
0.000333986
0.000344606
0.000334352
0.000344448
0.000334244
0.000344591
0.000335583
0.000496619
0.000496457
0.000343876
0.000347557
0.000496619
0.000496466
0.00034506
0.000493073
0.000496507
0.000123453
0.000124416
0.000494087
0.00049407
0.000123472
0.000123505
0.000495632
0.000314732
0.000341876
0.00033113
0.000328098
0.000327299
0.000343327
0.000333068
0.000340193
0.000492487
0.000485639
0.000377393
0.000337313
0.000342098
0.000376854
0.000377373
0.000336027
0.000329384
0.000376854
0.000380117
0.000124225
0.000124215
0.000405605
0.000124326
0.00037852
0.00037852
0.00037681
0.000338039
0.000338563
0.000376802
0.000378482
0.000124163
0.000124722
0.000405693
0.000124132
0.000378471
0.000405672
0.000378482
0.000124164
0.000124722
0.000405693
0.000124132
0.000378471
0.000405672
0.000380765
0.000494803
0.000380173
0.000124224
0.000124218
0.000405605
0.000124334
0.00037852
0.00037852
0.000377343
0.000336364
0.000333521
0.000376854
0.000378482
0.000124167
0.000124722
0.000405673
0.000124133
0.000378471
0.000405672
0.00037681
0.000337901
0.000338493
0.000376802
0.000378482
0.000124722
0.000124164
0.000405693
0.000124132
0.000405672
0.000378471
0.000405822
0.000124857
0.000124857
0.000405852
0.000124865
0.000405818
0.000405818
0.000405822
0.000124857
0.000124857
0.000405852
0.000124865
0.000405818
0.000405818
0.000405822
0.000124857
0.000124857
0.000405852
0.000124865
0.000405818
0.000405818
0.00037681
0.000337778
0.000338495
0.000376805
0.000378482
0.000124722
0.000124167
0.000405673
0.000124133
0.000405672
0.000378471
0.00037681
0.000337632
0.000338501
0.000376805
0.000380068
0.000124219
0.000124219
0.000405605
0.000124342
0.00037852
0.00037852
0.000380897
0.000495073
0.000377396
0.000336635
0.00033461
0.000376854
0.000378482
0.000124722
0.000124163
0.000405693
0.000124132
0.000405672
0.000378471
0.00037681
0.000337922
0.000338498
0.000376802
0.00037681
0.000338187
0.000338557
0.000376802
0.000377343
0.000336025
0.000329502
0.000376854
0.000377383
0.000337314
0.000342135
0.000376854
0.000380764
0.000494519
0.00012427
0.000497007
0.000497007
0.000124268
0.000497007
0.000124269
0.000124269
0.0001242
0.000497007
0.000497007
0.000124259
0.000497007
0.000124205
0.000124259
0.0001242
0.000497007
0.000497007
0.000124259
0.000497007
0.000124259
0.000124205
0.000124176
0.000497007
0.000497007
0.000124256
0.000497007
0.000124202
0.000124202
0.000124176
0.000497007
0.000497007
0.000124256
0.000497007
0.000124202
0.000124202
0.0001242
0.000497007
0.000497007
0.000124259
0.000124259
0.000497007
0.000124205
0.0001242
0.000497007
0.000497007
0.000124259
0.000497007
0.000124205
0.000124259
0.000124176
0.000497007
0.000497007
0.000124256
0.000124202
0.000497007
0.000124202
0.0001242
0.000497007
0.000497007
0.000124259
0.000124259
0.000497007
0.000124205
0.0001242
0.000497007
0.000497007
0.000124259
0.000497007
0.000124259
0.000124205
0.00012427
0.000497007
0.000497007
0.000124268
0.000124269
0.000497007
0.000124269
0.00012427
0.000497007
0.000497007
0.000124268
0.000124269
0.000497007
0.000124269
0.00012427
0.000497007
0.000497007
0.000124268
0.000497007
0.000124269
0.000124269
0.0001242
0.000497007
0.000497007
0.000124259
0.000124205
0.000497007
0.000124259
0.000124176
0.000497007
0.000497007
0.000124256
0.000124202
0.000497007
0.000124202
0.0001242
0.000497007
0.000497007
0.000124259
0.000124205
0.000497007
0.000124259
0.000573349
0.000493194
0.000466347
0.000467729
0.000468105
0.000468914
0.000571679
0.000568578
0.00012294
0.000263638
0.000264073
0.000155023
0.00014095
0.000140066
0.00031274
0.000383841
0.00042929
0.000346692
0.000312941
0.00038375
0.000429184
0.000151461
0.000267058
0.000496619
0.000123058
0.000267063
0.000151467
0.000123042
0.00015146
0.000123028
0.000267061
0.000496619
0.000267063
0.000151432
0.000123035
0.000312301
0.000346426
0.000383256
0.000428218
0.000311474
0.000383493
0.000428906
0.000318664
0.000394474
0.000450003
0.000343425
0.000414477
0.000385676
0.000416891
0.000151515
0.000267019
0.000496619
0.000123094
0.000266952
0.00015153
0.000123142
0.000151487
0.000123231
0.000266075
0.000496619
0.000266877
0.000150596
0.000123223
0.000308603
0.00034205
0.000382617
0.000426763
0.000310178
0.000382106
0.000422969
0.000312842
0.000383768
0.000346654
0.000429344
0.000383726
0.000312969
0.000429261
0.00015146
0.000267063
0.000496619
0.000123057
0.000267063
0.000151484
0.000123043
0.000151459
0.000123028
0.000496619
0.000267063
0.000267063
0.000123035
0.000151449
0.000312559
0.000346243
0.00038317
0.000428491
0.000312023
0.000383513
0.000428996
0.00012427
0.000497007
0.000497007
0.000124269
0.000497007
0.000124269
0.00012427
0.00012427
0.000497007
0.000497007
0.000124269
0.000497007
0.000124269
0.00012427
0.000124271
0.000124271
0.000497007
0.000497007
0.000497007
0.000124271
0.000124271
0.000124074
0.000497007
0.00049659
0.000123735
0.000497007
0.000124065
0.00012373
0.000124195
0.000497007
0.000497007
0.00012426
0.000497007
0.00012426
0.000124195
0.000124066
0.000123725
0.00049659
0.000497007
0.000497007
0.000123725
0.000124066
0.000324344
0.000388601
0.000339893
0.000445103
0.000383199
0.000402273
0.000420957
0.000151566
0.000267019
0.000496619
0.000123091
0.000266952
0.000151522
0.000123136
0.000151532
0.000123185
0.000496619
0.000266231
0.000266876
0.000123176
0.000150265
0.000311175
0.000340983
0.000382274
0.000427484
0.000311112
0.000381074
0.000425345
0.000124195
0.000497007
0.000497007
0.00012426
0.000497007
0.00012426
0.000124195
0.000124074
0.000497007
0.00049659
0.000123735
0.000497007
0.000124065
0.00012373
0.000124066
0.000123725
0.000497007
0.00049659
0.000497007
0.000124066
0.000123725
0.000124043
0.000497007
0.00049659
0.000123739
0.000497007
0.000124061
0.00012376
0.000124042
0.000497007
0.00049659
0.000123754
0.000497007
0.000124068
0.000123773
0.000124015
0.000123696
0.000496587
0.000496587
0.000497007
0.000123779
0.000123791
0.00057295
0.0004972
6.92384e-05
6.92358e-05
0.000142572
0.000142033
0.000166127
0.000575737
0.000496061
0.000467831
0.000468679
0.000571193
0.000470669
0.000470853
0.000153076
0.000495608
6.90978e-05
0.00037681
0.000153077
0.000495608
6.90978e-05
0.000338586
0.000422432
0.000338354
0.000363614
0.000422926
0.000337691
0.000363829
0.000339074
0.000364046
0.000423179
0.000338609
0.000423109
0.000339262
0.000364014
0.000153057
0.000376781
0.000495615
6.90891e-05
0.000153092
0.000495603
6.90874e-05
0.000153086
0.000496314
6.90318e-05
0.000376947
0.000152363
0.000495969
6.90797e-05
0.000333944
0.000421286
0.000334911
0.000363167
0.000418123
0.000336304
0.000363344
0.000341747
0.000379227
0.000450972
0.000337472
0.000412701
0.000415105
0.000367128
0.00015316
0.000376884
0.000495672
6.90741e-05
0.000153148
0.000495797
6.90968e-05
0.000153076
0.000495608
0.00037681
6.90978e-05
0.000495608
0.000153077
6.90978e-05
0.000338839
0.000422816
0.000338122
0.000363417
0.000423023
0.000338272
0.000363785
0.000339164
0.000364057
0.000338505
0.000423186
0.000423123
0.000363995
0.000339295
0.000153059
0.000376781
0.000495614
6.90891e-05
0.000153083
0.000495606
6.90874e-05
0.000497365
0.000497409
0.000405823
0.000405823
0.000497366
0.000497366
0.000405857
0.000497407
0.000497408
0.000405852
0.000405852
0.000497407
0.000497407
0.000405855
0.000497373
0.000405821
0.000497406
0.000405823
0.000497408
0.000497373
0.000405855
0.000497373
0.000405821
0.000497406
0.000405823
0.000497408
0.000497373
0.000405855
0.000497083
0.000495479
0.000378483
0.00040064
0.000495477
0.000497084
0.000400671
0.000497173
0.000497355
0.000405126
0.000405674
0.000497195
0.000497337
0.000405126
0.000497012
0.000378453
0.000495445
0.000400643
0.000497034
0.000495436
0.000400675
0.000497194
0.000405139
0.000497306
0.000405672
0.000497307
0.000497193
0.000405106
0.000153161
0.000496131
0.000376998
6.90533e-05
0.000495906
0.000152051
6.90864e-05
0.000336259
0.000421888
0.000334269
0.000362943
0.000419923
0.000336985
0.000362705
0.000347023
0.000375482
0.000335635
0.000447806
0.000416096
0.000365614
0.000415431
0.000153191
0.000376859
0.000495775
6.90741e-05
0.000153131
0.000495715
6.90884e-05
0.000497083
0.000495479
0.00040064
0.000378483
0.000497084
0.000495477
0.000400671
0.000497173
0.000497355
0.000405674
0.000405126
0.000497337
0.000497195
0.000405126
0.000497194
0.000405139
0.000497306
0.000405672
0.000497307
0.000497193
0.000405106
0.000497012
0.000378453
0.000495445
0.000400643
0.000497034
0.000495436
0.000400675
0.000497157
0.000496612
0.000378486
0.000378448
0.000495962
0.000496227
0.00039793
0.000497334
0.000497327
0.000405059
0.000405063
0.000497265
0.000497277
0.000404525
0.000497168
0.000378427
0.00049549
0.000400609
0.000497004
0.000495617
0.000400199
0.000497173
0.000378447
0.000495601
0.000400609
0.000497004
0.000495738
0.000400231
0.000318739
0.000395859
0.000452007
0.000345287
0.000416224
0.000386457
0.000417751
0.000151488
0.000267017
0.000496619
0.000123097
0.000151517
0.000266952
0.000123145
0.000151476
0.000123242
0.000266075
0.000496619
0.000150645
0.000266877
0.00012323
0.000308428
0.000342812
0.000382758
0.000426727
0.000310014
0.000382437
0.000423252
0.000324754
0.000386438
0.000442206
0.000336927
0.000399554
0.000382056
0.000419766
0.000151573
0.000267019
0.000496619
0.000123091
0.000151522
0.000266952
0.000123133
0.000151524
0.000123156
0.000266199
0.000496619
0.000150131
0.000266872
0.000123162
0.000311565
0.00033978
0.000382204
0.000427598
0.000311389
0.00038067
0.0004252
0.000124042
0.000497007
0.00049659
0.000123754
0.000497007
0.000123773
0.000124068
0.000124043
0.000497007
0.00049659
0.000123739
0.000497007
0.00012376
0.000124061
0.000124015
0.000123696
0.000496587
0.000496587
0.000497007
0.000123791
0.000123779
0.000570493
0.000465067
0.000466833
0.000492292
0.000570914
0.000464989
0.000466566
0.000570417
0.000488411
0.000465986
0.000467289
0.00057082
0.000465246
0.000466884
0.000438466
0.000483054
0.000331071
0.000318576
0.000434216
0.000499636
0.000326846
0.000446958
0.000456957
0.000331868
0.000341059
0.000331112
0.000450658
0.000449348
0.000451047
0.000330776
0.000452008
0.00032769
0.000445305
0.000326636
0.000458557
0.000442345
0.000318659
0.000490171
0.00034086
0.000496701
0.000330528
0.000437067
0.000449276
0.000456134
0.000318872
0.000306655
0.000441251
0.000454462
0.000312606
0.000456562
0.0004599
0.000328801
0.000336954
0.000323898
0.000454023
0.000455364
0.000459126
0.000325843
0.000454582
0.000325048
0.00045058
0.000320257
0.000461663
0.000454564
0.000307556
0.000460288
0.000330595
0.000451396
0.000316715
0.000444809
0.000312789
0.000383844
0.000429294
0.000346628
0.000312965
0.000383757
0.000429162
0.000151461
0.000267063
0.000496619
0.000123058
0.000151485
0.000267063
0.000123042
0.00015146
0.000123028
0.000267061
0.000496619
0.000151432
0.000267063
0.000123035
0.000312389
0.000346368
0.000383209
0.000428171
0.000311623
0.000383622
0.000428884
0.000124074
0.000497007
0.00049659
0.000123735
0.00012373
0.000497007
0.000124065
0.000124195
0.000497007
0.000497007
0.00012426
0.00012426
0.000497007
0.000124195
0.000124066
0.000123725
0.00049659
0.000497007
0.000123725
0.000497007
0.000124066
0.000124074
0.000497007
0.00049659
0.000123735
0.000497007
0.00012373
0.000124065
0.000124195
0.000497007
0.000497007
0.00012426
0.000497007
0.000124195
0.00012426
0.000124066
0.000123725
0.00049659
0.000497007
0.000497007
0.000123725
0.000124066
0.000459102
0.000456621
0.000334411
0.00032812
0.000456489
0.000458935
0.000328157
0.000451353
0.00045982
0.000331897
0.000344449
0.000461015
0.000451442
0.000331846
0.000459354
0.000334299
0.000454982
0.000328377
0.000456117
0.000459419
0.000328131
0.000451137
0.000331674
0.000461555
0.000344689
0.000461384
0.000451034
0.000331686
0.000459105
0.000456668
0.000334425
0.000328025
0.000456582
0.000458927
0.000328056
0.000451405
0.000460149
0.000331762
0.000344422
0.000331723
0.000451893
0.000461183
0.000459348
0.000334161
0.000455161
0.000328253
0.000456182
0.000328075
0.000459681
0.000451151
0.0003316
0.00046157
0.000344676
0.000451038
0.000331609
0.000461464
0.000573119
0.00049311
0.000466096
0.000467921
0.000468019
0.000469071
0.000571968
0.000568339
0.000122961
0.000263636
0.000264076
0.000140918
0.000155023
0.000140094
0.000124042
0.000497007
0.00049659
0.000123746
0.000123752
0.000497007
0.000124068
0.000124043
0.000497007
0.00049659
0.000123739
0.000124061
0.000497007
0.00012376
0.000124015
0.000123701
0.000496587
0.000496587
0.000123784
0.000497007
0.000123775
0.000324745
0.00038773
0.000444086
0.000338785
0.000401313
0.000382689
0.000420706
0.000151567
0.000267019
0.000496619
0.000123091
0.000266952
0.000123133
0.000151543
0.000151557
0.000123114
0.000266197
0.000496619
0.000266872
0.000150163
0.000123155
0.000311376
0.000340524
0.000382281
0.000427623
0.000380836
0.000425271
0.000311202
0.000442164
0.0004765
0.00032759
0.000313493
0.000434431
0.000479321
0.000321862
0.000452386
0.000457733
0.000330945
0.000339912
0.000450942
0.000452316
0.000328811
0.000453811
0.000329389
0.000452595
0.00032695
0.000446147
0.000459692
0.000324734
0.000448175
0.000314446
0.000481321
0.000337509
0.00043845
0.000476636
0.0003268
0.000569577
0.000465044
0.000466797
0.00049257
0.0005699
0.000465244
0.000465601
0.000570156
0.000488379
0.000465927
0.000466938
0.00046606
0.000465942
0.000570048
0.000445623
0.000462264
0.000322355
0.000311655
0.000440871
0.000468776
0.000317441
0.000450933
0.000459076
0.000329725
0.000338021
0.000326243
0.000452177
0.000453685
0.000456331
0.000327086
0.000454192
0.000325773
0.000449752
0.000322172
0.000460214
0.000448801
0.0003117
0.000468779
0.000333925
0.000469384
0.000322244
0.000443258
0.000124074
0.000497007
0.00049659
0.000123735
0.00012373
0.000497007
0.000124065
0.000124195
0.000497007
0.000497007
0.00012426
0.00012426
0.000497007
0.000124195
0.000124066
0.000123725
0.00049659
0.000497007
0.000123725
0.000497007
0.000124066
0.000312802
0.000383845
0.000429286
0.000346699
0.000312971
0.000383769
0.000429198
0.000151462
0.000267063
0.000496619
0.000123057
0.000151484
0.000267063
0.000123043
0.00015146
0.000123028
0.000267061
0.000496619
0.000151432
0.000267063
0.000123035
0.000312424
0.000346266
0.000383083
0.000428523
0.000311832
0.000383541
0.000428959
0.000124195
0.000497007
0.000497007
0.00012426
0.000497007
0.000124195
0.00012426
0.000124074
0.000497007
0.00049659
0.000123735
0.000497007
0.00012373
0.000124065
0.000124066
0.000123725
0.000497007
0.00049659
0.000497007
0.000124066
0.000123725
0.000459089
0.000334308
0.000456662
0.000327938
0.00045661
0.000327954
0.000458947
0.000451458
0.000460983
0.000331155
0.000344197
0.000461493
0.000452343
0.000331312
0.000459434
0.000333848
0.000455955
0.000327823
0.000456432
0.000460203
0.000327717
0.000451103
0.000331552
0.000344583
0.000461632
0.000461565
0.000331561
0.000451015
0.000459122
0.000456641
0.000334325
0.000328027
0.000456571
0.000458944
0.000328061
0.000451422
0.000460443
0.000331653
0.000344352
0.00033161
0.000451643
0.000461267
0.000459418
0.000334019
0.000455638
0.000328116
0.000456325
0.000327899
0.000459703
0.0004512
0.000331629
0.000461603
0.000344608
0.000451045
0.000331637
0.000461488
0.00012427
0.000497007
0.000497007
0.000124269
0.00012427
0.000497007
0.000124269
0.00012427
0.000497007
0.000497007
0.000124269
0.000124269
0.000497007
0.00012427
0.000124271
0.000124271
0.000497007
0.000497007
0.000124271
0.000497007
0.000124271
0.00012427
0.000497007
0.000497007
0.000124269
0.00012427
0.000497007
0.000124269
0.00012427
0.000497007
0.000497007
0.000124269
0.000124269
0.000497007
0.00012427
0.000124271
0.000124271
0.000497007
0.000497007
0.000124271
0.000497007
0.000124271
0.00012427
0.000497007
0.000497007
0.000124269
0.000497007
0.00012427
0.000124269
0.00012427
0.000497007
0.000497007
0.000124269
0.000497007
0.00012427
0.000124269
0.000124271
0.000124271
0.000497007
0.000497007
0.000497007
0.000124271
0.000124271
0.000312795
0.000383764
0.000346636
0.000429278
0.000383775
0.000312944
0.000429197
0.00015146
0.000267061
0.000496619
0.000123057
0.000123043
0.000267061
0.000151466
0.000151459
0.000123028
0.000496619
0.000267063
0.000123035
0.000267061
0.000151449
0.000312477
0.000346282
0.000383021
0.000428528
0.000383577
0.000311888
0.000428959
0.000124195
0.000497007
0.000497007
0.00012426
0.000124195
0.000497007
0.00012426
0.000124074
0.000497007
0.00049659
0.000123735
0.000124065
0.000497007
0.00012373
0.000124066
0.000123725
0.000497007
0.00049659
0.000124066
0.000497007
0.000123725
0.000312842
0.000383768
0.000429281
0.000346653
0.000312969
0.000383726
0.000429228
0.00015146
0.000267063
0.000496619
0.000123057
0.000267063
0.000123043
0.000151484
0.000151459
0.000123028
0.000267061
0.000496619
0.000267063
0.000151432
0.000123035
0.000312535
0.000346243
0.00038317
0.000428493
0.000383513
0.000428998
0.000311999
0.000459108
0.000334322
0.000456691
0.000328028
0.000456593
0.000328055
0.000458988
0.000451435
0.000460686
0.00033153
0.00034423
0.000451829
0.000331476
0.000461348
0.000459432
0.000333936
0.000455726
0.00032804
0.000459972
0.000456334
0.000327865
0.000451162
0.000331625
0.000344598
0.000461624
0.000331634
0.000451021
0.000461517
0.00045909
0.000456704
0.000334309
0.00032796
0.000456609
0.000458948
0.00032798
0.000451492
0.000460982
0.00033118
0.000344197
0.000331312
0.000452334
0.000461492
0.000459434
0.000333848
0.000455989
0.000327822
0.000456432
0.000327717
0.000460202
0.000451135
0.000331528
0.000461671
0.000344609
0.000451013
0.000331534
0.000461608
0.000124038
0.000497007
0.00049659
0.000123739
0.000123768
0.000497007
0.000124061
0.000124042
0.000497007
0.00049659
0.000123746
0.000124068
0.000497007
0.000123757
0.000124008
0.000123708
0.000496587
0.000496587
0.000123773
0.000497007
0.000123783
0.000574001
0.000493319
0.000467817
0.000466251
0.000468795
0.000468302
0.000571731
0.000569114
0.000122984
0.000263783
0.000263732
0.000140252
0.000155161
0.000140781
0.000319009
0.000393625
0.000342314
0.000448966
0.000385263
0.000413321
0.000416501
0.000151512
0.000267019
0.000496619
0.000123094
0.000266952
0.000123146
0.00015153
0.000151457
0.000123209
0.000496619
0.000266265
0.000266865
0.000123218
0.000150522
0.00030875
0.000341618
0.000382593
0.000426736
0.000381946
0.000423077
0.000310338
0.000444027
0.0003244
0.000466036
0.000314558
0.000440556
0.000320283
0.00047681
0.000448597
0.000458202
0.000330353
0.000338974
0.000452038
0.000451426
0.000327768
0.000455051
0.000327829
0.000453848
0.000326243
0.000449217
0.000459317
0.000323312
0.000444903
0.000313703
0.000336517
0.000476246
0.00044094
0.000325868
0.000482071
0.000569444
0.000466324
0.00046518
0.000492625
0.000569713
0.000465183
0.000465652
0.000570462
0.000488322
0.000466429
0.000466497
0.000465469
0.00046671
0.000570255
0.00044356
0.000325586
0.000472798
0.000310486
0.00043492
0.000318937
0.000468003
0.000454664
0.000458518
0.000330257
0.000338955
0.000327201
0.000453148
0.000452611
0.000455057
0.00032866
0.000452884
0.00032643
0.000446696
0.000323532
0.000460347
0.000451989
0.000312323
0.000335012
0.00047367
0.000323036
0.00046509
0.000440834
0.000124195
0.000497007
0.000497007
0.00012426
0.000124195
0.000497007
0.00012426
0.000124074
0.000497007
0.00049659
0.000123735
0.000124065
0.000497007
0.00012373
0.000124066
0.000123725
0.000497007
0.00049659
0.000124066
0.000497007
0.000123725
0.000312797
0.000383846
0.000346629
0.000429238
0.000383791
0.000312965
0.000429177
0.000151461
0.000267063
0.000496619
0.000123058
0.000123042
0.000267061
0.000151485
0.000151442
0.000123028
0.000496619
0.000267063
0.000123035
0.000267058
0.000151449
0.000312415
0.000346337
0.000383161
0.000428279
0.000383635
0.000311661
0.000428906
0.00031274
0.000383841
0.000346691
0.000429234
0.00038375
0.00031294
0.000429183
0.000151461
0.000267061
0.000496619
0.000123058
0.000267063
0.000123042
0.000151485
0.000151442
0.000123028
0.000496619
0.000267061
0.000267061
0.000123035
0.000151449
0.000312301
0.000346426
0.000383229
0.000428249
0.000383493
0.000428906
0.000311473
0.00045905
0.000334348
0.000456698
0.000328033
0.000456568
0.000328056
0.000458932
0.000451458
0.000460517
0.000331579
0.000344371
0.000452081
0.000331538
0.000461323
0.000459344
0.000334111
0.000455307
0.000328082
0.000459784
0.000456235
0.000327946
0.000451162
0.000331598
0.000344671
0.000461578
0.000331604
0.000451037
0.000461524
0.000459101
0.00033441
0.000456674
0.000328119
0.000456498
0.000328156
0.000458935
0.000451319
0.000459821
0.000331894
0.000344449
0.000331847
0.000451407
0.000461016
0.000459354
0.000334299
0.000454946
0.000328378
0.000456117
0.000328131
0.000459421
0.000451137
0.000331673
0.000344688
0.000461525
0.000331684
0.000451033
0.000461393
0.000324754
0.000386438
0.000337001
0.000442235
0.000382056
0.000399554
0.000419802
0.000151567
0.000267017
0.000496619
0.000123091
0.000123133
0.000266952
0.000151525
0.000151545
0.000123156
0.000496619
0.000266199
0.000123162
0.000266872
0.000150125
0.000311563
0.000339794
0.000382176
0.000427629
0.000380669
0.000311388
0.000425221
0.000318739
0.000395859
0.000345287
0.000452016
0.000386457
0.000416224
0.000417751
0.000151488
0.000267017
0.000496619
0.000123097
0.000123145
0.000266952
0.000151517
0.000151482
0.000123242
0.000496619
0.000266075
0.00012323
0.000266874
0.000150651
0.000308428
0.000342812
0.000382757
0.000426759
0.000382437
0.000310012
0.000423252
0.000573349
0.000493194
0.000467729
0.000466336
0.000468914
0.000468105
0.000571679
0.000568578
0.00012294
0.000264073
0.000263638
0.000155023
0.000140066
0.00014095
0.000449243
0.000318892
0.000456159
0.000306642
0.000441203
0.000312616
0.000454496
0.000456595
0.0004599
0.000328777
0.000337024
0.000454033
0.000323957
0.000455364
0.000459127
0.000325848
0.000454616
0.000325071
0.000461696
0.000450715
0.000320299
0.000454533
0.000307516
0.00033058
0.000460366
0.000316701
0.000451376
0.000444787
0.00043841
0.000331046
0.000482943
0.000318447
0.000434149
0.000326714
0.000499649
0.000446945
0.00045696
0.000331875
0.000340894
0.000450651
0.000331015
0.000449289
0.000450982
0.000330752
0.000451973
0.000327666
0.000458522
0.00044527
0.000326501
0.00044237
0.000318558
0.000340882
0.000490063
0.000330435
0.000496579
0.000437009
0.000570768
0.000466833
0.000465202
0.000492276
0.000570914
0.000466566
0.000464967
0.000570768
0.000488578
0.000467534
0.000465802
0.000466909
0.000465289
0.000570999
0.000153094
0.000496188
6.90318e-05
0.000376947
0.000152346
0.000495945
6.91048e-05
0.000333759
0.000421237
0.00033589
0.000363346
0.000336056
0.000418255
0.000363817
0.000341907
0.000381329
0.000453966
0.000339965
0.000415699
0.000413474
0.000368246
0.000153156
0.000376884
0.000495672
6.90741e-05
0.000153147
0.000495797
6.90968e-05
0.000153166
0.000496126
6.90366e-05
0.000376972
0.00015198
0.000495835
6.90948e-05
0.000337068
0.000422263
0.000332592
0.000362749
0.000337495
0.000420236
0.000361848
0.000348064
0.0003712
0.000442385
0.000330938
0.000412202
0.000415716
0.00036348
0.000153178
0.000376859
0.000495665
6.90741e-05
0.000153119
0.000495789
6.90968e-05
0.000497157
0.000496727
0.000378448
0.000378486
0.000496168
0.000496005
0.00039793
0.000497334
0.000497327
0.000405063
0.000405059
0.000404525
0.000497277
0.000497265
0.000497173
0.000378447
0.000495601
0.000400609
0.000495734
0.000400231
0.000497004
0.000497168
0.000378427
0.00049549
0.000400609
0.000495617
0.000400199
0.000497004
0.000153076
0.000495608
6.90978e-05
0.00037681
0.000153077
0.000495608
6.90978e-05
0.000338678
0.00042251
0.000338241
0.000363551
0.000337816
0.000422906
0.000363881
0.000339106
0.000364051
0.00042319
0.000338602
0.000339263
0.000423115
0.000363972
0.000153057
0.000376781
0.000495615
6.90891e-05
0.000153095
0.000495603
6.90874e-05
0.000497083
0.000495479
0.000378483
0.00040064
0.000495477
0.000497084
0.000400671
0.000497173
0.000497353
0.00040513
0.000405674
0.000497337
0.000497196
0.000405126
0.000497012
0.000378453
0.000495445
0.000400643
0.000495436
0.000497034
0.000400675
0.000497194
0.000405139
0.000497306
0.000405672
0.000497307
0.000497193
0.000405106
0.000497083
0.000495479
0.000378483
0.00040064
0.000495477
0.000497084
0.000400671
0.000497173
0.000497353
0.00040513
0.000405674
0.000405126
0.000497196
0.000497337
0.000497012
0.000378453
0.000495445
0.000400643
0.000495436
0.000400675
0.000497034
0.000497194
0.000405139
0.000497306
0.000405672
0.000497193
0.000405106
0.000497307
0.000572065
0.000496862
6.92225e-05
6.92163e-05
0.000142718
0.000141929
0.000166028
0.000575033
0.000495655
0.000467283
0.00046918
0.000470246
0.000571722