/*--------------------------------*- C++ -*----------------------------------*\
| =========                 |                                                 |
| \\      /  F ield         | OpenFOAM: The Open Source CFD Toolbox           |
|  \\    /   O peration     | Version:  2412                                  |
|   \\  /    A nd           | Website:  www.openfoam.com                      |
|    \\/     M anipulation  |                                                 |
\*---------------------------------------------------------------------------*/
FoamFile
{
    version     2.0;
    format      ascii;
    arch        "LSB;label=32;scalar=64";
    class       volScalarField;
    location    "0/chip";
    object      nonOrthoAngle;
}
// * * * * * * * * * * * * * * * * * * * * * * * * * * * * * * * * * * * * * //

dimensions      [0 0 0 0 0 0 0];

internalField   nonuniform List<scalar> 
7068
(
0
0
0
0
78.014
78.016
78.016
78.0175
0
0.0971027
0
0
0.0790203
0.083588
0
0.0963895
0
0
0.0835956
0.0835901
0
0
0
0.0252339
0.0252339
0.0252339
0.0252339
0
0.0835932
0.0835956
0
0.097737
0
0.083593
0.0790203
0.0971027
78.0175
78.016
78.016
78.0175
78.016
78.016
78.014
78.014
78.014
78.016
78.0175
78.016
0.889036
0.0986551
17.11
0.107959
0.107959
17.1126
10.0385
0.107959
0.0767461
17.2197
17.1097
0.107959
0.107958
17.1955
78.013
0
0
78.0122
0
78.0126
78.0126
78.0102
0.0758695
0
78.0185
0.0758693
78.0098
78.019
10.2612
0.107959
0.0790128
17.2691
78.0102
0
0.0758695
78.0185
0.0758697
78.019
78.0099
78.0095
0.0758695
0.0758695
78.0233
0.0801796
78.0145
78.0154
49.4591
1.17331
50.4731
18.2184
18.2109
50.4741
50.4538
18.1881
18.2549
50.4739
50.4731
18.208
18.2113
50.4827
0.00986983
78.0135
78.0135
0.0197742
78.0133
0.0150947
0.0150965
3.17654
78.0256
78.0157
0.014754
78.0258
3.1643
0.0137635
50.4449
18.1914
18.2224
50.4739
3.17654
78.0157
78.0256
0.014754
78.0258
0.0137635
3.1643
2.66071
78.0254
78.0255
0.0137833
78.0282
3.15189
3.15189
9.73801
0.107959
0.0767461
17.1567
10.7122
0.107959
0.0745171
17.3631
78.0095
0.0758695
0.0758695
78.0233
0.0801796
78.0154
78.0145
1.30732
2.60613
18.142
18.311
17.94
18.0623
17.9688
18.3718
17.971
18.0428
78.046
78.0233
18.4535
18.4282
78.0396
78.0396
18.4228
17.1101
0.107959
0.107958
17.1441
78.0102
0.0758695
0
78.0184
0.0758693
78.0099
78.019
78.0102
0.0758695
0
78.0185
0.0758696
78.01
78.019
17.9784
18.3745
17.9958
18.3619
17.9787
18.3772
17.9929
18.3624
78.0392
78.0196
18.3745
0.0836789
78.0391
78.019
18.3634
78.0392
78.0196
18.3772
0.0836785
78.0392
78.019
18.3662
0.884063
0.0986551
78.0093
0.0758695
0.0758695
78.0232
0.0801796
78.0153
78.0148
10.4265
0.107959
0.0753427
17.29
18.0882
18.3309
17.9519
18.0552
1.27456
2.42048
78.046
78.0232
18.4432
18.4374
78.0396
78.0396
18.3307
18.0187
18.3517
17.9631
18.0356
78.0102
0.0758695
0
78.0185
0.0758697
78.01
78.019
17.1205
0.107959
0.107959
17.1639
78.0102
0
0.0758695
78.0185
0.0758692
78.019
78.0099
17.9791
18.3772
17.982
18.3627
78.0392
78.0196
18.3772
0.0836786
78.0392
78.019
18.3643
17.9785
18.3752
17.9893
18.3619
78.0392
78.0196
0.0836785
18.3752
78.019
78.0392
18.3657
78.013
0
0
78.0122
0
78.0126
78.0126
78.013
0
0
78.0122
0
78.0126
78.0126
78.013
0
0
78.0122
0
78.0126
78.0126
17.1104
0.107959
0.107959
17.164
78.0102
0
0.0758695
78.0185
0.0758696
78.019
78.01
17.1104
0.107959
0.107958
17.1955
78.0392
78.0196
18.3745
0.0836785
78.0392
78.019
18.3652
17.9787
18.3745
17.9868
18.3621
78.0392
78.0196
0.0836786
18.3772
78.019
78.0392
18.3643
17.9791
18.3772
17.9821
18.3625
78.0095
0.0758695
0.0758695
78.0234
0.0801796
78.015
78.0148
0.878275
0.0949448
10.2054
0.107959
0.0767461
17.2609
18.0479
18.3364
17.9575
18.0418
78.0459
78.0234
18.4435
18.4383
78.0397
78.0397
18.3183
1.25508
2.5101
18.0607
18.3479
17.956
18.0492
78.0102
0
0.0758695
78.0184
0.0758692
78.019
78.0099
17.1208
0.107959
0.107958
17.1644
17.1208
0.107959
0.107959
17.1122
78.0392
78.0196
0.0836786
18.3763
78.019
78.0392
18.3655
78.0392
78.0196
0.083679
18.3746
78.019
78.0391
18.3635
17.9787
18.3763
17.9905
18.3625
17.9783
18.3746
17.9958
18.3618
10.7014
0.107959
0.0745171
17.3628
9.73857
0.107959
0.0767461
17.1564
0.888472
0.0986551
78.046
78.0233
18.4318
18.4498
78.0396
78.0395
18.4225
17.969
18.3719
17.9711
18.0385
18.1421
18.3107
17.9399
18.0605
1.30676
2.597
50.4537
18.1818
18.2825
50.4739
50.4546
18.2001
18.1681
50.4739
2.66072
78.0255
78.0254
0.0137833
78.0281
3.15189
3.15189
50.4731
18.2151
18.2111
50.4741
3.17654
78.0257
78.0157
0.0147549
78.0258
3.1643
0.0137635
3.17654
78.0257
78.0157
0.0147549
78.0258
3.1643
0.0137635
49.4409
1.16491
2.66071
78.0254
78.0255
0.0137833
78.0281
3.15189
3.15189
50.4449
18.1938
18.1936
50.4739
3.17654
78.0256
78.0157
0.014754
78.0258
3.1643
0.0137635
50.4731
18.2134
18.2109
50.4741
3.17654
78.0157
78.0257
0.0147549
78.0258
0.0137635
3.1643
0.00986974
78.0135
78.0135
0.0197742
78.0133
0.015096
0.0150946
0.00986976
78.0135
78.0135
0.0197742
78.0133
0.0150942
0.0150966
0.00986967
78.0135
78.0135
0.0197742
78.0133
0.0150961
0.0150941
50.4731
18.211
18.211
50.4827
3.17654
78.0157
78.0256
0.014754
78.0258
0.0137635
3.1643
50.4731
18.208
18.2113
50.4827
2.64854
78.0255
78.0255
0.0137833
78.0282
3.15189
3.15189
49.4411
1.17299
50.4536
18.1933
18.226
50.4739
3.17654
78.0157
78.0257
0.0147549
78.0258
0.0137635
3.1643
50.4731
18.2126
18.2111
50.4741
50.4731
18.2184
18.2108
50.4741
50.4449
18.2001
18.1699
50.4739
50.4538
18.1819
18.2811
50.4739
49.4409
1.16744
78.023
0
0
78.023
0
78.023
78.023
78.0241
0.00604017
0
78.0232
0.00604017
78.024
78.0232
78.0241
0
0.00604017
78.0232
0.00604017
78.0232
78.024
78.025
0.00604017
0.00604017
78.0233
0.0108066
78.0242
78.0242
78.025
0.00604017
0.00604017
78.0233
0.0108066
78.0242
78.0242
78.0241
0.00604017
0
78.0232
78.0232
0.00604017
78.024
78.0241
0.00604017
0
78.0232
0.00604017
78.024
78.0232
78.025
0.00604017
0.00604017
78.0233
78.0242
0.0108066
78.0242
78.0241
0.00604017
0
78.0232
78.0232
0.00604017
78.024
78.0241
0
0.00604017
78.0232
0.00604017
78.0232
78.024
78.023
0
0
78.023
78.023
0
78.023
78.023
0
0
78.023
78.023
0
78.023
78.023
0
0
78.023
0
78.023
78.023
78.0241
0
0.00604017
78.0232
78.024
0.00604017
78.0232
78.025
0.00604017
0.00604017
78.0233
78.0242
0.0108066
78.0242
78.0241
0
0.00604017
78.0232
78.024
0.00604017
78.0232
6.93156
0.7047
49.1951
49.1283
49.1522
49.0322
6.9695
6.8279
78.0525
17.5651
17.5337
40.0718
77.7913
77.791
22.9349
22.924
21.7071
17.1103
22.924
22.9349
21.7196
77.6741
17.3205
0.107959
78.0439
17.3199
77.6748
78.0442
77.674
78.0444
17.3202
0.107959
17.3199
77.6742
78.0442
22.937
17.1006
22.93
21.7489
22.93
22.937
21.73
22.2309
11.4284
10.2539
17.8588
11.4284
22.2309
21.2229
77.678
17.3233
0.098467
78.0434
17.3407
77.6754
78.043
77.6822
78.0447
17.406
0.0966514
17.3455
77.6938
78.0429
22.9768
17.487
22.9619
21.8058
22.9619
22.9768
21.8696
22.9542
22.9338
17.1101
21.708
22.9542
22.9338
21.717
77.674
17.3199
0.107959
78.0439
17.3199
77.6743
78.0441
77.6738
78.0444
0.107959
17.3199
17.3199
78.0442
77.6738
22.9659
17.1319
22.9983
21.7859
22.9983
22.9659
21.7368
78.023
0
0
78.023
0
78.023
78.023
78.023
0
0
78.023
0
78.023
78.023
78.023
78.023
0
0
0
78.023
78.023
78.0264
0.00603884
0.0758695
78.032
0.0114592
78.0262
78.032
78.0242
0
0.00604009
78.0231
0.00604017
78.0231
78.0242
78.0265
78.0321
0.0758695
0.0114592
0.0114592
78.0321
78.0265
22.9679
12.0598
18.1099
10.5867
22.9679
12.0598
21.4952
77.6767
17.3233
0.100322
78.0434
17.3407
77.6749
78.0429
77.6797
78.0445
0.0945746
17.3929
17.3425
78.0429
77.6942
23.2514
17.5937
23.0603
21.8497
23.0603
23.2514
21.9836
78.0242
0
0.00604031
78.0231
0.00604017
78.0231
78.0242
78.0264
0.00603884
0.0758695
78.032
0.0114592
78.0262
78.032
78.0265
78.0321
0.0114591
0.0758695
0.0114592
78.0265
78.0321
78.0271
0.00603884
0.0737958
78.032
0.0054019
78.0264
78.0319
78.0271
0.00603884
0.0763513
78.0317
0.0054019
78.0263
78.0319
78.0287
78.0358
0.0700133
0.0681653
0.010801
78.0325
78.0327
6.83073
3.31505
41.0264
41.0744
77.7287
77.7285
37.0811
6.93467
0.666028
49.2144
49.1103
6.9697
49.1152
49.055
77.6185
5.64255
41.2628
50.4731
77.6185
5.63568
41.2593
25.795
21.0551
18.2084
25.7962
21.0416
25.7962
25.795
25.8031
25.8119
21.0293
18.2143
21.0326
25.8119
25.8031
77.6184
50.4731
5.62316
41.2564
77.6185
5.6295
41.2626
77.6271
3.51072
41.1349
50.4647
77.6364
5.6639
41.2171
25.7834
21.1126
18.2483
25.8313
21.1891
25.8313
25.7834
24.7621
18.3599
10.5388
18.5906
20.6416
12.6381
24.7621
77.6224
50.4643
5.63344
41.2591
77.6194
5.67659
41.2373
77.6185
5.64206
50.4731
41.2628
5.6384
77.6185
41.2593
25.823
21.0954
18.2114
25.8625
21.0571
25.8625
25.823
25.8123
25.8119
18.2128
21.0336
21.0395
25.8123
25.8119
77.6184
50.4731
5.64026
41.2599
77.6184
5.63693
41.2626
78.0127
78.0133
0.0121348
0.0121354
78.013
78.013
0.00995855
78.014
78.0108
0.0139789
0.0139789
78.0124
78.0124
0.00575571
78.0133
0.0106613
78.012
0.0159094
78.0118
78.0135
0.00854055
78.0134
0.0106621
78.012
0.0159094
78.0118
78.0135
0.00854055
78.0258
77.9935
3.17652
0.211392
77.9935
78.0258
0.20835
78.0086
78.0146
0.0655059
0.0138199
78.0072
78.016
0.0634759
78.0256
3.17654
77.9934
0.209738
78.025
77.9942
0.208459
78.008
0.0642784
78.0157
0.0137855
78.0155
78.0082
0.0656084
77.625
3.55354
50.4645
41.1705
5.77771
77.6364
41.2328
25.9631
21.1386
18.2502
25.8884
21.2295
25.8884
25.9631
25.2576
18.3426
18.5296
10.4851
20.7127
25.2576
13.0605
77.6214
50.4644
5.64461
41.2626
77.6193
5.71631
41.2399
78.0258
77.9935
0.211391
3.17652
78.0258
77.9935
0.20835
78.0086
78.0146
0.0138199
0.0655059
78.016
78.0072
0.0634759
78.008
0.064281
78.0157
0.0137855
78.0155
78.0082
0.0656084
78.0256
3.17654
77.9934
0.209738
78.025
77.9942
0.208459
78.0282
77.9896
3.12437
3.10003
78.0082
78.0108
0.251568
78.0046
78.0175
0.059312
0.0593133
78.0111
78.0112
0.0863413
78.0222
3.15137
77.9966
0.203404
78.0254
77.9929
0.197284
78.0214
3.13923
77.9973
0.203404
78.0255
77.9927
0.197741
22.0607
11.287
10.1151
17.4874
11.287
22.0607
21.0993
77.6784
17.3236
0.098467
78.0433
77.6754
17.3407
78.043
77.6826
78.0447
17.406
0.0966514
77.6936
17.3455
78.0428
22.8975
17.341
22.9225
21.7784
22.9225
22.8975
21.8086
23.2441
12.2856
10.8858
18.7062
12.2856
23.2441
21.7828
77.6765
17.3233
0.100322
78.0434
77.6749
17.3407
78.0429
77.6787
78.0447
17.3862
0.0945746
77.6938
17.3373
78.0429
23.3797
17.8326
23.1091
21.8889
23.1091
23.3797
22.0938
78.0271
0.00603884
0.0763513
78.0317
0.0054019
78.0319
78.0263
78.0271
0.00603884
0.0737958
78.032
0.0054019
78.0319
78.0264
78.0287
78.0358
0.0681653
0.0700133
0.010801
78.0327
78.0325
7.00201
49.1692
49.1193
1.51796
6.9866
49.1532
49.1177
7.00199
2.47118
49.1854
49.1158
6.9892
49.1624
49.1174
3.76586
6.81291
17.815
18.1489
9.83683
5.18769
17.7473
2.21918
8.31075
18.1623
18.4535
18.3429
2.07867
8.52814
3.61207
18.0842
9.27299
17.933
9.44896
18.1071
3.57834
3.20142
18.0049
6.71608
18.1705
5.00683
18.0055
9.06547
4.03516
7.53095
17.9396
17.9458
10.624
5.79089
17.9074
2.21374
8.45553
18.2224
18.4282
18.2895
2.10252
8.82799
3.73726
17.995
9.40656
17.9731
9.77066
17.9973
3.63559
3.31703
17.9332
7.40843
18.4228
5.57379
18.2684
9.78691
22.9349
22.924
21.7058
17.1208
22.924
22.9349
21.7177
77.6741
17.3199
0.107959
78.0439
77.6744
17.3199
78.0442
77.674
78.0444
17.3202
0.107959
77.6742
17.3199
78.0442
22.9367
17.1217
22.9395
21.7575
22.9395
22.9367
21.7314
78.0264
0.00603884
0.0758695
78.032
78.032
0.0114592
78.0262
78.0242
0
0.00604009
78.0231
78.0231
0.00604017
78.0242
78.0265
78.0321
0.0758695
0.0114592
78.0321
0.0114592
78.0265
78.0264
0.00603884
0.0758695
78.032
0.0114592
78.032
78.0262
78.0242
0
0.00604025
78.0231
0.00604017
78.0242
78.0231
78.0265
78.0321
0.0758695
0.0114591
0.0114592
78.0321
78.0265
3.58139
9.22267
17.981
17.9882
9.22218
3.58167
17.9921
2.04494
8.27039
18.236
18.3528
8.2725
2.04509
18.2057
3.58075
17.9716
9.21958
18.0087
9.22102
3.57972
17.9793
2.04467
18.2117
8.27431
18.3634
8.27388
2.0432
18.216
3.59276
9.22249
17.9802
17.9886
9.21103
3.59299
17.9912
2.04593
8.29266
18.2332
18.3596
18.209
2.04959
8.28348
3.58088
17.9731
9.25299
18.0021
9.22137
17.9817
3.57978
2.05023
18.2122
8.27431
18.3662
2.04601
18.218
8.28475
6.92716
0.684402
49.1628
49.15
49.1528
49.0238
6.97276
6.82714
78.0523
17.5623
17.5348
77.7915
40.0718
77.7911
78.0271
0.00603884
0.0741921
78.0319
78.0322
0.0054019
78.0263
78.0271
0.00603884
0.0737958
78.032
78.0264
0.0054019
78.0319
78.0287
78.0359
0.0681653
0.0700133
78.0328
0.010801
78.0326
23.0763
12.1456
10.6823
18.3254
12.1456
23.0763
21.5914
77.6764
17.3233
0.100322
78.0434
17.3407
78.0429
77.675
77.6789
78.0451
17.3833
0.0945746
17.3373
77.6937
78.0431
23.3105
17.6764
23.0898
21.8637
23.3105
22.0198
23.0898
4.08603
7.19245
17.848
18.073
10.3574
5.50047
17.805
2.19348
8.37704
18.1848
18.4432
8.69209
2.08195
18.3204
3.712
18.0578
9.32795
17.9485
9.62408
3.61211
18.0692
3.3077
17.967
7.11495
18.254
9.56238
5.26164
18.1038
7.00914
49.2372
49.2121
1.44983
6.99699
49.2011
49.2406
7.00045
2.38716
49.2285
49.2336
49.1278
49.2094
7.00611
3.6995
7.15873
17.9026
18.0213
10.121
5.49015
17.8469
2.21683
8.40024
18.1994
18.4374
18.3114
2.09699
8.67426
3.62538
18.0206
9.35084
17.9603
9.59427
18.038
3.59055
3.22286
17.9624
7.01964
18.3307
5.32873
18.1687
9.29647
78.0264
0.00603884
0.0758695
78.032
78.032
0.0114592
78.0262
78.0242
0
0.00604031
78.0231
78.0231
0.00604017
78.0242
78.0265
78.0321
0.0758695
0.0114591
78.0321
0.0114592
78.0265
22.9349
22.924
21.7087
17.1208
22.924
22.9349
21.7168
77.6741
17.3199
0.107959
78.0439
77.6743
17.3199
78.0441
77.674
78.0444
17.3202
0.107959
77.6742
17.3199
78.0442
22.9469
17.1317
22.9793
21.7737
22.9793
22.9469
21.735
78.0242
0
0.00604003
78.0231
0.00604017
78.0242
78.0231
78.0264
0.00603884
0.0758695
78.032
0.0114592
78.032
78.0262
78.0265
78.0321
0.0114592
0.0758695
0.0114592
78.0265
78.0321
3.60405
17.9804
9.23365
17.9891
9.23342
17.9892
3.59304
2.05499
8.34808
18.2286
18.3648
8.30586
2.06676
18.2146
3.5922
17.9783
9.29747
17.9908
9.25462
3.59124
17.986
2.05145
18.2125
18.3643
8.27435
8.28496
18.2158
2.04714
3.58143
9.23363
17.9815
17.9883
9.2331
3.58165
17.9907
2.04872
8.29275
18.2312
18.36
18.2093
2.05691
8.2726
3.5808
17.9758
9.24207
17.9993
9.23215
17.9823
3.57971
2.04589
18.2117
8.27431
18.3657
2.04426
18.2177
8.27386
78.023
0
0
78.023
78.023
0
78.023
78.023
0
0
78.023
78.023
0
78.023
78.023
78.023
0
0
78.023
0
78.023
78.023
0
0
78.023
78.023
0
78.023
78.023
0
0
78.023
78.023
0
78.023
78.023
78.023
0
0
78.023
0
78.023
78.023
0
0
78.023
0
78.023
78.023
78.023
0
0
78.023
0
78.023
78.023
78.023
78.023
0
0
0
78.023
78.023
22.9448
22.9338
17.1208
21.7112
22.9448
22.9338
21.7192
77.674
17.3202
0.107959
78.0439
78.0441
17.3202
77.6748
77.6739
78.0444
0.107959
17.3199
78.0442
17.3202
77.6738
22.9465
17.1422
22.9887
21.7772
22.9465
22.9887
21.7353
78.0242
0
0.00604025
78.0231
78.0242
0.00604017
78.0231
78.0264
0.00603884
0.0758695
78.032
78.0262
0.0114592
78.032
78.0265
78.0321
0.0114591
0.0758695
78.0265
0.0114592
78.0321
22.9542
22.9338
21.7098
17.1104
22.9338
22.9542
21.7179
77.674
17.3199
0.107959
78.0439
17.3199
78.0441
77.6744
77.6738
78.0444
17.3202
0.107959
17.3199
77.6742
78.0442
22.9659
17.1319
22.9983
21.7873
22.9659
21.7382
22.9983
3.58147
17.9811
9.23344
17.9885
9.23315
17.9902
3.58168
2.05429
8.31489
18.2287
18.3615
2.05826
18.2111
8.29472
3.58082
17.977
9.27524
17.9976
3.57983
9.24343
17.9837
2.04897
18.2119
18.3652
8.27432
18.217
2.04335
8.28491
3.60398
9.23347
17.9804
17.9889
9.23342
3.59296
17.9892
2.05655
8.34808
18.2286
18.3648
18.2146
2.06612
8.30583
3.5922
17.9783
9.29728
17.9908
9.25462
17.986
3.59131
2.05458
18.2124
8.27419
18.3643
2.04875
18.2159
8.28477
78.0272
0.00603884
0.0737958
78.032
78.0319
0.0054019
78.0264
78.0271
0.00603884
0.0741921
78.0319
78.0263
0.0054019
78.0321
78.029
78.036
0.0700133
0.0681653
78.0328
0.010801
78.0327
6.93263
0.675671
49.166
49.1708
49.038
49.1616
6.97522
6.82507
78.0521
17.5426
17.5467
77.791
40.0763
77.791
22.3401
11.5147
18.0848
10.3411
22.3401
11.5147
21.3138
77.6778
17.3233
0.098467
78.0434
17.3407
78.0429
77.6754
77.6818
78.0449
0.0966514
17.3997
17.3475
78.0428
77.6937
23.0263
17.5801
22.9817
21.8211
23.0263
21.9122
22.9817
3.74025
17.8836
6.96655
18.0611
9.8585
17.8112
5.33001
2.23096
8.367
18.1883
18.4435
8.59724
2.09323
18.3267
3.55787
18.036
9.29593
17.9493
9.49505
3.57894
18.0569
3.14962
17.9785
18.268
6.83608
9.1011
18.1091
5.20208
7.01004
49.2435
49.2461
1.43277
7.00402
49.2529
49.1931
6.99964
2.37684
49.2607
49.1922
49.1891
49.0916
7.00697
4.31091
17.8687
7.39096
18.033
10.6075
17.8413
5.67424
2.18739
8.41021
18.1972
18.4383
18.306
2.07688
8.76914
3.80228
18.0428
9.36143
17.9568
9.72321
18.0479
3.64623
3.34741
17.9505
18.3183
7.29611
18.1652
5.38787
9.74727
78.0242
0
0.00604003
78.0231
78.0242
0.00604017
78.0231
78.0264
0.00603884
0.0758695
78.032
78.0262
0.0114592
78.032
78.0265
78.0321
0.0114592
0.0758695
78.0265
0.0114592
78.0321
22.9345
22.924
17.1208
21.7092
22.9345
22.924
21.7186
77.6742
17.3199
0.107959
78.0439
78.0442
17.3202
77.6743
77.6744
78.0444
0.107959
17.3199
78.0442
17.3205
77.6738
22.9363
17.1318
22.9494
21.7626
22.9363
22.9494
21.7333
22.9349
22.924
17.1103
21.7105
22.9349
22.924
21.7197
77.6741
17.3202
0.107959
78.0439
17.3199
78.0442
77.6743
77.6744
78.0444
0.107959
17.3202
17.3202
78.0442
77.6739
22.937
17.1006
22.9304
21.7474
22.937
21.73
22.9304
3.5816
17.9797
9.22231
17.9888
9.2331
17.9904
3.58175
2.05065
8.30367
18.2302
18.361
2.05323
18.2107
8.27263
3.59229
17.9742
9.25316
18
3.60247
9.23247
17.9831
2.04669
18.2125
18.3655
8.26345
18.2173
2.04248
8.26285
3.58139
17.981
9.21147
17.9881
9.22218
17.9922
3.58167
2.04331
8.27048
18.236
18.3528
18.2056
2.04441
8.2725
3.58075
17.9716
9.21974
18.0087
9.22102
17.9793
3.57959
2.04467
18.2116
18.3635
8.27447
18.216
2.04241
8.27385
23.2441
12.2856
18.6959
10.8831
23.2441
12.2856
21.7797
77.6764
17.3235
0.100322
78.0434
78.0429
17.3407
77.6754
77.6788
78.0447
0.0945746
17.3862
78.0429
17.3373
77.6939
23.3802
17.8323
23.1095
21.8874
23.3802
23.1095
22.0931
22.0607
11.287
17.4874
10.1145
22.0607
11.287
21.0993
77.6784
17.3236
0.098467
78.0433
78.043
17.3407
77.6754
77.6827
78.0447
0.0966514
17.406
78.0428
17.3458
77.6935
22.8975
17.341
22.9229
21.7769
22.8975
22.9229
21.8086
6.93156
0.7047
49.1283
49.1951
49.0322
49.1522
6.9695
6.8279
78.0525
17.532
17.5651
40.0718
77.791
77.7913
4.03541
17.9397
7.53916
17.9481
10.6346
17.9097
5.79064
2.21593
8.45547
18.2226
18.4318
2.1024
18.2916
8.82785
3.73735
17.9949
9.40637
17.973
3.63562
9.77047
17.9995
3.31684
17.9324
18.4225
7.41493
18.2703
5.57075
9.79775
3.7882
17.8151
6.80384
18.1487
9.83716
17.7449
5.19865
2.22067
8.32171
18.162
18.4498
2.08028
18.3409
8.55031
3.62328
18.0841
9.27314
17.933
3.57825
9.44911
18.1049
3.20239
18.0047
18.1671
6.71777
18.0067
5.01248
9.07685
7.00355
49.1193
49.1693
1.51776
6.9866
49.1177
49.1533
7.00355
2.4716
49.1268
49.1694
49.1173
49.154
6.98641
77.627
3.5141
41.1425
50.4647
77.6363
5.63157
41.2275
25.6575
21.0762
18.262
25.7739
25.7739
21.0976
25.6575
24.4879
18.3691
10.1363
18.0929
12.4103
20.4502
24.4879
77.6223
50.4643
5.62079
41.2591
77.6193
5.6582
41.2408
77.6243
3.56551
41.171
50.4645
77.6364
5.87831
41.2294
26.1939
21.1999
18.5762
25.9653
25.9653
21.415
26.1939
25.8166
18.3213
11.1746
19.377
13.5223
21.1764
25.8166
77.6212
50.4644
5.66351
41.2626
77.6191
5.76288
41.2395
78.0281
77.9896
3.10003
3.12436
78.0109
78.0083
0.251568
78.0046
78.0175
0.0593133
0.059312
0.0863413
78.0112
78.0111
78.0214
3.13923
77.9973
0.203404
77.9927
0.197741
78.0255
78.0222
3.15138
77.9966
0.203404
77.9929
0.197284
78.0254
77.6185
5.64241
41.2628
50.4731
77.6185
5.63921
41.2593
25.8037
21.069
18.2091
25.8146
25.8146
21.0468
25.8037
25.8122
25.8119
21.0294
18.2137
25.8119
21.0338
25.8122
77.6184
50.4731
5.62802
41.2564
77.6187
5.63344
41.2626
78.0258
77.9935
3.17652
0.211392
77.9935
78.0258
0.20835
78.0086
78.0146
0.0655072
0.0138199
78.016
78.0072
0.0634759
78.0257
3.17654
77.9933
0.209738
77.9942
78.025
0.208459
78.008
0.0642785
78.0157
0.0137855
78.0155
78.0082
0.0656084
78.0258
77.9935
3.17652
0.211391
77.9935
78.0258
0.20835
78.0086
78.0146
0.0655072
0.0138199
0.0634759
78.0072
78.016
78.0257
3.17654
77.9934
0.209738
77.9942
0.208459
78.025
78.008
0.0642802
78.0157
0.0137855
78.0082
0.0656084
78.0155
6.83762
3.31704
41.0068
41.0894
77.7284
77.7284
37.0849
6.92956
0.626381
49.1723
49.1657
49.1063
6.97934
48.9945
78.0281
77.9895
3.10003
3.12436
78.0102
78.0089
0.252925
78.0046
78.0175
0.0593133
0.059312
78.0111
78.0111
0.0863413
78.0217
3.13923
77.997
0.203404
77.9928
78.0254
0.197741
78.0219
3.15138
77.9969
0.203404
78.0255
77.9928
0.199022
77.6244
3.56445
41.1726
50.4645
77.6361
5.83125
41.2364
26.0782
21.1633
18.3818
25.9266
21.3106
26.0782
25.9266
25.5465
18.3303
10.7787
18.8908
20.9104
13.3077
25.5465
77.6212
50.4644
5.65872
41.2626
5.74358
41.2434
77.6191
78.0258
77.9935
3.17652
0.211391
77.9935
78.0258
0.20835
78.0086
78.0146
0.0655059
0.0138199
78.016
78.0072
0.0634759
78.0256
3.17654
77.9934
0.209738
77.9941
78.0251
0.208459
78.008
0.0642809
78.0157
0.0137855
78.0155
78.0082
0.0656084
77.6185
5.64218
41.2628
50.4731
77.6185
5.63891
41.2593
25.8133
21.08
18.2096
25.8337
25.8337
21.0509
25.8133
25.8122
25.8119
21.0341
18.2135
25.8119
21.0378
25.8122
77.6184
50.4731
5.63163
41.2599
77.6185
5.6356
41.2626
78.0258
77.9935
0.211392
3.17652
78.0258
77.9935
0.20835
78.0086
78.0146
0.0138199
0.0655072
0.0634759
78.016
78.0072
78.008
0.0642778
78.0157
0.0137855
78.0082
0.0656084
78.0155
78.0257
3.17654
77.9934
0.209738
77.9942
0.208459
78.025
78.0127
78.0133
0.0121352
0.0121348
78.013
78.013
0.00995855
78.014
78.0108
0.0139789
0.0139789
78.0124
78.0124
0.00575571
78.0133
0.0106619
78.012
0.0159094
78.0135
78.0118
0.00854055
78.0134
0.0106613
78.012
0.0159094
78.0118
78.0135
0.00854055
78.0127
78.0133
0.0121346
0.0121354
78.013
78.013
0.00995855
78.014
78.0108
0.0139789
0.0139789
78.0124
78.0124
0.00575571
78.0133
0.0106611
78.012
0.0159094
78.0135
78.0118
0.00854055
78.0134
0.0106622
78.012
0.0159094
78.0118
78.0135
0.00854055
78.0127
78.0133
0.0121352
0.0121346
78.013
78.013
0.00995855
78.014
78.0108
0.0139789
0.0139789
0.00575571
78.0124
78.0124
78.0134
0.0106619
78.012
0.0159094
78.0135
0.00854055
78.0118
78.0133
0.010661
78.012
0.0159094
78.0135
0.00854055
78.0118
77.6185
5.64204
50.4731
41.2628
5.63871
77.6185
41.2593
25.8133
21.0871
18.2104
25.8433
25.8133
21.0547
25.8433
25.8122
25.8119
18.2132
21.0328
25.8122
21.0374
25.8119
77.6184
50.4731
5.63542
41.2599
5.63477
77.6184
41.2626
78.0258
77.9935
0.211391
3.17652
78.0258
77.9935
0.20835
78.0086
78.0146
0.0138199
0.0655059
78.0072
78.016
0.0634759
78.008
0.0642803
78.0157
0.0137855
78.0082
78.0155
0.0656084
78.0256
3.17654
77.9934
0.209738
78.0251
77.9941
0.208459
77.6185
5.642
41.2628
50.4731
77.6185
5.6384
41.2593
25.823
21.0963
18.2114
25.8625
21.0571
25.823
25.8625
25.8123
25.8119
21.0336
18.2128
21.0396
25.8119
25.8123
77.6184
50.4731
5.64026
41.2599
5.63693
41.2626
77.6184
78.0282
77.9896
3.11221
3.10003
78.0096
78.0095
0.252918
78.0046
78.0175
0.0593133
0.059312
78.0111
78.0111
0.0863413
78.0218
3.15141
77.997
0.203404
77.9928
78.0255
0.197741
78.0218
3.13923
77.997
0.203404
78.0255
77.9928
0.197741
6.82888
3.31963
41.0791
41.0117
77.7285
77.7285
37.0927
6.92616
0.612802
49.2454
49.2177
49.0412
6.98754
49.073
77.6266
3.52721
50.4647
41.1366
5.71472
77.6365
41.2238
25.89
21.1464
18.386
25.87
21.2704
25.89
25.87
25.0437
18.3496
18.961
10.8433
20.8357
25.0437
12.8868
77.6222
50.4643
5.6379
41.2591
5.69391
41.2408
77.6193
78.0258
77.9935
0.211392
3.17652
78.0258
77.9935
0.20835
78.0086
78.0146
0.0138199
0.0655072
78.0072
78.016
0.0634759
78.008
0.0642777
78.0157
0.0137855
78.0082
78.0155
0.0656084
78.0257
3.17654
77.9933
0.209738
78.025
77.9942
0.208459
77.6185
5.64237
50.4731
41.2628
5.63891
77.6185
41.2593
25.8134
21.0796
18.21
25.8337
25.8134
21.0496
25.8337
25.8123
25.8119
18.2134
21.0298
25.8123
21.0355
25.8119
77.6184
50.4731
5.63172
41.2564
5.63559
77.6185
41.2626
77.6185
5.64249
50.4731
41.2628
5.63568
77.6185
41.2593
25.795
21.056
18.2084
25.7963
21.0402
25.795
25.7963
25.8031
25.8119
18.2143
21.0284
21.0327
25.8031
25.8119
77.6184
50.4731
5.62316
41.2564
5.6295
41.2626
77.6187
77.6239
3.57574
50.4645
41.1726
5.88021
77.6363
41.2364
26.1939
21.1968
18.5762
25.9653
26.1939
21.4105
25.9653
25.8162
18.3222
19.3673
11.1536
25.8162
21.1684
13.5218
77.6207
50.4643
5.66352
41.2626
5.76285
77.6189
41.2434
77.6277
3.50495
50.4647
41.1349
5.63432
77.6365
41.2179
25.6575
21.0817
18.262
25.7739
25.6575
21.1043
25.7739
24.498
18.37
18.0921
10.1464
24.498
20.4582
12.4218
77.6228
50.4643
5.62079
41.2591
5.65807
77.6195
41.2365
6.83719
3.32117
41.0926
41.0068
77.7285
77.7284
37.0849
6.93239
0.665336
49.1117
49.1907
6.96802
49.0147
49.1143
78.023
0
0
78.0229
0
78.023
78.023
78.0227
0
0
78.0231
0
78.0227
78.0232
78.0227
0
0
78.0231
0
78.0232
78.0227
78.0224
0
0
78.0233
0
78.0229
78.0229
78.0224
0
0
78.0233
0
78.0229
78.0229
78.0227
0
0
78.0231
78.0232
0
78.0227
78.0227
0
0
78.0231
0
78.0227
78.0232
78.0224
0
0
78.0233
78.0229
0
78.0229
78.0227
0
0
78.0231
78.0232
0
78.0227
78.0227
0
0
78.0231
0
78.0232
78.0227
78.023
0
0
78.0229
78.023
0
78.023
78.023
0
0
78.0229
78.023
0
78.023
78.023
0
0
78.0229
0
78.023
78.023
78.0227
0
0
78.0231
78.0227
0
78.0232
78.0224
0
0
78.0233
78.0229
0
78.0229
78.0227
0
0
78.0231
78.0227
0
78.0232
78.003
78.0525
0.132219
0.162767
0.184804
78.0335
78.0222
78.0012
0.213795
0.107959
78.0439
0.213795
78.0012
78.0438
78.0008
78.0443
0.213795
0.107959
0.213795
78.0007
78.0444
78.0014
0.208236
0.107959
78.0434
0.202366
78.0018
78.0431
78.0158
78.0334
0.154468
0.0792561
0.165835
78.0043
78.0447
78.0012
0.213795
0.107959
78.0439
0.213795
78.0013
78.0438
78.0008
78.0443
0.107959
0.213795
0.213795
78.0444
78.0007
78.023
0
0
78.0229
0
78.0229
78.023
78.023
0
0
78.0229
0
78.0229
78.023
78.023
78.023
0
0
0
78.023
78.023
78.032
0.0452653
0.0758695
78.0144
0.0452653
78.0319
78.0144
78.0227
0
0
78.0231
0
78.0231
78.0227
78.0321
78.0141
0.0758695
0.0452653
0.0452653
78.0141
78.0321
78.0016
0.208236
0.107959
78.0434
0.208236
78.0018
78.0432
78.0124
78.0368
0.0847912
0.165996
0.17078
78.0445
78.0043
78.0227
0
0
78.0231
0
78.0231
78.0227
78.032
0.0452653
0.0758695
78.0143
0.0452653
78.0319
78.0144
78.0321
78.0141
0.0452653
0.0758695
0.0452653
78.0321
78.0141
78.0316
0.0452653
0.0758695
78.0146
0.0452653
78.032
78.0143
78.0313
0.0452653
0.0699863
78.0148
0.0452653
78.0317
78.0142
78.0358
78.0113
0.0694322
0.0682043
0.0479627
78.0223
78.0252
78.0014
0.208236
0.102214
78.0433
78.002
0.202366
78.0431
78.0163
78.0329
0.154468
0.0792561
78.0043
0.165835
78.0447
78.0016
0.208236
0.107959
78.0434
78.0018
0.208236
78.0432
78.0111
78.0384
0.17197
0.0866421
78.0043
0.180311
78.0447
78.0313
0.0452653
0.0699863
78.0148
0.0452653
78.0142
78.0317
78.0316
0.0452653
0.0758695
78.0146
0.0452653
78.0143
78.032
78.0358
78.0113
0.0682043
0.0694322
0.0479627
78.0252
78.0223
78.0012
0.213795
0.107959
78.0439
78.0012
0.213795
78.0438
78.0008
78.0443
0.213795
0.107959
78.0007
0.213795
78.0444
78.032
0.0452653
0.0758695
78.0143
78.0144
0.0452653
78.0319
78.0227
0
0
78.0231
78.0231
0
78.0227
78.0321
78.0141
0.0758695
0.0452653
78.0141
0.0452653
78.0321
78.032
0.0452653
0.0758695
78.0143
0.0452653
78.0144
78.0319
78.0227
0
0
78.0231
0
78.0227
78.0231
78.0321
78.0141
0.0758695
0.0452653
0.0452653
78.0141
78.0321
78.0032
78.0523
0.132219
0.162767
78.0328
0.184804
78.023
78.0314
0.0452653
0.0758695
78.0148
78.0143
0.0452653
78.0319
78.0316
0.0452653
0.0758695
78.0146
78.032
0.0452653
78.0143
78.0359
78.0113
0.0682043
0.0694322
78.0249
0.0479569
78.0227
78.0016
0.208236
0.107959
78.0434
0.208236
78.0432
78.0018
78.0118
78.0381
0.169717
0.083519
0.174708
78.0043
78.0451
78.032
0.0452653
0.0758695
78.0144
78.0144
0.0452653
78.0319
78.0227
0
0
78.0231
78.0231
0
78.0227
78.0321
78.0141
0.0758695
0.0452653
78.0141
0.0452653
78.0321
78.0012
0.213795
0.107959
78.0439
78.0012
0.213795
78.0438
78.0008
78.0443
0.213795
0.107959
78.0007
0.213795
78.0444
78.0227
0
0
78.0231
0
78.0227
78.0231
78.032
0.0452653
0.0758695
78.0143
0.0452653
78.0144
78.0319
78.0321
78.0141
0.0452653
0.0758695
0.0452653
78.0321
78.0141
78.023
0
0
78.0229
78.023
0
78.0229
78.023
0
0
78.0229
78.0229
0
78.023
78.023
78.023
0
0
78.023
0
78.023
78.023
0
0
78.0229
78.023
0
78.0229
78.023
0
0
78.0229
78.0229
0
78.023
78.023
78.023
0
0
78.023
0
78.023
78.023
0
0
78.0229
0
78.023
78.0229
78.023
0
0
78.0229
0
78.023
78.0229
78.023
78.023
0
0
0
78.023
78.023
78.0012
0.213795
0.107959
78.0439
78.0438
0.213795
78.0013
78.0008
78.0443
0.107959
0.213795
78.0444
0.213795
78.0007
78.0227
0
0
78.0231
78.0227
0
78.0231
78.032
0.0452653
0.0758695
78.0144
78.0319
0.0452653
78.0144
78.0321
78.0141
0.0452653
0.0758695
78.0321
0.0452653
78.0141
78.0012
0.213795
0.107959
78.0439
0.213795
78.0438
78.0013
78.0008
78.0443
0.213795
0.107959
0.213795
78.0007
78.0444
78.0316
0.0452653
0.0758695
78.0146
78.0143
0.0452653
78.032
78.0314
0.0452653
0.0758695
78.0148
78.0319
0.0452653
78.0143
78.036
78.0113
0.0690519
0.0682043
78.0232
0.0479569
78.0242
78.003
78.0521
0.150498
0.141063
78.0245
0.16388
78.0304
78.0014
0.208236
0.107959
78.0434
0.202366
78.0431
78.0018
78.0151
78.0345
0.0792561
0.16048
0.171372
78.0449
78.0046
78.0227
0
0
78.0231
78.0227
0
78.0231
78.032
0.0452653
0.0758695
78.0143
78.0319
0.0452653
78.0144
78.0321
78.0141
0.0452653
0.0758695
78.0321
0.0452653
78.0141
78.0012
0.213795
0.107959
78.0439
78.0438
0.213795
78.0012
78.0008
78.0443
0.107959
0.213795
78.0444
0.213795
78.0007
78.0012
0.213795
0.107959
78.0439
0.213795
78.0438
78.0012
78.0008
78.0443
0.107959
0.213795
0.213795
78.0444
78.0007
78.0016
0.208236
0.107959
78.0434
78.0432
0.208236
78.0018
78.0111
78.0384
0.0866421
0.17197
78.0447
0.180311
78.0043
78.0014
0.208236
0.102214
78.0433
78.0431
0.202366
78.002
78.0163
78.0329
0.0792561
0.154468
78.0447
0.165835
78.0043
78.003
78.0525
0.162767
0.132219
0.184804
78.0222
78.0335
78.023
0
0
78.023
0
78.0229
78.023
78.023
0
0
78.023
0
78.0229
78.023
78.0229
78.023
0
0
0
78.023
78.023
78.024
0
0.00604017
78.022
0
78.024
78.022
78.0227
0
0
78.0232
0
78.0231
78.0227
78.0241
78.0218
0.00604017
0
0