/*--------------------------------*- C++ -*----------------------------------*\
| =========                 |                                                 |
| \\      /  F ield         | OpenFOAM: The Open Source CFD Toolbox           |
|  \\    /   O peration     | Version:  2412                                  |
|   \\  /    A nd           | Website:  www.openfoam.com                      |
|    \\/     M anipulation  |                                                 |
\*---------------------------------------------------------------------------*/
FoamFile
{
    version     2.0;
    format      ascii;
    arch        "LSB;label=32;scalar=64";
    class       volScalarField;
    location    "0/chip";
    object      skewness;
}
// * * * * * * * * * * * * * * * * * * * * * * * * * * * * * * * * * * * * * //

dimensions      [0 0 0 0 0 0 0];

internalField   nonuniform List<scalar> 
7068
(
5.03072e-15
3.59336e-15
3.46945e-15
5.20417e-15
0.333132
0.333184
0.333184
0.333213
5.20417e-15
0.000143663
5.197e-15
3.46945e-15
0.000139917
0.000143878
3.46945e-15
0.000141944
5.20417e-15
4.33681e-15
0.000144028
0.000143878
3.46945e-15
3.75857e-15
4.33681e-15
3.84398e-05
3.84398e-05
3.84398e-05
3.84398e-05
5.20417e-15
0.000144028
0.000144028
2.5214e-15
0.000143921
5.20417e-15
0.00014369
0.000139917
0.000143663
0.333213
0.333185
0.333185
0.333213
0.333184
0.333185
0.333132
0.333132
0.333132
0.333184
0.333213
0.333185
0.0139146
6.32749e-05
0.00400797
7.99659e-05
7.99661e-05
0.00402937
0.012481
7.99659e-05
3.99977e-05
0.00400352
0.00401121
7.99659e-05
7.99656e-05
0.00405259
0.333087
3.31618e-11
5.70673e-11
0.33306
1.19739e-12
0.333075
0.333075
0.333004
4.7073e-05
4.01469e-11
0.33319
4.70731e-05
0.332997
0.333208
0.0133524
7.99659e-05
4.81577e-05
0.00395707
0.333004
6.7651e-11
4.7073e-05
0.33319
4.70728e-05
0.333208
0.332993
0.333028
4.7073e-05
4.7073e-05
0.333289
3.99986e-05
0.33307
0.333107
0.403679
0.0152972
0.406552
0.346339
0.34692
0.406599
0.406386
0.348174
0.34238
0.406585
0.406552
0.346712
0.3469
0.406574
1.82073e-05
0.333118
0.333118
2.85783e-05
0.333117
2.35258e-05
2.35272e-05
0.00188438
0.347069
0.333172
4.46973e-05
0.346911
0.00187355
3.35247e-05
0.4064
0.348048
0.343452
0.406585
0.00188437
0.333172
0.347085
4.46973e-05
0.346909
3.35216e-05
0.00187355
0.00172138
0.347652
0.348383
3.98329e-05
0.353255
0.00187738
0.00188385
0.0124816
7.99659e-05
3.99977e-05
0.00398231
0.0139146
7.99659e-05
5.36064e-05
0.0040076
0.333028
4.7073e-05
4.7073e-05
0.333289
3.99986e-05
0.333107
0.333071
0.0208037
0.0221741
0.343238
0.350828
0.352821
0.344683
0.349713
0.349895
0.351593
0.349539
0.365511
0.333289
0.35267
0.35144
0.355715
0.354137
0.360783
0.00400885
7.99659e-05
7.99657e-05
0.00404719
0.333004
4.7073e-05
3.80238e-11
0.333189
4.70731e-05
0.332996
0.333208
0.333004
4.7073e-05
3.80238e-11
0.33319
4.70729e-05
0.332995
0.333208
0.350509
0.348497
0.349613
0.349179
0.350499
0.348655
0.349777
0.34917
0.352804
0.333218
0.350873
0.000167135
0.353269
0.333208
0.350518
0.35279
0.33322
0.350794
0.000167082
0.353181
0.333208
0.35051
0.013568
6.32749e-05
0.333021
4.7073e-05
4.7073e-05
0.333288
3.99986e-05
0.333099
0.333086
0.013568
7.99659e-05
5.98846e-05
0.00397872
0.345069
0.350537
0.352472
0.346338
0.0199769
0.0213137
0.36308
0.333288
0.352221
0.351895
0.355171
0.354694
0.358573
0.347863
0.350203
0.351968
0.347877
0.333004
4.7073e-05
6.5618e-11
0.333189
4.70728e-05
0.332996
0.333208
0.00400563
7.99659e-05
7.99662e-05
0.00402523
0.333004
6.5616e-11
4.7073e-05
0.33319
4.70731e-05
0.333208
0.332998
0.350484
0.349001
0.350205
0.349164
0.352772
0.33322
0.35069
0.000166934
0.353028
0.333208
0.350509
0.350508
0.348713
0.349927
0.349183
0.352803
0.33322
0.000167038
0.350795
0.333208
0.353163
0.350527
0.333087
3.31608e-11
3.51164e-11
0.333061
4.69921e-13
0.333075
0.333075
0.333087
5.70688e-11
5.89774e-11
0.333061
1.0003e-12
0.333075
0.333075
0.333087
3.51154e-11
5.89784e-11
0.33306
1.26652e-12
0.333075
0.333075
0.00401536
7.99659e-05
7.99661e-05
0.00404459
0.333004
4.01485e-11
4.7073e-05
0.333189
4.70729e-05
0.333208
0.332996
0.00401451
7.99659e-05
7.99657e-05
0.00405259
0.352795
0.33322
0.350758
0.000166889
0.353112
0.333208
0.35052
0.350499
0.348843
0.350021
0.349175
0.352778
0.33322
0.000166924
0.35069
0.333208
0.353028
0.350507
0.350484
0.349001
0.350204
0.349167
0.33304
4.7073e-05
4.7073e-05
0.333292
3.99986e-05
0.333091
0.333086
0.0133524
4.24481e-05
0.0125174
7.99659e-05
3.99977e-05
0.00401054
0.346816
0.350442
0.352149
0.346606
0.362756
0.333292
0.352185
0.351919
0.355005
0.354848
0.358794
0.0195069
0.0210963
0.346126
0.350286
0.352264
0.347608
0.333004
6.76509e-11
4.7073e-05
0.333189
4.70731e-05
0.333208
0.332996
0.00400676
7.99659e-05
7.99656e-05
0.0040411
0.00400509
7.99659e-05
7.99662e-05
0.00402948
0.352784
0.33322
0.000166663
0.350759
0.333208
0.353138
0.350502
0.352808
0.333218
0.000167122
0.350868
0.333208
0.353269
0.350521
0.350497
0.348787
0.349879
0.349167
0.350511
0.348501
0.349614
0.349181
0.0139144
7.99659e-05
5.36064e-05
0.00400771
0.0124798
7.99659e-05
3.99977e-05
0.00398248
0.0139144
6.32749e-05
0.365521
0.333289
0.351438
0.352673
0.354142
0.35571
0.360795
0.349717
0.349897
0.351593
0.349542
0.343226
0.350833
0.352821
0.344676
0.0208071
0.0221653
0.406435
0.348384
0.341175
0.406585
0.40642
0.347651
0.345823
0.406585
0.00172821
0.348384
0.347651
3.98329e-05
0.35326
0.00188385
0.00187738
0.406552
0.346468
0.34691
0.406599
0.00188438
0.34715
0.333172
4.4633e-05
0.34692
0.00187355
3.35246e-05
0.00188437
0.347115
0.333172
4.4633e-05
0.34691
0.00187355
3.35226e-05
0.40369
0.0147755
0.00172138
0.348174
0.347833
3.98329e-05
0.352368
0.00188385
0.00187738
0.40641
0.347833
0.344598
0.406585
0.00188437
0.347033
0.333172
4.46973e-05
0.3469
0.00187355
3.35217e-05
0.406552
0.346534
0.346918
0.406599
0.00188438
0.333172
0.347098
4.4633e-05
0.346918
3.35254e-05
0.00187355
1.82072e-05
0.333118
0.333118
2.85783e-05
0.333117
2.35268e-05
2.35258e-05
1.82073e-05
0.333118
0.333118
2.85783e-05
0.333117
2.35254e-05
2.35273e-05
1.82072e-05
0.333118
0.333118
2.85783e-05
0.333117
2.35269e-05
2.35254e-05
0.406552
0.346625
0.346911
0.406574
0.00188437
0.333172
0.347033
4.46973e-05
0.346902
3.35224e-05
0.00187355
0.406552
0.346714
0.346902
0.406574
0.0017217
0.348048
0.347971
3.98329e-05
0.351706
0.00187738
0.00187738
0.403702
0.0142556
0.406413
0.347971
0.343521
0.406585
0.00188438
0.333172
0.34715
4.4633e-05
0.346918
3.35255e-05
0.00187355
0.406552
0.346561
0.346909
0.406599
0.406552
0.346337
0.346918
0.406599
0.40641
0.347652
0.345795
0.406585
0.406384
0.348383
0.341178
0.406585
0.403688
0.0152843
0.333325
5.26105e-15
3.8143e-15
0.333326
1.79819e-15
0.333326
0.333326
0.333357
8.33304e-06
3.46945e-15
0.33333
8.33304e-06
0.333355
0.33333
0.333357
3.8143e-15
8.33304e-06
0.33333
8.33304e-06
0.33333
0.333355
0.333384
8.33304e-06
8.33304e-06
0.333335
1.33368e-05
0.333359
0.333359
0.333384
8.33304e-06
8.33304e-06
0.333335
1.33368e-05
0.333359
0.333359
0.333357
8.33304e-06
3.48016e-15
0.33333
0.33333
8.33304e-06
0.333355
0.333357
8.33304e-06
3.48016e-15
0.33333
8.33304e-06
0.333355
0.33333
0.333384
8.33304e-06
8.33304e-06
0.333335
0.333359
1.33368e-05
0.333359
0.333357
8.33304e-06
3.25261e-15
0.33333
0.33333
8.33304e-06
0.333355
0.333357
3.48016e-15
8.33304e-06
0.33333
8.33304e-06
0.33333
0.333355
0.333325
3.59638e-15
4.33681e-15
0.333326
0.333326
3.46945e-15
0.333326
0.333325
4.33681e-15
2.06515e-15
0.333326
0.333326
3.46945e-15
0.333326
0.333325
2.63052e-15
2.62016e-15
0.333326
3.46945e-15
0.333326
0.333326
0.333357
3.25261e-15
8.33304e-06
0.33333
0.333355
8.33304e-06
0.33333
0.333384
8.33304e-06
8.33304e-06
0.333335
0.333359
1.33368e-05
0.333359
0.333357
3.59638e-15
8.33304e-06
0.33333
0.333355
8.33304e-06
0.33333
0.395754
0.0053196
0.440529
0.440871
0.439231
0.439488
0.396749
0.393652
0.333939
1.21476
1.20695
2.4589
0.437921
0.437877
1.39581
0.00873066
0.18482
0.00402654
1.39508
0.00872872
0.185286
0.778074
1.19431
7.99659e-05
0.333795
1.19429
0.778317
0.333803
0.77755
0.333809
1.1943
7.99659e-05
1.19429
0.777028
0.333805
1.39726
0.00404001
0.00862638
0.185217
1.3995
0.00870423
0.185256
1.34716
0.00576899
0.0775974
0.012481
0.561206
0.00792556
0.224907
0.784327
1.19434
6.69745e-05
0.333781
1.19657
0.780923
0.333771
0.788137
0.3338
1.20957
5.99696e-05
1.19775
0.757679
0.333793
1.39983
0.00380983
0.0085321
0.187142
1.40183
0.00834796
0.193118
1.39519
0.00873563
0.00402899
0.184824
0.00874876
1.39505
0.184813
0.77755
1.19429
7.99659e-05
0.333796
1.19429
0.778314
0.333803
0.777026
0.333809
7.99659e-05
1.19429
1.19429
0.333805
0.777025
1.39657
0.00404592
0.00873204
0.185242
1.39982
0.00874924
0.184797
0.333325
5.26105e-15
7.07282e-12
0.333325
2.6483e-15
0.333325
0.333325
0.333325
2.16846e-15
1.23284e-11
0.333325
2.1684e-15
0.333325
0.333325
0.333324
0.333324
6.13317e-12
1.07717e-11
3.33601e-15
0.333324
0.333324
0.333416
8.33362e-06
4.7073e-05
0.333572
1.99933e-05
0.333415
0.333574
0.333359
3.6096e-15
8.33303e-06
0.33333
8.33304e-06
0.33333
0.333359
0.333418
0.333576
4.7073e-05
1.99936e-05
1.99933e-05
0.333576
0.333418
1.3815
0.00664911
0.0131161
0.0739583
0.00849358
0.587088
0.206347
0.783015
1.19434
6.69745e-05
0.333781
1.19657
0.780401
0.333767
0.78525
0.333795
5.99696e-05
1.20501
1.19775
0.333795
0.749775
1.41183
0.00373026
0.00864685
0.185654
1.40501
0.00860873
0.186238
0.333359
3.8143e-15
8.33308e-06
0.33333
8.33304e-06
0.33333
0.333359
0.333416
8.33362e-06
4.7073e-05
0.333572
1.99933e-05
0.333415
0.333574
0.333418
0.333576
1.99929e-05
4.7073e-05
1.99933e-05
0.333418
0.333576
0.33344
8.33362e-06
4.7073e-05
0.333572
7.43885e-06
0.333421
0.333558
0.333442
8.33362e-06
4.7073e-05
0.333566
7.43885e-06
0.333417
0.333556
0.333485
0.33366
4.70739e-05
4.70739e-05
1.33299e-05
0.333577
0.333583
0.39379
0.0032542
3.75654
3.7561
0.437878
0.437862
1.77736
0.395948
0.00531512
0.440598
0.440851
0.396547
0.439294
0.439465
0.779969
0.00857649
3.75467
0.406552
0.779969
0.00858389
3.75467
1.38641
0.182642
0.34715
0.336914
0.182736
1.38859
0.33716
1.38497
0.337093
0.182815
0.3468
0.182787
1.38478
0.337062
0.780474
0.406555
0.00846147
3.75596
0.780717
0.00850802
3.75518
0.790815
0.00486919
3.76109
0.406599
0.759843
0.00775769
3.75603
1.39073
0.183947
0.3444
0.337543
0.190065
1.39148
0.336227
1.34358
0.335689
0.0780474
0.352368
0.222739
0.568485
0.339361
0.786999
0.406572
0.0083894
3.75613
0.783342
0.00819935
3.7587
0.779969
0.00858026
0.406552
3.75467
0.00858254
0.779969
3.75467
1.38625
0.182664
0.347033
0.337018
0.182762
1.38892
0.337125
1.38489
0.337086
0.346858
0.18282
0.182802
0.337074
1.38476
0.780475
0.406555
0.00856557
3.75596
0.780974
0.00855269
3.75518
0.333094
0.333117
2.06748e-05
2.06752e-05
0.333104
0.333104
2.16318e-05
0.333132
0.333042
2.25602e-05
2.25602e-05
0.333087
0.333087
1.77528e-05
0.333112
1.87226e-05
0.333078
2.42236e-05
0.333072
0.333118
2.01698e-05
0.333113
1.87232e-05
0.333077
2.42236e-05
0.333072
0.333118
2.01698e-05
0.3334
0.332757
0.00188432
0.000591444
0.332753
0.333404
0.000590145
0.332989
0.33315
0.000155921
4.44884e-05
0.332953
0.333184
0.000156865
0.333381
0.00188209
0.332752
0.000588879
0.333373
0.332763
0.000589287
0.33297
0.000161847
0.333172
4.11199e-05
0.333166
0.332976
0.000159363
0.788463
0.00483168
0.4066
3.75954
0.00810238
0.753264
3.75462
1.39782
0.182487
0.34489
0.337487
0.183788
1.39344
0.336438
1.36357
0.33637
0.351706
0.0737665
0.203932
0.339072
0.582273
0.78595
0.406574
0.00843749
3.75613
0.783079
0.00836976
3.75592
0.3334
0.332757
0.000591444
0.00188432
0.333404
0.332753
0.000590145
0.332989
0.33315
4.44884e-05
0.000155921
0.333184
0.332953
0.000156865
0.33297
0.000161847
0.333172
4.11199e-05
0.333166
0.332976
0.000159363
0.333381
0.00188209
0.332752
0.000588879
0.333373
0.332763
0.000589287
0.333444
0.332755
0.00172753
0.00175052
0.333064
0.333126
0.000517931
0.332887
0.333213
0.000155105
0.000155088
0.333046
0.333053
0.000156211
0.333324
0.001886
0.332808
0.000587227
0.333381
0.332733
0.000578089
0.333305
0.00187437
0.332825
0.000587227
0.333383
0.332732
0.000579422
1.34359
0.00542887
0.076891
0.0124816
0.558231
0.00781153
0.222152
0.784322
1.19435
6.69745e-05
0.33378
0.780918
1.19657
0.333771
0.788663
0.333799
1.20957
5.99696e-05
0.758205
1.19775
0.333792
1.39859
0.00374308
0.00848443
0.18665
1.40188
0.00826259
0.192183
1.38728
0.00717428
0.0748633
0.0132678
0.591934
0.00875013
0.211506
0.782492
1.19434
6.69745e-05
0.333781
0.780401
1.19657
0.333766
0.783937
0.3338
1.20391
5.99696e-05
0.748716
1.19775
0.333794
1.41364
0.00380518
0.00872843
0.185659
1.40547
0.00876193
0.187651
0.333442
8.33362e-06
4.7073e-05
0.333566
7.43885e-06
0.333556
0.333417
0.33344
8.33362e-06
4.7073e-05
0.333572
7.43885e-06
0.333558
0.333421
0.333485
0.33366
4.70739e-05
4.70739e-05
1.33299e-05
0.333583
0.333577
0.39725
0.441271
0.441717
0.0241702
0.39726
0.44165
0.442074
0.397275
0.024621
0.441329
0.441767
0.397071
0.441629
0.442107
0.0439359
0.0760477
0.360695
0.344214
0.0387842
0.080589
0.365511
0.00699024
0.0103813
0.35267
0.345442
0.345994
0.00499538
0.0094494
0.00695607
0.345992
0.00524851
0.355715
0.00679457
0.347319
0.00380438
0.0445907
0.345068
0.0772774
0.357234
0.0811894
0.360783
0.039878
0.048053
0.0767955
0.355446
0.351909
0.042437
0.0805767
0.358945
0.00529636
0.0123793
0.35144
0.348469
0.349674
0.00531926
0.00706949
0.00410023
0.349399
0.00530185
0.354137
0.0041886
0.35153
0.00385954
0.0488648
0.350943
0.0777251
0.352807
0.0810413
0.355234
0.0438915
1.39575
0.00873214
0.184826
0.00402138
1.39505
0.00873136
0.184815
0.778074
1.19429
7.99659e-05
0.333795
0.778314
1.19429
0.333803
0.77755
0.333809
1.1943
7.99659e-05
0.777028
1.19429
0.333805
1.39718
0.00403971
0.00864756
0.185235
1.39939
0.0087167
0.184786
0.333416
8.33362e-06
4.7073e-05
0.333572
0.333574
1.99933e-05
0.333415
0.333359
5.26105e-15
8.33303e-06
0.33333
0.33333
8.33304e-06
0.333359
0.333418
0.333576
4.7073e-05
1.99936e-05
0.333576
1.99933e-05
0.333418
0.333416
8.33362e-06
4.7073e-05
0.333572
1.99933e-05
0.333574
0.333415
0.333359
5.20596e-15
8.33306e-06
0.33333
8.33304e-06
0.333359
0.33333
0.333418
0.333576
4.7073e-05
1.99931e-05
1.99933e-05
0.333576
0.333418
0.00398358
0.00804373
0.350312
0.352804
0.0080632
0.00398125
0.352561
0.00530184
0.0138261
0.349645
0.349448
0.0135228
0.00526135
0.350873
0.0039601
0.35087
0.00616485
0.351705
0.00813701
0.0038998
0.353269
0.00534145
0.350518
0.0140309
0.349042
0.0140446
0.00534833
0.350335
0.00398763
0.00804057
0.35034
0.35279
0.00806137
0.00398588
0.352595
0.0053249
0.0137234
0.349861
0.349394
0.350794
0.00531245
0.0135003
0.00394908
0.350813
0.00749025
0.351952
0.00810207
0.353181
0.00394262
0.00533832
0.35051
0.0140316
0.349069
0.00534402
0.35037
0.0140386
0.395629
0.00532206
0.4405
0.440882
0.439249
0.439498
0.396855
0.393626
0.333934
1.21477
1.20695
0.437974
2.4589
0.437912
0.333442
8.33362e-06
4.7073e-05
0.33357
0.333578
7.43885e-06
0.333417
0.33344
8.33362e-06
4.7073e-05
0.333572
0.333421
7.43885e-06
0.333558
0.333485
0.333653
4.70739e-05
4.70739e-05
0.333587
1.33299e-05
0.333581
1.38317
0.00682585
0.0740068
0.0131565
0.588492
0.00858229
0.207741
0.78249
1.19434
6.69745e-05
0.333781
1.19657
0.333766
0.7804
0.783936
0.333829
1.20392
5.99696e-05
1.19775
0.748715
0.333802
1.4124
0.00376357
0.00868989
0.185171
0.00866815
0.186225
1.40552
0.0454416
0.0762512
0.359138
0.34714
0.039884
0.0810064
0.36308
0.00598757
0.0111546
0.352221
0.346442
0.00980393
0.00517455
0.34738
0.005934
0.346989
0.00584051
0.355171
0.00699217
0.00377401
0.348805
0.046236
0.347556
0.0776242
0.355722
0.0413145
0.0816394
0.358573
0.396694
0.441393
0.441683
0.02285
0.396343
0.441919
0.441866
0.397199
0.0233654
0.441518
0.441654
0.442017
0.441854
0.396041
0.0466181
0.0765778
0.356978
0.349
0.0414135
0.0801154
0.361388
0.0048603
0.0114768
0.351895
0.34747
0.348284
0.00512258
0.0073759
0.00466434
0.348442
0.00490613
0.354694
0.0043784
0.350057
0.00377277
0.0472428
0.348472
0.0773282
0.354332
0.0805825
0.357475
0.0425327
0.333416
8.33362e-06
4.7073e-05
0.333572
0.333574
1.99933e-05
0.333415
0.333359
3.48016e-15
8.33307e-06
0.33333
0.33333
8.33304e-06
0.333359
0.333418
0.333576
4.7073e-05
1.99929e-05
0.333576
1.99933e-05
0.333418
1.39575
0.00873136
0.184828
0.00401588
1.39505
0.00873464
0.184817
0.778074
1.19429
7.99659e-05
0.333796
0.778314
1.19429
0.333803
0.77755
0.333809
1.1943
7.99659e-05
0.777028
1.19429
0.333805
1.39721
0.0040276
0.00869349
0.185225
1.39996
0.00872831
0.184786
0.333359
3.46945e-15
8.33301e-06
0.33333
8.33304e-06
0.333359
0.33333
0.333416
8.33362e-06
4.7073e-05
0.333572
1.99933e-05
0.333574
0.333415
0.333418
0.333576
1.99938e-05
4.7073e-05
1.99933e-05
0.333418
0.333576
0.00400589
0.350399
0.00803643
0.352772
0.00804428
0.352669
0.00398196
0.00535995
0.0130085
0.350268
0.349313
0.0134793
0.00530768
0.35069
0.00396754
0.350691
0.00767357
0.352447
0.00804742
0.00396495
0.353028
0.0053313
0.350509
0.349119
0.0140307
0.0140276
0.350434
0.00535034
0.00398221
0.00803971
0.350353
0.352803
0.00804932
0.00397426
0.352609
0.00530042
0.0131568
0.349915
0.34939
0.350795
0.0052584
0.0134875
0.00396866
0.350783
0.00733908
0.352048
0.00806179
0.353163
0.00388743
0.00533907
0.350527
0.0140263
0.349083
0.00535326
0.350379
0.0140299
0.333325
3.59638e-15
7.07201e-12
0.333325
0.333325
2.23514e-15
0.333325
0.333325
2.1684e-15
7.57594e-12
0.333325
0.333325
2.60209e-15
0.333325
0.333324
0.333324
6.13257e-12
6.5859e-12
0.333324
1.0842e-15
0.333324
0.333325
2.63052e-15
1.23283e-11
0.333325
0.333325
2.60209e-15
0.333325
0.333325
2.94903e-15
1.2841e-11
0.333325
0.333325
3.33601e-15
0.333325
0.333324
0.333324
1.07718e-11
1.12353e-11
0.333324
3.33601e-15
0.333324
0.333325
2.60209e-15
7.57538e-12
0.333325
2.23514e-15
0.333325
0.333325
0.333325
2.62016e-15
1.28424e-11
0.333325
2.60209e-15
0.333325
0.333325
0.333324
0.333324
6.58528e-12
1.12355e-11
1.0842e-15
0.333324
0.333324
1.39525
0.00873386
0.00401754
0.184823
0.00874414
1.39508
0.18481
0.77755
1.1943
7.99659e-05
0.333796
0.333803
1.1943
0.778317
0.777026
0.333809
7.99659e-05
1.19429
0.333805
1.1943
0.777025
1.39665
0.00402673
0.00870507
0.185224
0.00873035
1.39993
0.184787
0.333359
3.59638e-15
8.33306e-06
0.33333
0.333359
8.33304e-06
0.33333
0.333416
8.33362e-06
4.7073e-05
0.333572
0.333415
1.99933e-05
0.333574
0.333418
0.333576
1.99931e-05
4.7073e-05
0.333418
1.99933e-05
0.333576
1.39519
0.00873536
0.18483
0.00402908
1.39505
0.00874876
0.184816
0.77755
1.19429
7.99659e-05
0.333796
1.19429
0.333803
0.778314
0.777026
0.333809
1.1943
7.99659e-05
1.19429
0.777028
0.333805
1.39659
0.00404592
0.00873204
0.185236
0.00874924
0.184791
1.39985
0.00398385
0.350369
0.00804208
0.352795
0.00804994
0.352631
0.00397327
0.00532816
0.0130831
0.350056
0.349368
0.00532722
0.350758
0.0134791
0.00396479
0.350742
0.00776689
0.352202
0.00389022
0.00805367
0.353112
0.00534127
0.35052
0.3491
0.0140268
0.3504
0.00535502
0.0140293
0.00400579
0.00804468
0.350399
0.352778
0.00804974
0.00398264
0.352671
0.00535994
0.013014
0.350267
0.349313
0.35069
0.00530662
0.0134764
0.00396784
0.350691
0.00767272
0.352448
0.00804742
0.353028
0.00396472
0.00533124
0.350507
0.0140276
0.349122
0.00535
0.350433
0.0140224
0.333443
8.33362e-06
4.7073e-05
0.333572
0.333556
7.43885e-06
0.333421
0.333442
8.33362e-06
4.7073e-05
0.33357
0.333417
7.43885e-06
0.333575
0.333492
0.333655
4.70739e-05
4.70739e-05
0.333586
1.33299e-05
0.333583
0.395799
0.00529656
0.440833
0.440596
0.439448
0.439296
0.396681
0.393917
0.33398
1.20917
1.21029
0.437922
2.45763
0.437988
1.34994
0.00594195
0.0125148
0.0777917
0.00801165
0.562584
0.226761
0.784584
1.19434
6.69745e-05
0.333781
1.19657
0.333766
0.780923
0.78813
0.333804
5.99696e-05
1.20619
1.19776
0.333791
0.756357
1.40149
0.0038416
0.00856268
0.187144
0.0083942
0.193578
1.40232
0.0458088
0.357855
0.0764672
0.347392
0.0408429
0.362756
0.0799939
0.00553942
0.01066
0.352185
0.34669
0.00796724
0.00499777
0.347414
0.00530571
0.347877
0.00433927
0.355005
0.00449252
0.00371875
0.349186
0.046219
0.347081
0.355467
0.0769529
0.0415429
0.358794
0.0805457
0.396467
0.441609
0.441448
0.0226812
0.395941
0.44174
0.442014
0.397359
0.023505
0.441488
0.441642
0.441679
0.442067
0.396027
0.0462948
0.358281
0.0763658
0.348742
0.0405255
0.361726
0.0810761
0.00530112
0.0106733
0.351919
0.347216
0.348247
0.00528298
0.00887293
0.00528276
0.347543
0.00557324
0.354848
0.00639706
0.349674
0.00373753
0.0472314
0.348941
0.35458
0.0779597
0.357242
0.0816792
0.0423485
0.333359
3.59638e-15
8.33301e-06
0.33333
0.333359
8.33304e-06
0.33333
0.333416
8.33362e-06
4.7073e-05
0.333572
0.333415
1.99933e-05
0.333574
0.333418
0.333576
1.99938e-05
4.7073e-05
0.333418
1.99933e-05
0.333576
1.39575
0.00873274
0.00401829
0.18483
0.00873374
1.39505
0.18481
0.778074
1.19429
7.99659e-05
0.333795
0.333803
1.1943
0.778314
0.777553
0.333809
7.99659e-05
1.19429
0.333805
1.19431
0.777025
1.39715
0.00403191
0.00865954
0.185239
0.00872415
1.39934
0.184784
1.39581
0.00873038
0.00402626
0.184824
0.00872872
1.39508
0.185286
0.778074
1.1943
7.99659e-05
0.333795
1.19429
0.333803
0.778314
0.777553
0.333809
7.99659e-05
1.1943
1.1943
0.333805
0.777025
1.39726
0.00404001
0.00862624
0.18522
0.00870423
0.185256
1.39951
0.00398929
0.350359
0.00804329
0.352784
0.00805574
0.352622
0.00398294
0.00532193
0.0131342
0.350011
0.349369
0.00527568
0.350759
0.0134864
0.00395483
0.350782
0.00799611
0.352106
0.00394604
0.0080823
0.353138
0.00531939
0.350502
0.349091
0.0140286
0.35039
0.00533779
0.0140286
0.00398359
0.35031
0.00804577
0.352808
0.00806365
0.35256
0.0039815
0.00530176
0.0138311
0.34965
0.349445
0.350868
0.00525772
0.0135246
0.00396374
0.35087
0.00616509
0.351703
0.00813701
0.353269
0.0039034
0.00534144
0.350521
0.349045
0.0140281
0.350332
0.00534838
0.014045
1.38728
0.00717428
0.0132579
0.0748631
0.00875013
0.591934
0.211502
0.78249
1.19435
6.69745e-05
0.333781
0.333766
1.19657
0.780403
0.783935
0.3338
5.99696e-05
1.20391
0.333794
1.19775
0.748714
1.41365
0.00381083
0.00872829
0.185662
0.00875889
1.40547
0.187654
1.34359
0.00542887
0.0124798
0.0768983
0.00781153
0.558231
0.222152
0.784322
1.19435
6.69745e-05
0.33378
0.333771
1.19657
0.780918
0.788664
0.333799
5.99696e-05
1.20957
0.333792
1.19776
0.758207
1.39859
0.00374308
0.0084814
0.186652
0.00826259
1.40189
0.192183
0.395754
0.0053196
0.440871
0.44053
0.439488
0.439231
0.396749
0.393652
0.333939
1.20695
1.21476
2.4589
0.437877
0.437921
0.0480536
0.355437
0.0767905
0.351894
0.0424248
0.358953
0.0805794
0.00529682
0.0123787
0.351438
0.34847
0.00531606
0.34967
0.00706071
0.00409673
0.349403
0.00530479
0.354142
0.00385682
0.00418167
0.351536
0.0488612
0.350942
0.352798
0.0777059
0.355233
0.0810401
0.04386
0.043946
0.360695
0.0760626
0.344215
0.0387914
0.365521
0.0805804
0.00699216
0.0103841
0.352673
0.34545
0.00501395
0.345998
0.00945467
0.00696218
0.345993
0.00524863
0.35571
0.00379294
0.00679469
0.347314
0.0445954
0.34507
0.35723
0.0773212
0.360795
0.0812055
0.0399016
0.397249
0.441717
0.441277
0.0241603
0.39726
0.44206
0.441667
0.397249
0.0246011
0.441718
0.441316
0.442071
0.441679
0.397255
0.790557
0.00488268
3.76195
0.406599
0.759052
0.00757905
3.75558
1.38779
0.183952
0.343806
0.337582
1.39046
0.18966
0.336095
1.33561
0.335412
0.0769031
0.35326
0.562041
0.219634
0.339563
0.786476
0.406572
0.00831163
3.75613
0.782819
0.00807541
3.7587
0.786883
0.00480086
3.76106
0.4066
0.75247
0.0085903
3.75739
1.40358
0.182957
0.346043
0.337392
1.3945
0.184621
0.33672
1.38064
0.337029
0.075325
0.350005
0.596899
0.20791
0.33863
0.785426
0.406574
0.00855408
3.75613
0.783076
0.00861776
3.7587
0.333442
0.332749
0.00173818
0.00173092
0.33312
0.333063
0.000517931
0.332887
0.333213
0.000155088
0.000155105
0.000156211
0.333053
0.333046
0.333306
0.00187424
0.332824
0.000587227
0.332733
0.000579422
0.333383
0.333324
0.001886
0.332808
0.000587227
0.332733
0.000578089
0.333381
0.779969
0.00857856
3.75467
0.406552
0.779969
0.00858973
3.75467
1.38633
0.182652
0.347115
0.336947
1.38901
0.182746
0.337143
1.38494
0.33709
0.182815
0.346822
1.38478
0.182789
0.337064
0.780474
0.406555
0.00848964
3.75596
0.781241
0.00852802
3.75518
0.3334
0.332757
0.00188432
0.000591444
0.332753
0.333404
0.000590145
0.332989
0.333147
0.000156025
4.44884e-05
0.333185
0.332956
0.000156865
0.333383
0.00188209
0.33275
0.000588879
0.332763
0.333372
0.000589287
0.33297
0.000161847
0.333172
4.11199e-05
0.333166
0.332977
0.000159363
0.3334
0.332757
0.00188432
0.000591444
0.332753
0.333404
0.000590145
0.332989
0.333147
0.000156025
4.44884e-05
0.000156865
0.332956
0.333185
0.333382
0.00188209
0.332752
0.000588879
0.332763
0.000589287
0.333373
0.33297
0.000161847
0.333172
4.11199e-05
0.332977
0.000159363
0.333166
0.393694
0.00324407
3.757
3.7555
0.437913
0.437904
1.77713
0.395789
0.00531649
0.440556
0.440867
0.439253
0.396508
0.439527
0.33344
0.332749
0.00173544
0.00173984
0.333107
0.333077
0.000517931
0.332887
0.333213
0.000155088
0.000155105
0.333048
0.333051
0.000156211
0.333314
0.00187424
0.332816
0.000587227
0.332735
0.333381
0.000579422
0.333321
0.00189048
0.332816
0.000587227
0.333382
0.332729
0.000578089
0.787149
0.00481475
3.7587
0.4066
0.751422
0.00835674
3.75462
1.40117
0.182474
0.34545
0.337422
0.183223
0.336592
1.39397
1.37327
0.336696
0.0741114
0.350885
0.203741
0.590517
0.338866
0.785684
0.406574
0.00848854
3.75613
0.00849624
3.75592
0.783076
0.3334
0.332757
0.00188432
0.000591444
0.332753
0.333404
0.000590145
0.332989
0.33315
0.000155921
4.44884e-05
0.333184
0.332953
0.000156865
0.33338
0.00188209
0.332753
0.000588879
0.332762
0.333373
0.000589287
0.33297
0.000161847
0.333172
4.11199e-05
0.333166
0.332976
0.000159363
0.779969
0.00857703
3.75467
0.406552
0.779969
0.0085907
3.75467
1.38633
0.182649
0.347098
0.336974
1.38901
0.182745
0.337142
1.38494
0.337091
0.182815
0.346829
1.38478
0.18279
0.337066
0.780475
0.406555
0.00851635
3.75596
0.780975
0.00853596
3.75518
0.3334
0.332757
0.000591444
0.00188432
0.333404
0.332753
0.000590145
0.332989
0.333147
4.44884e-05
0.000156025
0.000156865
0.333185
0.332956
0.33297
0.000161847
0.333172
4.11199e-05
0.332977
0.000159363
0.333166
0.333382
0.00188209
0.332752
0.000588879
0.332763
0.000589287
0.333373
0.333094
0.333117
2.06751e-05
2.06748e-05
0.333104
0.333104
2.16318e-05
0.333132
0.333042
2.25602e-05
2.25602e-05
0.333087
0.333087
1.77528e-05
0.333112
1.8723e-05
0.333078
2.42236e-05
0.333118
0.333072
2.01698e-05
0.333113
1.87226e-05
0.333077
2.42236e-05
0.333072
0.333118
2.01698e-05
0.333094
0.333117
2.06747e-05
2.06752e-05
0.333104
0.333104
2.16318e-05
0.333132
0.333042
2.25602e-05
2.25602e-05
0.333087
0.333087
1.77528e-05
0.333112
1.87225e-05
0.333078
2.42236e-05
0.333118
0.333072
2.01698e-05
0.333113
1.87232e-05
0.333077
2.42236e-05
0.333072
0.333118
2.01698e-05
0.333094
0.333117
2.06751e-05
2.06747e-05
0.333104
0.333104
2.16318e-05
0.333132
0.333042
2.25602e-05
2.25602e-05
1.77528e-05
0.333087
0.333087
0.333113
1.8723e-05
0.333077
2.42236e-05
0.333118
2.01698e-05
0.333072
0.333112
1.87225e-05
0.333078
2.42236e-05
0.333118
2.01698e-05
0.333072
0.779969
0.00857809
0.406552
3.75467
0.00858759
0.779969
3.75467
1.38633
0.182649
0.347069
0.336999
0.33713
0.182742
1.38899
1.38491
0.337089
0.346844
0.182821
0.33707
0.182795
1.38476
0.780475
0.406555
0.00853173
3.75596
0.00854241
0.780974
3.75518
0.3334
0.332757
0.000591444
0.00188432
0.333404
0.332753
0.000590145
0.332989
0.33315
4.44884e-05
0.000155921
0.332953
0.333184
0.000156865
0.33297
0.000161847
0.333172
4.11199e-05
0.332976
0.333166
0.000159363
0.33338
0.00188209
0.332753
0.000588879
0.333373
0.332762
0.000589287
0.779969
0.00857984
3.75467
0.406552
0.779969
0.00858254
3.75467
1.38625
0.182667
0.347033
0.337018
0.182762
0.337125
1.38892
1.38489
0.337086
0.18282
0.346858
0.182802
1.38476
0.337074
0.780475
0.406555
0.00856557
3.75596
0.00855269
3.75518
0.780974
0.333443
0.332756
0.00174151
0.00173783
0.333096
0.333087
0.000514165
0.332887
0.333213
0.000155088
0.000155105
0.333048
0.333051
0.000154088
0.333317
0.00188409
0.33282
0.000587227
0.332732
0.333382
0.000580047
0.333317
0.001871
0.33282
0.000587227
0.333382
0.332736
0.000579422
0.393513
0.00324067
3.75515
3.757
0.437887
0.43792
1.77713
0.395995
0.00531057
0.44086
0.440684
0.439454
0.395896
0.439305
0.790296
0.00484675
0.406595
3.76091
0.00796789
0.758001
3.75603
1.39408
0.184903
0.34499
0.337475
0.189984
0.336387
1.39152
1.35383
0.336012
0.351546
0.0783448
0.222501
0.339146
0.576754
0.786475
0.406572
0.0084301
3.75613
0.00831066
3.7587
0.782819
0.3334
0.332757
0.000591444
0.00188432
0.333404
0.332753
0.000590145
0.332989
0.333147
4.44884e-05
0.000156025
0.332956
0.333185
0.000156865
0.33297
0.000161847
0.333172
4.11199e-05
0.332977
0.333166
0.000159363
0.333383
0.00188209
0.33275
0.000588879
0.333372
0.332763
0.000589287
0.779969
0.00857929
0.406552
3.75467
0.00858995
0.779969
3.75467
1.38628
0.183141
0.347085
0.336975
0.33714
0.182756
1.38847
1.38489
0.337088
0.346838
0.182819
0.337068
0.182801
1.38476
0.780474
0.406555
0.00851701
3.75596
0.00853694
0.780717
3.75518
0.779969
0.00857608
0.406552
3.75467
0.00858389
0.779969
3.75467
1.38638
0.182645
0.34715
0.336914
0.182742
0.33716
1.38909
1.38497
0.337093
0.346802
0.182812
0.182787
0.337062
1.38478
0.780474
0.406555
0.00846147
3.75596
0.00850802
3.75518
0.781241
0.787148
0.00479072
0.406597
3.7587
0.00858008
0.750894
3.75462
1.40303
0.18296
0.346049
0.337385
0.336739
0.184627
1.39398
1.38005
0.337015
0.350005
0.0750827
0.338643
0.207933
0.595872
0.785163
0.406569
0.00854808
3.75613
0.00860567
0.782552
3.75592
0.790816
0.00488568
0.406598
3.76109
0.00759959
0.76037
3.75603
1.38886
0.183948
0.343804
0.337583
0.336092
0.189649
1.3915
1.33672
0.335375
0.353255
0.0770735
0.339578
0.21961
0.563083
0.787521
0.406572
0.00831163
3.75613
0.00810108
0.783866
3.7587
0.393752
0.00323433
3.7555
3.757
0.437886
0.437928
1.77713
0.395759
0.00531771
0.440896
0.440545
0.396741
0.439502
0.43926
0.333326
3.8143e-15
3.68631e-15
0.333323
1.79819e-15
0.333325
0.333325
0.333317
4.58466e-15
3.46945e-15
0.333329
4.58466e-15
0.333316
0.33333
0.333317
3.8143e-15
3.4695e-15
0.333329
2.5214e-15
0.33333
0.333316
0.333308
5.78243e-15
5.197e-15
0.333335
3.59638e-15
0.333321
0.333321
0.333308
4.33681e-15
5.78241e-15
0.333335
3.48016e-15