/*--------------------------------*- C++ -*----------------------------------*\
| =========                 |                                                 |
| \\      /  F ield         | OpenFOAM: The Open Source CFD Toolbox           |
|  \\    /   O peration     | Version:  2412                                  |
|   \\  /    A nd           | Website:  www.openfoam.com                      |
|    \\/     M anipulation  |                                                 |
\*---------------------------------------------------------------------------*/
FoamFile
{
    version     2.0;
    format      ascii;
    arch        "LSB;label=32;scalar=64";
    class       volVectorField;
    location    "400";
    object      U;
}
// * * * * * * * * * * * * * * * * * * * * * * * * * * * * * * * * * * * * * //

dimensions      [0 1 -1 0 0 0 0];

internalField   nonuniform List<vector> 
4000
(
(0.00358959 -0.0058945 0.00358959)
(0.0105198 -0.00609624 0.0037445)
(0.0148791 -0.00465928 0.00302479)
(0.0170524 -0.00282564 0.00214168)
(0.0172625 -0.00125908 0.00150905)
(0.0159302 -0.000251065 0.0013075)
(0.0134235 4.44727e-05 0.00149319)
(0.0100021 -0.000307374 0.0018933)
(0.0063486 -0.000988591 0.0021745)
(0.00323221 -0.00157461 0.00210832)
(0.00101485 -0.00180836 0.00173915)
(-0.000289562 -0.00164716 0.0011541)
(-0.00116512 -0.00101565 0.000426345)
(-0.00128796 0.000517848 -0.00027115)
(-0.00234918 0.00248564 -0.000848619)
(-0.00370512 0.00357554 -0.00180687)
(-0.00462734 0.003303 -0.00277603)
(-0.0026255 0.00238603 -0.00282949)
(-0.00107543 0.00108185 -0.000864731)
(0.00467057 -0.000193828 0.0025004)
(0.0053534 -0.0231493 0.0053534)
(0.0123571 -0.0186958 0.00533964)
(0.0164719 -0.0128125 0.00456234)
(0.0185016 -0.00714045 0.00335302)
(0.0190867 -0.00285996 0.00206864)
(0.0188203 -8.95276e-05 0.0011013)
(0.017742 0.0013442 0.000777906)
(0.0157064 0.00168071 0.00106476)
(0.0123179 0.000957938 0.00155579)
(0.00804455 -0.000392366 0.00175068)
(0.00421398 -0.00148849 0.00154958)
(0.00142106 -0.00185098 0.00119977)
(-0.000412855 -0.00134674 0.000945694)
(-0.00163459 0.000142599 0.000916289)
(-0.00233088 0.00252385 0.00101398)
(-0.00269527 0.00468225 0.000577537)
(-0.00339917 0.00482414 -0.000615865)
(-0.00267957 0.00197542 -0.00144147)
(-0.00324231 -0.000994267 -0.00127888)
(0.00206977 -0.00393776 0.00122155)
(0.00550419 -0.0431382 0.00550419)
(0.0122339 -0.0346788 0.0063303)
(0.0157428 -0.0252451 0.00623295)
(0.0180217 -0.0159213 0.00544632)
(0.0193574 -0.00827872 0.00413596)
(0.0203925 -0.00291491 0.0026492)
(0.0210643 0.000149144 0.00148602)
(0.0209272 0.0014172 0.00103029)
(0.0196148 0.00150784 0.00126847)
(0.016813 0.000817669 0.00177663)
(0.012809 -0.000309635 0.00213613)
(0.00866288 -0.00145018 0.0022537)
(0.00513147 -0.00212967 0.00236233)
(0.00240139 -0.00206431 0.00271258)
(0.000380928 -0.00103405 0.00337497)
(-0.000888268 0.0010461 0.0041663)
(-0.00256023 0.00365153 0.00367671)
(-0.00215054 0.00305564 0.00202109)
(-0.00372156 -0.000867037 0.00178601)
(0.00111091 -0.00723285 0.00387364)
(0.00421465 -0.0607578 0.00421465)
(0.00989474 -0.0500521 0.00594038)
(0.0110062 -0.0388979 0.00644367)
(0.0125301 -0.0280303 0.00639696)
(0.0139695 -0.0185495 0.0059273)
(0.0162567 -0.0106287 0.00518017)
(0.0187029 -0.00472498 0.00447799)
(0.020557 -0.00141263 0.00411624)
(0.0216643 -0.000139313 0.0041923)
(0.0219644 -8.17365e-05 0.0045468)
(0.0213004 -0.000708733 0.00493156)
(0.0196733 -0.00170363 0.00524038)
(0.0173132 -0.00278645 0.00546461)
(0.0145081 -0.00373101 0.00566585)
(0.0115681 -0.00441015 0.00596293)
(0.00889784 -0.00471041 0.00651222)
(0.00632333 -0.00485038 0.00735679)
(0.00442047 -0.00583088 0.00786522)
(0.00198295 -0.0105511 0.00800428)
(0.00285583 -0.0183984 0.0089937)
(0.00229546 -0.0729615 0.00229547)
(0.00604448 -0.0614387 0.00449316)
(0.0032894 -0.0500777 0.00487982)
(0.00310709 -0.0399633 0.00480413)
(0.00350094 -0.0315376 0.00449225)
(0.0060874 -0.0240789 0.00416819)
(0.00983657 -0.0173307 0.00429297)
(0.0132796 -0.013135 0.0047428)
(0.0163475 -0.0116695 0.00520727)
(0.0193134 -0.011527 0.00559627)
(0.0218533 -0.0118987 0.00590322)
(0.0236919 -0.0122848 0.00615976)
(0.0246298 -0.0124958 0.00639346)
(0.0245583 -0.0125407 0.0066127)
(0.0234863 -0.01253 0.00683198)
(0.0215279 -0.0126307 0.00709328)
(0.0188814 -0.0132076 0.00749811)
(0.015953 -0.0151606 0.00813084)
(0.0108013 -0.0193353 0.00919743)
(0.00715472 -0.0267085 0.0110475)
(0.000341842 -0.079277 0.000341833)
(0.001844 -0.0679799 0.00250521)
(-0.00437511 -0.0575504 0.00212658)
(-0.00562556 -0.0497056 0.00136806)
(-0.00553631 -0.0435729 0.000479946)
(-0.0025207 -0.0380541 -0.000293959)
(0.00268171 -0.0319178 -0.000418539)
(0.00817593 -0.0278921 0.000175452)
(0.012965 -0.0267455 0.00075765)
(0.0179851 -0.0265207 0.00119759)
(0.0226252 -0.0263366 0.00166449)
(0.0264463 -0.0258664 0.00220859)
(0.0291497 -0.02508 0.0028165)
(0.0305779 -0.0240977 0.0034547)
(0.0306915 -0.0230862 0.00409803)
(0.0294782 -0.0222294 0.0047389)
(0.0269109 -0.0219122 0.0054354)
(0.0230237 -0.022702 0.00631975)
(0.0159653 -0.025379 0.00782693)
(0.010262 -0.0312397 0.0107268)
(-0.0019225 -0.0788282 -0.0019225)
(-0.00278116 -0.0689716 -0.000138775)
(-0.0109346 -0.0609317 -0.00153497)
(-0.0128467 -0.0555085 -0.0030701)
(-0.0122987 -0.0513472 -0.00463233)
(-0.00841781 -0.0475908 -0.00590828)
(-0.00208051 -0.0429963 -0.00667207)
(0.00617936 -0.0391131 -0.00619997)
(0.0125979 -0.0381438 -0.00555001)
(0.0194216 -0.037938 -0.00501579)
(0.0258542 -0.0373825 -0.00427058)
(0.0312172 -0.0362619 -0.00331739)
(0.0351245 -0.0346771 -0.00224763)
(0.0374055 -0.0328355 -0.0011361)
(0.0380306 -0.0309435 -2.96847e-05)
(0.0369089 -0.0291385 0.00105705)
(0.0339488 -0.0278365 0.00222343)
(0.0290749 -0.0275209 0.00365425)
(0.0203483 -0.0289161 0.00586181)
(0.0129674 -0.0332394 0.00990099)
(-0.00526195 -0.0701046 -0.00526194)
(-0.00838033 -0.0627388 -0.00403406)
(-0.0177602 -0.0573177 -0.00627995)
(-0.0201728 -0.0540644 -0.00865209)
(-0.0190267 -0.051484 -0.0109756)
(-0.0140625 -0.0489271 -0.0129988)
(-0.0066623 -0.0458138 -0.0144593)
(0.00434169 -0.0425432 -0.0142521)
(0.0129715 -0.0419473 -0.013467)
(0.0218083 -0.0421715 -0.0126363)
(0.0302545 -0.0417287 -0.0113313)
(0.0372246 -0.0404953 -0.00971375)
(0.0422816 -0.0386627 -0.007992)
(0.0452999 -0.0364547 -0.006288)
(0.0463244 -0.0340674 -0.0046773)
(0.0451526 -0.0315891 -0.00312755)
(0.0417212 -0.029473 -0.0014761)
(0.0358537 -0.0281516 0.000515429)
(0.0254446 -0.0283293 0.00341731)
(0.0161019 -0.0310371 0.00853664)
(-0.0104107 -0.0526408 -0.0104107)
(-0.0164808 -0.0471383 -0.0106006)
(-0.0268183 -0.0441344 -0.0136866)
(-0.0296664 -0.0429794 -0.0170075)
(-0.0279656 -0.0422459 -0.0202627)
(-0.0218346 -0.0413533 -0.0232126)
(-0.0125143 -0.0398844 -0.0255615)
(0.00103799 -0.0377136 -0.0258196)
(0.0139666 -0.0375083 -0.0248422)
(0.0256203 -0.0381548 -0.0235054)
(0.036538 -0.0378385 -0.0212566)
(0.0450919 -0.0365651 -0.0185777)
(0.0509413 -0.0346098 -0.0158516)
(0.0541998 -0.0322476 -0.0132238)
(0.0550564 -0.029688 -0.0107544)
(0.0536251 -0.0271764 -0.00840114)
(0.0498215 -0.024902 -0.00603282)
(0.0432033 -0.0231016 -0.00339101)
(0.0313394 -0.0224082 0.000204929)
(0.0198486 -0.0236094 0.00631673)
(-0.01816 -0.0321782 -0.01816)
(-0.0288867 -0.0256691 -0.021335)
(-0.039623 -0.0221085 -0.0263957)
(-0.0422772 -0.0202129 -0.0313266)
(-0.0396644 -0.0186871 -0.0361349)
(-0.0320925 -0.0170822 -0.0406908)
(-0.0204047 -0.0150835 -0.0445142)
(-0.00457963 -0.0123851 -0.0460251)
(0.015705 -0.0124263 -0.0451983)
(0.0309726 -0.0141742 -0.0429008)
(0.0447535 -0.0154309 -0.0390179)
(0.0550398 -0.016052 -0.0345207)
(0.0616441 -0.0161688 -0.0299275)
(0.0649421 -0.0159319 -0.0255146)
(0.0653467 -0.015446 -0.0213471)
(0.0631236 -0.0147962 -0.0173632)
(0.0582561 -0.0140708 -0.0134022)
(0.0503008 -0.0134463 -0.00919184)
(0.0373255 -0.0135018 -0.00420941)
(0.0238535 -0.0141957 0.00317201)
(0.0037445 -0.00609623 0.0105198)
(0.0097458 -0.00576024 0.00974581)
(0.0141171 -0.0047532 0.00816424)
(0.0165748 -0.00333106 0.00609305)
(0.0171371 -0.00178094 0.00425952)
(0.0161062 -0.000501563 0.00319837)
(0.0137676 0.000138181 0.0031424)
(0.0103339 5.93588e-05 0.00395676)
(0.00633324 -0.000485037 0.00497124)
(0.00264223 -0.0010192 0.00540593)
(-0.000217809 -0.00120104 0.00504278)
(-0.00217584 -0.000961317 0.00409512)
(-0.00364307 -0.000248678 0.00269145)
(-0.0049359 0.0010203 0.000894143)
(-0.00617138 0.00231656 -0.00133938)
(-0.00793526 0.00243267 -0.00345652)
(-0.00901911 0.00164715 -0.00506834)
(-0.00792536 0.00137247 -0.0055137)
(-0.00748148 0.00162652 -0.00452579)
(0.00242894 0.00170428 0.00568613)
(0.00533964 -0.0186958 0.0123571)
(0.0119901 -0.0159505 0.0119901)
(0.0162643 -0.011947 0.0104521)
(0.0183583 -0.00772851 0.0081226)
(0.0188496 -0.00407327 0.00562456)
(0.0183571 -0.00125227 0.00366631)
(0.0170385 0.00054201 0.00284088)
(0.0147668 0.00120067 0.00323835)
(0.0112815 0.000746119 0.00423741)
(0.00703004 -0.000452616 0.00493044)
(0.00314545 -0.00164481 0.00493978)
(0.000190775 -0.002296 0.00454003)
(-0.00180321 -0.00223249 0.00418375)
(-0.00314857 -0.00133941 0.00402449)
(-0.00398009 0.000374998 0.00380541)
(-0.00467396 0.00189378 0.00257349)
(-0.00565496 0.00149295 0.00028766)
(-0.00566979 -0.000560665 -0.00110014)
(-0.00607819 -0.00217102 -0.00084104)
(0.000945259 -0.00344331 0.00430665)
(0.0063303 -0.0346788 0.0122339)
(0.013538 -0.0280565 0.013538)
(0.0177653 -0.0204897 0.0130617)
(0.019912 -0.01301 0.0111611)
(0.0205115 -0.00707027 0.00843233)
(0.0203709 -0.00306888 0.00569401)
(0.0197986 -0.000712967 0.00385849)
(0.0185561 0.00045204 0.00339896)
(0.016343 0.000641866 0.00405933)
(0.0130544 -5.28685e-05 0.0049929)
(0.00927472 -0.0012738 0.00557757)
(0.00575731 -0.00252174 0.00579144)
(0.00278278 -0.00332588 0.00602676)
(0.000365469 -0.00335168 0.00662289)
(-0.00130712 -0.00242474 0.00757806)
(-0.00222278 -0.000913735 0.00842731)
(-0.00338506 0.000471702 0.007828)
(-0.00336505 -0.00130829 0.00610147)
(-0.00486252 -0.00470251 0.00547024)
(-6.03083e-05 -0.00848059 0.00766773)
(0.00594038 -0.0500521 0.00989474)
(0.0136285 -0.0405687 0.0136285)
(0.0168652 -0.0301728 0.014797)
(0.0189345 -0.0196701 0.0141229)
(0.0199165 -0.0108871 0.012244)
(0.0205412 -0.00473045 0.00973148)
(0.0208089 -0.0012432 0.00755123)
(0.0205782 0.000307874 0.00657697)
(0.0196604 0.000756842 0.00679901)
(0.0180761 0.000472398 0.00763041)
(0.01603 -0.000379592 0.0083975)
(0.0137285 -0.00157511 0.00898249)
(0.0112639 -0.00277594 0.00949556)
(0.00868159 -0.0037138 0.0101018)
(0.00614413 -0.00423598 0.0109474)
(0.00394322 -0.00424593 0.0120964)
(0.00206506 -0.00403936 0.0133054)
(0.00114379 -0.00577785 0.0137924)
(-0.00101795 -0.0105558 0.0137465)
(0.00085784 -0.0175097 0.0149958)
(0.00449317 -0.0614388 0.00604448)
(0.0122498 -0.0504717 0.0122498)
(0.012999 -0.0386245 0.0147767)
(0.013957 -0.0266746 0.0151558)
(0.0145184 -0.0163845 0.0144284)
(0.0156535 -0.00848935 0.0130933)
(0.0169146 -0.00337764 0.0117866)
(0.0178177 -0.000876294 0.0112099)
(0.0183052 -0.000210677 0.0113992)
(0.0184929 -0.000633958 0.0118795)
(0.0185133 -0.00172794 0.0123164)
(0.018411 -0.00305888 0.0126687)
(0.0179919 -0.0043367 0.0129895)
(0.0170335 -0.0054596 0.0133119)
(0.0154787 -0.00645555 0.0136897)
(0.0134631 -0.00742613 0.0142106)
(0.0112413 -0.00868784 0.0149889)
(0.00926228 -0.0112641 0.0159741)
(0.00522179 -0.0162482 0.0172811)
(0.00396959 -0.0242613 0.0192193)
(0.00250519 -0.0679799 0.00184399)
(0.00998937 -0.0562548 0.00998937)
(0.00756766 -0.0440302 0.0129624)
(0.0072523 -0.0321857 0.0133618)
(0.00726023 -0.0220592 0.0127699)
(0.00875716 -0.0138993 0.0119596)
(0.0108195 -0.00800875 0.0114959)
(0.0126723 -0.00471618 0.0115326)
(0.0141462 -0.0037712 0.0118414)
(0.0156083 -0.00440305 0.0120012)
(0.017234 -0.00583464 0.0120831)
(0.0188835 -0.0073968 0.0122912)
(0.0201641 -0.00873983 0.0126432)
(0.0207237 -0.00981921 0.0130549)
(0.0203822 -0.0107699 0.0134898)
(0.0191267 -0.0118203 0.0139632)
(0.0169635 -0.0132761 0.0145948)
(0.0140715 -0.0157221 0.0155571)
(0.0086734 -0.0200826 0.0172824)
(0.0060925 -0.0276472 0.0202576)
(-0.000138775 -0.0689716 -0.00278114)
(0.00644577 -0.0569951 0.00644577)
(0.000686366 -0.0453479 0.00870978)
(-0.000585574 -0.0349415 0.00806133)
(-0.000641316 -0.0260797 0.00656413)
(0.00162751 -0.0185385 0.00528549)
(0.00475949 -0.0124056 0.00471828)
(0.00773773 -0.00842573 0.00512543)
(0.0101644 -0.00725572 0.00566883)
(0.0129489 -0.00824971 0.00577853)
(0.0162494 -0.0101412 0.00605057)
(0.0195342 -0.0119508 0.00675344)
(0.0221949 -0.0132692 0.00774206)
(0.0238237 -0.0141441 0.00882191)
(0.0241669 -0.0148319 0.00989941)
(0.0232861 -0.015675 0.0109281)
(0.0211205 -0.0169031 0.0120943)
(0.0176916 -0.0189968 0.0136777)
(0.0112674 -0.0228602 0.0162165)
(0.00784203 -0.0296279 0.0204907)
(-0.00403405 -0.0627388 -0.00838034)
(-7.0349e-05 -0.0510271 -7.03451e-05)
(-0.00880476 -0.0411927 0.00032543)
(-0.0110152 -0.0333739 -0.00217588)
(-0.011007 -0.0266258 -0.00524005)
(-0.00807757 -0.0206024 -0.00776232)
(-0.0032052 -0.0149797 -0.00912509)
(0.00244091 -0.0103368 -0.00863614)
(0.00738151 -0.0092342 -0.00776258)
(0.0127695 -0.0109709 -0.00722314)
(0.0185236 -0.0132901 -0.00598086)
(0.0236176 -0.0152405 -0.00399295)
(0.0274885 -0.0165269 -0.00160949)
(0.0298543 -0.0172183 0.000848998)
(0.030281 -0.0174162 0.00319343)
(0.0293462 -0.0178044 0.00525145)
(0.0268906 -0.0184802 0.00741265)
(0.0226613 -0.0198579 0.0100985)
(0.014904 -0.0228342 0.0138891)
(0.0100893 -0.02818 0.0197602)
(-0.0106006 -0.0471383 -0.0164808)
(-0.0122853 -0.0381617 -0.0122853)
(-0.0223274 -0.0317355 -0.0142059)
(-0.0253431 -0.0273738 -0.0180772)
(-0.0246802 -0.0238026 -0.0221913)
(-0.0202259 -0.0205259 -0.0257417)
(-0.0126136 -0.0170036 -0.0281872)
(-0.00289308 -0.013095 -0.0281478)
(0.00785541 -0.0123073 -0.0271912)
(0.0176498 -0.0146793 -0.0259823)
(0.0268402 -0.0168125 -0.0231238)
(0.0337408 -0.0181715 -0.0193809)
(0.0382848 -0.0187108 -0.015543)
(0.0406756 -0.0186637 -0.011767)
(0.0410873 -0.0182274 -0.00814476)
(0.039654 -0.0176174 -0.00461866)
(0.0362858 -0.0171504 -0.000862979)
(0.030396 -0.0171806 0.0035998)
(0.0205651 -0.0185526 0.00928024)
(0.0133239 -0.021874 0.0172802)
(-0.021335 -0.0256691 -0.0288867)
(-0.031621 -0.0157017 -0.0316211)
(-0.0434531 -0.00992056 -0.0379727)
(-0.046759 -0.00633811 -0.0448597)
(-0.0448298 -0.00353826 -0.0516078)
(-0.0378042 -0.000954825 -0.0578542)
(-0.0260612 0.00196924 -0.0626855)
(-0.0116467 0.00561201 -0.0647616)
(0.0126321 0.00658494 -0.0646988)
(0.0290524 0.00370186 -0.0619299)
(0.043332 0.00108257 -0.0564637)
(0.0532878 -0.00104366 -0.0497042)
(0.0590498 -0.00273853 -0.0425857)
(0.0612727 -0.00415826 -0.0357009)
(0.0605328 -0.00538139 -0.0291566)
(0.057214 -0.00645681 -0.0228163)
(0.051436 -0.00744709 -0.0163083)
(0.043018 -0.00849782 -0.00895837)
(0.0298401 -0.00992041 0.000508002)
(0.0181254 -0.0126313 0.0124235)
(0.00302479 -0.00465928 0.0148791)
(0.00816424 -0.0047532 0.0141171)
(0.0124171 -0.00407045 0.0124171)
(0.0150365 -0.00308567 0.0100196)
(0.0160269 -0.00193652 0.00758957)
(0.015493 -0.000878454 0.00601087)
(0.0134968 -0.000190944 0.00595854)
(0.0100245 -4.32413e-05 0.0073768)
(0.00540671 -0.000321694 0.00916677)
(0.000764386 -0.000648004 0.00983298)
(-0.00277533 -0.000663026 0.00904235)
(-0.00527097 -0.000384476 0.0073656)
(-0.00709273 0.000157536 0.00513527)
(-0.00865724 0.000813911 0.00249234)
(-0.0102101 0.00114344 -0.000460557)
(-0.0116374 0.000685276 -0.00318184)
(-0.0123429 -4.80222e-05 -0.00533514)
(-0.0116813 -3.38232e-05 -0.00685058)
(-0.0100883 0.000705086 -0.007608)
(-0.00407548 0.00212161 -0.0021318)
(0.00456234 -0.0128125 0.0164719)
(0.0104521 -0.011947 0.0162643)
(0.0143791 -0.00988676 0.0143791)
(0.0164038 -0.00720243 0.0114295)
(0.0169706 -0.00448984 0.00831001)
(0.0165038 -0.00219187 0.00601659)
(0.0150801 -0.000518651 0.00531085)
(0.0124139 0.00036674 0.00626576)
(0.00832452 0.000245764 0.00793866)
(0.00359737 -0.000729879 0.0089115)
(-0.000371662 -0.0017927 0.00868425)
(-0.00296167 -0.00236755 0.00797135)
(-0.00454985 -0.00231634 0.00738717)
(-0.00549213 -0.00156593 0.00702305)
(-0.00612072 -0.000258801 0.00648553)
(-0.00694858 0.000648484 0.00486566)
(-0.00840486 -6.74226e-05 0.00216005)
(-0.00927208 -0.00156334 0.000397224)
(-0.00912415 -0.00192284 5.20963e-05)
(-0.00231844 -0.00151484 0.00511749)
(0.00623295 -0.0252451 0.0157428)
(0.0130617 -0.0204897 0.0177653)
(0.0170323 -0.0153151 0.0170323)
(0.0186807 -0.0102801 0.0142304)
(0.0187283 -0.00633109 0.0105557)
(0.0179952 -0.00361551 0.00735871)
(0.0167046 -0.00173035 0.00571269)
(0.0145356 -0.000385044 0.00591117)
(0.0111882 0.000116887 0.00723746)
(0.00711127 -0.000520073 0.00842893)
(0.00342011 -0.0019078 0.00880683)
(0.00068728 -0.00324248 0.00879141)
(-0.00124286 -0.00395425 0.00908198)
(-0.00264938 -0.00385896 0.00990227)
(-0.00356739 -0.00295605 0.01103)
(-0.0040905 -0.00169281 0.0117568)
(-0.00487475 -0.00110909 0.0109056)
(-0.00527066 -0.00310257 0.00888228)
(-0.0062442 -0.00571949 0.00820559)
(-0.0014146 -0.00794051 0.0111678)
(0.00644367 -0.0388979 0.0110062)
(0.014797 -0.0301728 0.0168652)
(0.0186728 -0.0214986 0.0186728)
(0.0204911 -0.0132277 0.0172755)
(0.020551 -0.00711438 0.0139918)
(0.0197588 -0.00360543 0.0103838)
(0.0184441 -0.00174791 0.00798201)
(0.0164226 -0.000444327 0.00746306)
(0.0136025 0.000289807 0.0083566)
(0.0104586 -8.55206e-05 0.00956493)
(0.00782485 -0.00138835 0.0103443)
(0.00597271 -0.00291191 0.0109064)
(0.00446175 -0.00408725 0.0117)
(0.00290207 -0.00470133 0.0129114)
(0.00127803 -0.00469247 0.0145584)
(-0.000168289 -0.00406892 0.0165226)
(-0.00125086 -0.00362358 0.0181191)
(-0.0017674 -0.00546308 0.0186824)
(-0.00317954 -0.00952233 0.0187613)
(-0.000582127 -0.0152656 0.0206916)
(0.00487982 -0.0500777 0.0032894)
(0.0147767 -0.0386245 0.012999)
(0.0173927 -0.0275709 0.0173927)
(0.0189819 -0.0167557 0.0179004)
(0.0191954 -0.00828595 0.0160366)
(0.0188065 -0.0031354 0.0131557)
(0.0178978 -0.000402927 0.010826)
(0.016184 0.00123698 0.0100492)
(0.0138509 0.00199494 0.0106029)
(0.0116466 0.00139154 0.0115614)
(0.0103218 -0.000339719 0.0123254)
(0.00987403 -0.00224404 0.0130448)
(0.00965104 -0.00376971 0.0140473)
(0.00905122 -0.00485505 0.0153108)
(0.00793843 -0.00560035 0.0167843)
(0.00651103 -0.00614635 0.0184713)
(0.00504299 -0.00695343 0.0203557)
(0.00400913 -0.00910897 0.0222398)
(0.00112167 -0.0137489 0.0241639)
(0.00171555 -0.0215561 0.0267462)
(0.00212657 -0.0575504 -0.0043751)
(0.0129624 -0.0440302 0.00756765)
(0.0131612 -0.0315593 0.0131612)
(0.0139625 -0.0196075 0.0143929)
(0.0139918 -0.0100237 0.0132629)
(0.0141391 -0.00360941 0.0112095)
(0.013708 0.00045907 0.00931633)
(0.0124139 0.00313815 0.00854323)
(0.0106202 0.00417656 0.00891538)
(0.00927294 0.00308166 0.00963569)
(0.00923735 0.00046249 0.0104231)
(0.0102374 -0.00226812 0.0113273)
(0.0113407 -0.0043973 0.0126481)
(0.0118877 -0.00597378 0.0142066)
(0.0116837 -0.00722338 0.0158586)
(0.0107558 -0.00841048 0.0175804)
(0.00919126 -0.00990068 0.019457)
(0.00740725 -0.0123256 0.021579)
(0.00367208 -0.016799 0.0243118)
(0.0033438 -0.0246904 0.0280414)
(-0.00153495 -0.0609317 -0.0109346)
(0.00870977 -0.0453479 0.000686364)
(0.00569126 -0.0320902 0.00569126)
(0.00567079 -0.0201718 0.00606509)
(0.00549901 -0.0106207 0.00435697)
(0.00626503 -0.00347022 0.00219533)
(0.00644396 0.0024194 9.08276e-05)
(0.00619507 0.00647392 -0.000393423)
(0.00559015 0.00763717 0.000222059)
(0.00567566 0.00550206 0.00103269)
(0.00727179 0.00138714 0.00218696)
(0.00978208 -0.00257217 0.00386719)
(0.0120636 -0.00542782 0.00592505)
(0.0135364 -0.00743515 0.00822235)
(0.01405 -0.00901194 0.0105973)
(0.013556 -0.0105316 0.013013)
(0.0120801 -0.0123495 0.0155943)
(0.00995295 -0.0149904 0.0185696)
(0.0056004 -0.0195819 0.0224212)
(0.00472924 -0.0272282 0.0278455)
(-0.00627996 -0.0573177 -0.0177602)
(0.000325436 -0.0411927 -0.00880476)
(-0.00622541 -0.0280233 -0.00622541)
(-0.00732366 -0.0170313 -0.0078493)
(-0.00767745 -0.00799652 -0.0107461)
(-0.0061115 -0.000559759 -0.0134259)
(-0.00344635 0.00533986 -0.0152738)
(-0.000625761 0.0100521 -0.015557)
(0.00192369 0.0113896 -0.0147515)
(0.00503921 0.00843803 -0.0136777)
(0.0091215 0.003605 -0.0117766)
(0.0131093 -0.0012207 -0.00918968)
(0.0162388 -0.0050075 -0.00599919)
(0.0183003 -0.00762746 -0.002443)
(0.0192002 -0.00969123 0.0011268)
(0.0187518 -0.011572 0.00469671)
(0.0170546 -0.0135618 0.008461)
(0.014313 -0.0161013 0.0128419)
(0.00889108 -0.0202956 0.018414)
(0.00672329 -0.0268124 0.026114)
(-0.0136866 -0.0441344 -0.0268183)
(-0.0142059 -0.0317355 -0.0223274)
(-0.023391 -0.0225657 -0.023391)
(-0.0258378 -0.0156021 -0.0272207)
(-0.0253316 -0.00978286 -0.0318446)
(-0.0217762 -0.00467052 -0.0361394)
(-0.0153844 0.000746537 -0.039168)
(-0.00707356 0.00648024 -0.0400915)
(0.00295956 0.00806047 -0.0392814)
(0.012422 0.00360014 -0.0372685)
(0.0208621 -0.00171566 -0.0333791)
(0.0264228 -0.00613186 -0.0281078)
(0.0298356 -0.00912028 -0.0228946)
(0.0314212 -0.0110355 -0.017741)
(0.0315287 -0.0121505 -0.0128051)
(0.0301665 -0.0128614 -0.0080296)
(0.0272984 -0.0135354 -0.00298975)
(0.0228719 -0.0147329 0.00313276)
(0.0151931 -0.0173341 0.0110905)
(0.0100974 -0.0216107 0.0219424)
(-0.0263957 -0.0221086 -0.039623)
(-0.0379727 -0.00992056 -0.0434531)
(-0.0508217 -0.00296835 -0.0508217)
(-0.0542684 0.00145929 -0.0590491)
(-0.0521583 0.00488128 -0.0670117)
(-0.044774 0.00798314 -0.0743037)
(-0.032145 0.0115578 -0.0796743)
(-0.0168468 0.0159909 -0.0822074)
(0.00975377 0.018119 -0.082602)
(0.0290018 0.0142522 -0.0796665)
(0.0450198 0.0103706 -0.0731209)
(0.0556323 0.00712669 -0.0646159)
(0.0610696 0.00442727 -0.0555169)
(0.0624667 0.00200841 -0.0466739)
(0.0606626 -0.000261493 -0.0382212)
(0.0562554 -0.00238062 -0.0300502)
(0.0495557 -0.00433446 -0.0217147)
(0.0405378 -0.00628414 -0.0124872)
(0.02771 -0.00877337 -0.00110189)
(0.0162283 -0.0123553 0.0146977)
(0.00214168 -0.00282564 0.0170524)
(0.00609305 -0.00333106 0.0165748)
(0.0100196 -0.00308567 0.0150365)
(0.0128456 -0.00248461 0.0128456)
(0.0143595 -0.00194092 0.0105529)
(0.0146489 -0.0014316 0.0090589)
(0.0134093 -0.000752254 0.00935063)
(0.00998082 -9.89655e-05 0.0115341)
(0.00431701 7.42625e-05 0.0142255)
(-0.00163513 -0.000115013 0.0149016)
(-0.00594622 -0.000217077 0.013398)
(-0.00876598 -0.000226747 0.0108097)
(-0.0104411 -0.000150917 0.00776743)
(-0.0115229 -9.71554e-05 0.00447553)
(-0.0123774 -0.000273923 0.0010212)
(-0.0129194 -0.000775249 -0.00217266)
(-0.0127542 -0.00126739 -0.00473451)
(-0.0115823 -0.00140675 -0.00712413)
(-0.00920801 -0.00136862 -0.00982093)
(-0.00472342 -0.00166646 -0.0106584)
(0.00335302 -0.00714045 0.0185016)
(0.0081226 -0.00772851 0.0183583)
(0.0114295 -0.00720243 0.0164038)
(0.0134504 -0.00597278 0.0134504)
(0.014324 -0.00464012 0.0104711)
(0.0141597 -0.00336677 0.00852075)
(0.0127515 -0.00172488 0.00840067)
(0.0095581 8.28023e-05 0.010128)
(0.00437014 0.000755933 0.0124602)
(-0.00124234 -7.81438e-05 0.0133726)
(-0.00510134 -0.00117139 0.0125703)
(-0.0072387 -0.00188096 0.011319)
(-0.00810878 -0.00197131 0.0103352)
(-0.008343 -0.00142745 0.00962055)
(-0.00846793 -0.000535281 0.00868219)
(-0.00896171 -7.3051e-05 0.00684627)
(-0.0100692 -0.000814546 0.00418777)
(-0.0106495 -0.00211064 0.00202798)
(-0.00951971 -0.00270273 0.000458313)
(-0.00459593 -0.00305972 0.00230932)
(0.00544632 -0.0159213 0.0180217)
(0.0111611 -0.01301 0.019912)
(0.0142304 -0.0102801 0.0186807)
(0.0154451 -0.00774445 0.0154451)
(0.0154598 -0.00589231 0.0117704)
(0.0146254 -0.00447791 0.00909355)
(0.012744 -0.00249179 0.00831734)
(0.0093223 9.37351e-05 0.00946691)
(0.00435902 0.00146357 0.0113046)
(-0.000810027 0.00051201 0.0121573)
(-0.0041796 -0.00151381 0.0117274)
(-0.00575029 -0.00323955 0.0112415)
(-0.00624114 -0.00407178 0.0114811)
(-0.00633479 -0.00393016 0.0124198)
(-0.00627969 -0.00302335 0.013554)
(-0.00621788 -0.00192285 0.0140106)
(-0.00651311 -0.00172789 0.0128152)
(-0.00673844 -0.00347231 0.0106333)
(-0.00680965 -0.00558515 0.00963916)
(-0.00260031 -0.00758935 0.0120002)
(0.00639696 -0.0280303 0.0125301)
(0.0141229 -0.0196701 0.0189345)
(0.0172755 -0.0132277 0.0204911)
(0.0182327 -0.0082152 0.0182327)
(0.0176539 -0.00533644 0.0143117)
(0.0161654 -0.00381832 0.0108436)
(0.0135736 -0.00181402 0.00917177)
(0.00948274 0.00116508 0.00958327)
(0.00442586 0.00289947 0.0109118)
(-0.000201346 0.00181166 0.0116561)
(-0.00275535 -0.000977804 0.0115449)
(-0.00337008 -0.00352687 0.0116774)
(-0.00316754 -0.0049911 0.0127724)
(-0.00312608 -0.00532361 0.0146921)
(-0.00342327 -0.00478426 0.0170733)
(-0.00380897 -0.00371931 0.0194807)
(-0.00413283 -0.00310114 0.0211361)
(-0.00420656 -0.00461809 0.0215223)
(-0.00465278 -0.00790162 0.0215474)
(-0.00166061 -0.0126139 0.0235741)
(0.00480413 -0.0399633 0.00310708)
(0.0151558 -0.0266746 0.013957)
(0.0179004 -0.0167557 0.0189819)
(0.0189865 -0.00875593 0.0189865)
(0.0183461 -0.00388787 0.0160211)
(0.0165801 -0.00129636 0.0124582)
(0.0134426 0.00143417 0.0101491)
(0.00878544 0.00473182 0.0097648)
(0.00357275 0.00646893 0.0105181)
(-0.000537233 0.00485897 0.0109966)
(-0.00206095 0.00100433 0.0110402)
(-0.00145987 -0.00262424 0.0116367)
(-0.000101892 -0.00479371 0.0133609)
(0.000688692 -0.00569746 0.0157895)
(0.000713641 -0.0058638 0.0185085)
(0.000285831 -0.00566647 0.021372)
(-0.000263873 -0.00573729 0.0241875)
(-0.000408929 -0.00732436 0.0266296)
(-0.00199648 -0.011389 0.0287252)
(3.51373e-07 -0.018633 0.0315016)
(0.00136806 -0.0497056 -0.00562556)
(0.0133618 -0.0321857 0.00725229)
(0.0143929 -0.0196075 0.0139625)
(0.0153797 -0.00943448 0.0153797)
(0.0148888 -0.00255059 0.0134424)
(0.0130196 0.00201347 0.00995256)
(0.00984537 0.00622876 0.00731673)
(0.00531078 0.0103453 0.00648317)
(0.000439922 0.0120621 0.00677632)
(-0.00285607 0.00958986 0.00691553)
(-0.00333518 0.00436952 0.00707798)
(-0.00148754 -0.000856898 0.0084789)
(0.00101494 -0.00409531 0.0109345)
(0.00262156 -0.00572577 0.0139143)
(0.00324807 -0.00662635 0.0169825)
(0.00310288 -0.0072844 0.020029)
(0.00241532 -0.00815868 0.0230685)
(0.0018489 -0.0100128 0.0260922)
(-0.000358193 -0.0141779 0.0292567)
(0.00128274 -0.0221908 0.0331486)
(-0.0030701 -0.0555085 -0.0128468)
(0.00806133 -0.0349415 -0.000585574)
(0.00606509 -0.0201718 0.00567079)
(0.00663688 -0.00878448 0.00663688)
(0.00563168 -0.000357052 0.00397876)
(0.00412604 0.00640708 0.00033812)
(0.00214285 0.0124061 -0.00212)
(-0.000736088 0.0176032 -0.0029875)
(-0.00372258 0.0192839 -0.00289525)
(-0.00533312 0.015796 -0.00285332)
(-0.00449896 0.008717 -0.00240447)
(-0.00169736 0.00135204 -1.25393e-05)
(0.00176134 -0.00331253 0.00384172)
(0.00396127 -0.00562264 0.0076775)
(0.00504524 -0.00715359 0.0114392)
(0.00517504 -0.00853239 0.0150956)
(0.00454016 -0.0101294 0.0187862)
(0.00373812 -0.0125909 0.0226461)
(0.0012284 -0.0173625 0.0269866)
(0.00251582 -0.0255051 0.0325204)
(-0.00865208 -0.0540644 -0.0201728)
(-0.00217588 -0.0333739 -0.0110152)
(-0.0078493 -0.0170313 -0.00732366)
(-0.00859704 -0.00460909 -0.00859704)
(-0.00964559 0.00419551 -0.0124124)
(-0.00916492 0.0109448 -0.0160648)
(-0.00783753 0.0172466 -0.0187356)
(-0.00629048 0.0230349 -0.0198433)
(-0.00479142 0.0252333 -0.0196422)
(-0.00231688 0.0211598 -0.0188241)
(0.00165986 0.0129436 -0.0167281)
(0.00500184 0.00516751 -0.013199)
(0.00738754 -0.000397555 -0.00845857)
(0.00935228 -0.00403499 -0.00333751)
(0.0103989 -0.00665053 0.00164513)
(0.0103355 -0.00893428 0.00628972)
(0.00942125 -0.0112338 0.0110051)
(0.00803079 -0.0140904 0.016128)
(0.0045698 -0.018841 0.0221636)
(0.0044881 -0.0261128 0.0300448)
(-0.0170075 -0.0429794 -0.0296664)
(-0.0180772 -0.0273738 -0.0253431)
(-0.0272207 -0.0156021 -0.0258378)
(-0.0297037 -0.00650195 -0.0297037)
(-0.0299283 0.000857148 -0.0353425)
(-0.0265952 0.00685853 -0.0405153)
(-0.0203522 0.0129008 -0.0445049)
(-0.0118857 0.0195323 -0.0465312)
(-0.00169875 0.0222813 -0.0463559)
(0.00919561 0.0168449 -0.0441166)
(0.0185009 0.00888625 -0.039284)
(0.024058 0.00199089 -0.0330589)
(0.0258293 -0.00336001 -0.026251)
(0.0256145 -0.00722836 -0.019515)
(0.0250758 -0.00953556 -0.01336)
(0.023718 -0.0109877 -0.0074971)
(0.0213292 -0.0122006 -0.00143027)
(0.0178742 -0.0138052 0.00537897)
(0.0117343 -0.0168442 0.013756)
(0.00813207 -0.0218178 0.0249394)
(-0.0313266 -0.0202128 -0.0422772)
(-0.0448597 -0.00633812 -0.046759)
(-0.0590491 0.00145929 -0.0542684)
(-0.0626655 0.00643005 -0.0626655)
(-0.0601343 0.0103174 -0.0708709)
(-0.0524825 0.0140927 -0.0789196)
(-0.0393444 0.0184636 -0.0858067)
(-0.0221393 0.0238177 -0.0900756)
(0.00700687 0.0273702 -0.0912806)
(0.0307239 0.0225771 -0.087545)
(0.0489718 0.0171956 -0.0793271)
(0.0601671 0.0127052 -0.0690917)
(0.0653921 0.00904149 -0.058878)
(0.0661036 0.005846 -0.0491938)
(0.0631561 0.00278175 -0.0399583)
(0.0575023 -0.000150364 -0.0310783)
(0.0497498 -0.00287175 -0.0220297)
(0.0401089 -0.00543527 -0.0119389)
(0.0271295 -0.0084154 0.000524991)
(0.0152857 -0.0125908 0.0167177)
(0.00150905 -0.00125908 0.0172625)
(0.00425952 -0.00178094 0.0171371)
(0.00758957 -0.00193652 0.0160269)
(0.0105529 -0.00194093 0.0143595)
(0.0127953 -0.00213587 0.0127953)
(0.0142735 -0.00217595 0.0120813)
(0.0141977 -0.00131022 0.0130678)
(0.010979 0.000253061 0.0159916)
(0.00371933 0.00107637 0.0195988)
(-0.00410398 0.000737098 0.0202804)
(-0.0095361 0.000243093 0.0177184)
(-0.0125517 -0.000191551 0.0137902)
(-0.0136551 -0.000539454 0.0097124)
(-0.013729 -0.00081051 0.00576364)
(-0.0133746 -0.00110663 0.00197987)
(-0.0127229 -0.00142846 -0.00143364)
(-0.0115927 -0.00162558 -0.00427866)
(-0.0097728 -0.00165076 -0.00704454)
(-0.00710122 -0.00167053 -0.0103569)
(-0.00325502 -0.00216155 -0.0130569)
(0.00206864 -0.00285996 0.0190867)
(0.00562456 -0.00407327 0.0188496)
(0.00831001 -0.00448984 0.0169706)
(0.0104711 -0.00464012 0.014324)
(0.0119482 -0.00493104 0.0119482)
(0.0124529 -0.00467626 0.0108117)
(0.0112882 -0.00250694 0.0115465)
(0.00738064 0.00119307 0.0141264)
(0.00038313 0.00306185 0.0170382)
(-0.00611614 0.00204134 0.0176606)
(-0.0103719 0.000392004 0.0160779)
(-0.01217 -0.000856959 0.013964)
(-0.0121681 -0.00136421 0.012351)
(-0.0114434 -0.00114548 0.0111748)
(-0.0107581 -0.000598313 0.00980765)
(-0.0105169 -0.000375927 0.00769411)