/*--------------------------------*- C++ -*----------------------------------*\
| =========                 |                                                 |
| \\      /  F ield         | OpenFOAM: The Open Source CFD Toolbox           |
|  \\    /   O peration     | Version:  2412                                  |
|   \\  /    A nd           | Website:  www.openfoam.com                      |
|    \\/     M anipulation  |                                                 |
\*---------------------------------------------------------------------------*/
FoamFile
{
    version     2.0;
    format      ascii;
    arch        "LSB;label=32;scalar=64";
    class       volVectorField;
    location    "1.5";
    object      flux;
}
// * * * * * * * * * * * * * * * * * * * * * * * * * * * * * * * * * * * * * //

dimensions      [0 1 -1 1 0 0 0];

internalField   nonuniform List<vector> 
5712
(
(-0.335018 0.539315 0.310737)
(-0.409901 0.296393 0.942749)
(-0.763698 0.937129 0.236196)
(-1.19584 0.61484 1.02997)
(-1.15649 0.903338 0.129131)
(-2.25602 0.769801 1.08828)
(-0.797042 1.32572 0.218853)
(-2.39806 1.64871 1.71642)
(-0.821106 2.02089 0.356885)
(-1.92161 2.56683 2.15358)
(-1.01015 1.07311 0.366773)
(-1.66325 0.944774 1.53249)
(-0.771822 0.660229 0.392162)
(-1.02345 0.45592 1.3641)
(-0.415441 0.43674 0.386956)
(-0.42263 0.248771 1.17381)
(-0.552612 0.889374 0.181301)
(-0.630361 0.791115 0.100754)
(-0.752011 0.807005 0.547986)
(-0.683927 0.792495 0.262295)
(-0.52054 1.01974 0.168892)
(-0.783537 0.969499 0.0785138)
(-0.77423 1.18382 0.587809)
(-0.774781 1.01044 0.237834)
(-0.221548 0.315458 0.238938)
(-0.162654 0.218432 0.178317)
(-0.300021 0.164734 0.704422)
(-0.216377 0.113834 0.520176)
(-0.504168 0.457379 0.160225)
(-0.332323 0.292521 0.128051)
(-0.928719 0.254216 0.708263)
(-0.652415 0.164867 0.541531)
(-0.772359 0.916293 0.3612)
(-0.786888 0.964479 0.132175)
(-0.790581 0.814783 0.277464)
(-0.809789 0.652284 0.102921)
(-0.188249 0.653571 0.127769)
(-0.164225 0.516012 0.338155)
(-1.78804 0.557604 1.68574)
(-2.21032 0.533603 0.513888)
(-0.954013 0.741538 0.508305)
(-1.27113 0.731065 0.232435)
(-2.29479 1.52284 2.03743)
(-2.82502 1.67983 0.636546)
(-1.06364 1.08249 0.4704)
(-1.30883 1.14818 0.217823)
(-1.34469 0.794732 1.12292)
(-1.75693 0.62588 0.3737)
(-1.07513 0.804473 0.573657)
(-1.48573 0.563546 0.260184)
(-0.620656 0.34202 0.919891)
(-0.783328 0.296425 0.291783)
(-0.129183 0.259499 0.231133)
(-0.0411772 0.399161 0.124817)
(-0.167008 0.129458 0.385914)
(-0.0581827 0.179852 0.157564)
(-0.289604 0.343459 0.209124)
(-0.119508 0.530138 0.130137)
(-0.497273 0.216992 0.404423)
(-0.183299 0.301934 0.154397)
(-0.331362 0.348216 0.276507)
(-0.11003 0.632709 0.175136)
(-0.329073 0.267009 0.256273)
(-0.093532 0.446469 0.109281)
(-0.643562 0.0825511 0.445766)
(-0.188069 0.298364 0.162275)
(-0.842012 0.0137935 0.174765)
(-0.264931 0.212888 0.0650387)
(-1.07485 0.749013 0.554206)
(-0.618147 0.903675 0.424133)
(-0.906419 0.79426 0.331894)
(-0.626483 0.899334 0.301827)
(-1.09129 0.94238 0.601437)
(-0.704187 0.955071 0.52972)
(-0.864585 0.96927 0.32426)
(-0.696171 0.938176 0.346842)
(-0.709589 0.715056 0.313934)
(-0.512768 0.86586 0.275382)
(-0.782497 0.708796 0.420765)
(-0.497843 0.851104 0.366162)
(-0.879705 0.799536 0.24364)
(-0.646369 0.895438 0.212019)
(-0.909218 0.786402 0.138528)
(-0.662163 0.89126 0.119945)
(-0.847009 0.981505 0.237613)
(-0.708903 0.928582 0.237619)
(-0.880263 0.984682 0.132567)
(-0.722109 0.923272 0.13319)
(-0.730272 0.673522 0.237011)
(-0.540307 0.86858 0.189992)
(-0.786385 0.614934 0.135913)
(-0.559354 0.865542 0.0976715)
(-0.783731 0.753083 0.273118)
(-0.324538 0.817834 0.15458)
(-0.451335 0.948072 0.27897)
(-0.518559 1.34808 0.303116)
(-0.845658 0.790208 0.372124)
(-0.37656 0.951748 0.282185)
(-0.451411 0.944667 0.405926)
(-0.547299 1.48488 0.524645)
(-0.784262 0.711712 0.195618)
(-0.301426 0.721059 0.0846963)
(-0.470164 0.941566 0.176713)
(-0.508281 1.27395 0.180058)
(-0.810357 0.683836 0.108871)
(-0.30283 0.660688 0.0386229)
(-0.493045 0.939656 0.0799987)
(-0.511348 1.23796 0.0687993)
(-0.125134 0.20185 0.275701)
(-0.141559 0.25865 0.547613)
(-0.0442857 0.552815 0.197771)
(-0.0898452 0.916623 0.617346)
(-0.360213 0.240121 0.298483)
(-0.424358 0.272047 0.552287)
(-0.150133 0.678928 0.235119)
(-0.290448 1.02039 0.654172)
(-0.586251 0.282823 0.386629)
(-0.696748 0.295677 0.54307)
(-0.270914 0.824412 0.32298)
(-0.489431 1.13718 0.660433)
(-0.721626 1.03061 0.406098)
(-0.376952 1.12161 0.46486)
(-0.748215 0.885795 0.33235)
(-0.914526 0.824095 0.337614)
(-0.468435 1.15386 0.400345)
(-0.270433 1.14016 0.307045)
(-0.433895 0.999621 0.356643)
(-0.520775 0.883145 0.502409)
(-0.929638 0.756873 0.594306)
(-0.613515 1.31854 0.861937)
(-0.426143 1.04431 0.417717)
(-0.565009 0.974229 0.35497)
(-0.634593 0.830216 0.350047)
(-0.62434 0.875249 0.442794)
(-0.785437 1.69462 0.689424)
(-0.137253 0.0706789 0.683627)
(-0.139929 0.0933735 0.664242)
(-0.0861099 0.195361 0.798467)
(-0.0915178 0.411734 0.809255)
(-0.406446 0.0995553 0.664057)
(-0.382563 0.139904 0.666457)
(-0.267208 0.255521 0.797864)
(-0.269569 0.473395 0.798846)
(-0.608438 0.148266 0.606924)
(-0.548311 0.143159 0.631722)
(-0.396565 0.338626 0.760221)
(-0.395292 0.554046 0.772182)
(-0.393726 1.10365 0.386134)
(-0.438153 1.08595 0.411629)
(-0.621289 0.925511 0.396373)
(-0.659653 0.873092 0.421601)
(-0.714353 0.79513 0.485975)
(-0.670711 0.695068 0.495033)
(-0.860179 0.58663 0.576297)
(-0.784234 0.512558 0.569065)
(-0.611911 0.469457 0.734459)
(-0.608427 0.707897 0.750098)
(-0.537501 0.977323 0.350655)
(-0.572792 0.871575 0.389548)
(-0.695367 0.911981 0.408546)
(-0.620952 0.845028 0.448435)
(-0.662158 0.780133 0.46641)
(-0.540587 0.711483 0.51799)
(-0.601113 0.6852 0.545432)
(-0.469049 0.597904 0.612098)
(-0.6828 0.554703 0.721652)
(-0.535557 0.765924 0.799125)
(-0.580363 0.943772 0.411865)
(-0.295478 1.00119 0.281917)
(-0.457873 0.979692 0.331813)
(-0.436698 1.07251 0.329936)
(-0.638887 0.941736 0.450886)
(-0.731435 0.865835 0.504297)
(-0.652795 0.958877 0.36571)
(-0.84166 0.915741 0.475501)
(-0.388568 0.865307 0.311207)
(-0.3747 0.872158 0.311817)
(-0.528777 0.851938 0.398064)
(-0.220886 0.842946 0.287426)
(-0.445196 0.997492 0.143367)
(-0.692895 1.09912 0.237205)
(-0.462609 0.991173 0.0571012)
(-0.743473 1.08955 0.0874354)
(-0.663834 0.973233 0.225832)
(-1.03533 0.95531 0.350514)
(-0.688035 0.963412 0.0863321)
(-1.06375 0.949362 0.129594)
(-0.380606 0.856899 0.124556)
(-0.614135 0.865039 0.212446)
(-0.396308 0.868255 0.0460351)
(-0.669277 0.871968 0.0770973)
(-0.470981 0.752231 0.300749)
(-0.341597 0.740903 0.255361)
(-0.612422 0.52098 0.310742)
(-0.267459 0.623133 0.197079)
(-0.506222 0.75974 0.425706)
(-0.168866 0.729969 0.306492)
(-0.57832 0.538972 0.488483)
(-0.119574 0.649989 0.331059)
(-0.492412 0.73022 0.143652)
(-0.498097 0.729154 0.162328)
(-0.643096 0.513353 0.177299)
(-0.326749 0.621209 0.102754)
(-0.446493 0.73629 0.107151)
(-0.577613 0.720631 0.11478)
(-0.592419 0.507698 0.118772)
(-0.418103 0.605206 0.0899037)
(-0.129138 0.0783122 0.581625)
(-0.118534 0.062203 0.38544)
(-0.0995026 0.044943 0.127451)
(-0.0837902 0.0422516 0.629739)
(-0.0810428 0.0353271 0.399073)
(-0.0695642 0.0347681 0.1385)
(-0.345981 0.118508 0.570517)
(-0.291493 0.0807044 0.376123)
(-0.248136 0.0613877 0.129497)
(-0.229657 0.099195 0.625882)
(-0.18738 0.0868436 0.397139)
(-0.154249 0.0734317 0.135484)
(-0.448203 0.1229 0.541366)
(-0.369319 0.114031 0.351909)
(-0.330563 0.118571 0.118465)
(-0.331612 0.179322 0.611045)
(-0.258653 0.151791 0.389533)
(-0.227998 0.136029 0.134487)
(-0.386434 1.01276 0.300688)
(-0.301398 0.875865 0.176187)
(-0.279425 0.785411 0.0482917)
(-0.609041 0.852982 0.370505)
(-0.435648 0.779304 0.254032)
(-0.34369 0.723358 0.0831067)
(-0.560881 0.587898 0.435223)
(-0.39538 0.549016 0.306105)
(-0.296242 0.527414 0.103684)
(-0.630909 0.42606 0.487919)
(-0.477577 0.393009 0.320805)
(-0.390388 0.376274 0.106046)
(-0.507324 0.292478 0.587431)
(-0.333904 0.207991 0.37397)
(-0.239845 0.164858 0.13237)
(-0.723075 0.801273 0.325968)
(-0.568946 0.717745 0.182795)
(-0.491533 0.661164 0.061215)
(-0.539501 0.809103 0.337708)
(-0.41165 0.732519 0.221778)
(-0.3291 0.688191 0.0784635)
(-0.486723 0.608626 0.388617)
(-0.351548 0.524993 0.258922)
(-0.265303 0.480442 0.0901391)
(-0.444845 0.445204 0.462697)
(-0.319248 0.380815 0.29944)
(-0.24224 0.350885 0.103497)
(-0.495866 0.303842 0.558654)
(-0.28742 0.215948 0.330938)
(-0.170177 0.171575 0.115731)
(-0.471762 1.16911 -0.0207283)
(-0.765507 1.20404 0.0393265)
(-0.402656 1.24959 0.016362)
(-0.573305 1.14094 0.105802)
(-0.389316 1.14848 0.0748746)
(-0.797161 1.13985 0.0747525)
(-0.327845 1.37674 0.192224)
(-0.655212 1.17725 0.167269)
(-0.00619802 0.741215 0.0242811)
(-0.0684994 0.8083 0.0381619)
(0.0109455 0.740692 0.025716)
(-0.0408003 0.72544 0.0400139)
(-0.142568 0.984487 0.0134375)
(-0.268878 0.858562 0.0368243)
(-0.0905272 0.966539 0.0247204)
(-0.164838 0.758646 0.0540058)
(-0.0760569 1.06606 0.0728247)
(-0.158178 1.10693 0.0445304)
(-0.44706 0.908918 0.150822)
(-0.662006 1.01401 0.107817)
(-0.350733 1.18189 0.0679378)
(-0.265948 1.04521 0.110404)
(-0.481386 1.19079 0.117223)
(-0.421389 1.23939 0.0271131)
(-0.65287 1.26768 0.244799)
(-0.699873 1.36254 0.0733262)
(0.0224173 1.02312 -0.177878)
(0.227425 1.05143 -0.0352486)
(-0.342424 0.886599 0.0206272)
(-0.239191 0.875166 0.0201759)
(-0.268976 1.01121 -0.00745516)
(-0.154454 0.978188 -0.00362413)
(-0.0630112 0.673373 0.404058)
(-0.0402071 0.387612 0.16928)
(-0.0517671 0.632713 0.106592)
(-0.0322 0.428255 0.0605093)
(-0.155401 0.654217 0.397558)
(-0.0485837 0.379939 0.170966)
(-0.0791633 0.610269 0.115899)
(-0.0109654 0.415258 0.0712106)
(-0.400163 0.597875 0.381988)
(-0.116785 0.351478 0.185028)
(-0.305057 0.567214 0.153161)
(-0.0941042 0.394522 0.103396)
(-0.347326 0.558192 0.117066)
(-0.104362 0.409558 0.0723956)
(-0.392769 0.536626 0.0600699)
(-0.128215 0.408898 0.0530581)
(-0.503974 0.918131 0.531599)
(-0.493101 0.716204 0.463227)
(-0.391483 0.904673 0.230631)
(-0.487135 0.724968 0.295224)
(-0.774386 1.03029 0.612626)
(-0.692607 0.91446 0.571376)
(-0.632636 1.03936 0.297)
(-0.656458 0.90416 0.355686)
(-0.285098 0.832265 0.203119)
(-0.367724 0.567614 0.245405)
(-0.332932 0.859928 0.439611)
(-0.340441 0.545889 0.359517)
(-0.366267 0.925402 0.144277)
(-0.482826 0.729934 0.190609)
(-0.384908 0.952244 0.0795058)
(-0.486664 0.729833 0.107818)
(-0.603654 1.06823 0.196401)
(-0.642029 0.901614 0.229705)
(-0.625586 1.08896 0.109845)
(-0.646007 0.899462 0.128361)
(-0.251767 0.812519 0.112203)
(-0.371905 0.576523 0.160027)
(-0.243331 0.807998 0.0592086)
(-0.375869 0.577439 0.0949077)
(-0.0254401 0.494058 0.176086)
(-0.0492901 0.343763 0.118569)
(-0.287053 0.430962 0.198613)
(-0.149916 0.282083 0.125398)
(-0.0247931 0.454103 0.307268)
(-0.0397811 0.307794 0.171889)
(-0.251439 0.40151 0.268387)
(-0.126078 0.258783 0.164829)
(-0.025625 0.506595 0.101623)
(-0.0443713 0.36413 0.0797974)
(-0.302566 0.444269 0.136532)
(-0.165325 0.295334 0.0851857)
(-0.0375762 0.510267 0.0534126)
(-0.0489002 0.377216 0.0483004)
(-0.305073 0.447968 0.0848136)
(-0.174313 0.303062 0.0518744)
(0.00803494 0.109702 0.464617)
(0.0140676 0.059671 0.293769)
(-0.0183417 0.208234 0.216757)
(-0.0113912 0.122799 0.215011)
(0.0365319 0.11308 0.460289)
(0.0577043 0.0681382 0.293665)
(-0.0283694 0.211029 0.213107)
(-0.0160321 0.134261 0.210273)
(-0.0411383 0.122243 0.464649)
(0.00121343 0.0897122 0.283928)
(-0.0943152 0.208835 0.215248)
(-0.0786171 0.152429 0.195156)
(0.301245 0.53553 0.535083)
(0.152474 0.903523 0.53213)
(0.178462 0.348719 0.48567)
(0.122854 0.31694 0.362593)
(0.0053396 0.233231 0.195975)
(0.282439 0.922501 0.322924)
(0.409389 0.587604 0.375515)
(0.193083 0.328887 0.383202)
(0.198351 0.292924 0.347109)
(0.00667762 0.18373 0.226827)
(-0.387384 0.891021 0.461067)
(-0.278278 0.639402 0.399913)
(-0.220526 0.46656 0.320724)
(-0.219468 0.342488 0.249424)
(-0.119162 0.221982 0.151476)
(0.0214356 0.0415559 0.236441)
(0.0174471 0.0384265 0.222356)
(-0.00579817 0.0870814 0.228597)
(-0.00853378 0.0791356 0.263939)
(0.0606059 0.051182 0.237622)
(0.0644963 0.0394768 0.218089)
(-0.0154089 0.103262 0.224158)
(-0.0202844 0.0921881 0.259673)
(0.0537664 0.0714007 0.230671)
(0.0734064 0.0602587 0.211366)
(-0.0473807 0.123046 0.214357)
(-0.0539417 0.109359 0.250625)
(0.117647 0.930233 0.362364)
(0.0533684 0.871836 0.343578)
(0.311968 0.585042 0.3237)
(0.212424 0.520918 0.276558)
(0.166432 0.364195 0.231047)
(0.114669 0.338032 0.227327)
(0.15433 0.278963 0.211815)
(0.124614 0.256804 0.214677)
(-0.00192888 0.169527 0.187702)
(-0.0259829 0.151666 0.238313)
(-0.206564 0.811108 0.268418)
(-0.145128 0.68351 0.304187)
(0.0135653 0.584349 0.2161)
(0.0772983 0.489926 0.244143)
(0.0266328 0.433031 0.182641)
(0.0719284 0.381039 0.206161)
(-0.00872376 0.307548 0.16834)
(0.031033 0.282923 0.1974)
(-0.0199165 0.204691 0.140832)
(-0.0306838 0.216482 0.219307)
(-0.164032 0.554923 0.193015)
(-0.178951 0.426391 0.155153)
(-0.384048 0.562603 0.132278)
(-0.242643 0.403172 0.0746636)
(-0.351463 0.717791 0.304337)
(-0.336266 0.521894 0.230899)
(-0.52365 0.732327 0.245273)
(-0.40522 0.516201 0.157802)
(-0.285052 0.453369 0.0952206)
(-0.172558 0.351868 0.0560606)
(-0.0955748 0.44767 0.141184)
(-0.121822 0.374396 0.126552)
(-0.453673 0.583441 0.167857)
(-0.192771 0.385582 0.0753007)
(-0.486672 0.589671 0.0757559)
(-0.178954 0.391034 0.0419146)
(-0.600773 0.771081 0.225116)
(-0.391967 0.532171 0.130741)
(-0.640372 0.770746 0.0899846)
(-0.378898 0.537554 0.0621204)
(-0.343583 0.45734 0.131154)
(-0.125241 0.331448 0.0562637)
(-0.373239 0.465689 0.0649592)
(-0.108316 0.345861 0.0323403)
(-0.203006 0.324802 0.0734585)
(-0.159527 0.284178 0.086139)
(-0.140366 0.224316 0.0851925)
(-0.249542 0.279583 0.14186)
(-0.0958104 0.328557 0.111837)
(-0.127565 0.296864 0.133604)
(-0.0880584 0.227895 0.101287)
(-0.207697 0.274872 0.182873)
(-0.223994 0.323768 0.0908095)
(-0.146809 0.27667 0.0634472)
(-0.172393 0.218906 0.063102)
(-0.287025 0.291352 0.102733)
(-0.273376 0.340597 0.0386948)
(-0.136888 0.279996 0.0141215)
(-0.208111 0.227373 0.0100358)
(-0.281938 0.288472 0.0233131)
(0.0205816 0.0775342 0.17231)
(0.0248119 0.060647 0.0794096)
(0.0282021 0.046821 0.0229986)
(-0.00539905 0.280702 0.17977)
(0.00483373 0.137722 0.0484842)
(0.00634871 0.1047 0.0129516)
(0.0727606 0.0723429 0.170832)
(0.0823933 0.0657163 0.0844076)
(0.0866525 0.0549582 0.0265015)
(-0.00680205 0.297011 0.179934)
(0.0197476 0.161604 0.0504707)
(0.0232386 0.128828 0.014173)
(0.0888503 0.0903579 0.160897)
(0.117992 0.0929099 0.0807971)
(0.129811 0.0913881 0.0213511)
(-0.0278476 0.316902 0.173251)
(0.0345246 0.200845 0.0477034)
(0.0468501 0.173352 0.0111315)
(0.0223219 0.756947 0.235244)
(0.0448869 0.661558 0.13154)
(0.0398051 0.599598 0.0359124)
(0.152735 0.469323 0.186324)
(0.16135 0.423092 0.102618)
(0.147859 0.395592 0.0293605)
(0.118715 0.330513 0.170312)
(0.13528 0.303847 0.0880828)
(0.129425 0.290126 0.0257956)
(0.128551 0.280752 0.156401)
(0.153343 0.254728 0.0761648)
(0.155759 0.242656 0.0186284)
(-0.0132173 0.36951 0.166602)
(0.0499563 0.264063 0.0432501)
(0.0465206 0.232204 0.0079538)
(-0.170534 0.561844 0.258158)
(-0.0867332 0.485047 0.13829)
(-0.0513909 0.436953 0.0439215)
(0.0360693 0.41352 0.211579)
(0.0792288 0.361113 0.116436)
(0.0933206 0.331727 0.0386667)
(0.0491431 0.352638 0.180247)
(0.0925165 0.303947 0.0960658)
(0.103348 0.272797 0.0317643)
(0.0313933 0.326239 0.161811)
(0.0820852 0.279351 0.0693652)
(0.0923235 0.25468 0.0195832)
(-0.0558299 0.479641 0.1764)
(0.033143 0.32937 0.0458783)
(0.038683 0.29414 0.0148867)
(-0.00290987 0.210997 0.0625308)
(1.82074e-05 0.123129 0.0232291)
(0.000924068 0.0817287 0.0115003)
(0.00186291 0.0634691 0.0019019)
(0.00337194 0.234557 0.0253546)
(0.0031816 0.131809 0.00987511)
(0.0037288 0.0847221 0.00521835)
(0.00330298 0.065279 0.00140038)
(-0.00771917 0.205251 0.0642336)
(-0.000288466 0.121527 0.0246706)
(0.00263379 0.0816317 0.0134511)
(0.0050111 0.0641777 0.00362176)
(0.00767847 0.232955 0.0303009)
(0.00726659 0.132215 0.0129588)
(0.00794277 0.0858952 0.00833584)
(0.00731551 0.0662564 0.00379618)
(-0.0147129 0.194991 0.0729482)
(-0.0024254 0.119389 0.0291594)
(0.00238193 0.0831783 0.0172799)
(0.00778299 0.0642512 0.00603628)
(0.000368088 0.226585 0.0509463)
(0.00555988 0.133486 0.0247808)
(0.00606096 0.0889953 0.0131501)
(0.00776995 0.0665893 0.00573647)
(0.000960573 0.236838 0.0364307)
(0.00361335 0.138366 0.0212739)
(0.00192521 0.0886216 0.00860465)
(0.00223136 0.0685982 0.00243901)
(-0.00598978 0.24288 0.0369155)
(-0.000787843 0.143579 0.0235063)
(0.000966546 0.0913288 0.0120178)
(0.00265908 0.0703376 0.00602487)
(-0.0365751 0.206711 0.0595037)
(-0.0113237 0.126099 0.027057)
(-0.00589988 0.0865763 0.013689)
(0.00329146 0.0656655 0.00221116)
(-0.0531248 0.172877 0.0559838)
(-0.0171873 0.113453 0.0247722)
(-0.0125785 0.0818997 0.0147377)
(0.00458329 0.0612706 0.000395135)
(-0.0300943 0.181914 0.0755406)
(-0.00860804 0.115554 0.030845)
(-0.00336488 0.0833559 0.0186549)
(0.00716803 0.061315 0.00509126)
(-0.0431192 0.157521 0.0669422)
(-0.0137643 0.106381 0.027005)
(-0.0110023 0.0788319 0.0174733)
(0.00481181 0.0585842 3.80906e-05)
(-0.0337532 0.221468 0.0443061)
(-0.0108518 0.133836 0.0228524)
(-0.00540753 0.0889187 0.0110235)
(0.00268295 0.0680374 0.00189132)
(-0.0586093 0.182607 0.0429093)
(-0.019023 0.119047 0.0212267)
(-0.0134098 0.0841073 0.0125748)
(0.0059111 0.0628229 0.00245201)
(-0.0357058 0.229891 0.032047)
(-0.0124549 0.139438 0.019127)
(-0.00505449 0.0913803 0.01092)
(0.00413786 0.0693435 0.00577938)
(-0.0615696 0.188318 0.0292787)
(-0.0201199 0.123283 0.0170777)
(-0.0140052 0.0863505 0.0109076)
(0.00652815 0.0637565 0.005696)
(-0.00267349 0.163579 0.0791711)
(-0.00028631 0.10866 0.0283924)
(0.000150358 0.0774119 0.0146352)
(0.00155555 0.0601413 0.000339572)
(-0.00212409 0.115578 0.081002)
(-0.00014075 0.0919038 0.0275709)
(-0.00035451 0.0718519 0.0169735)
(0.00167686 0.0553381 -0.00352777)
(-0.00717089 0.159215 0.0786249)
(-0.000929161 0.107307 0.028666)
(0.000534282 0.0775379 0.0157328)
(0.00423488 0.060223 0.00112473)
(-0.00346444 0.115159 0.0776902)
(0.000431166 0.0918201 0.0265726)
(-0.000419642 0.0718961 0.0168803)
(0.00461318 0.0555948 -0.00325125)
(-0.0247069 0.152621 0.078705)
(-0.00673772 0.105356 0.0292671)
(-0.00286947 0.0782181 0.018074)
(0.00615277 0.0602119 0.00258819)
(-0.0185898 0.118011 0.069566)
(-0.00426076 0.0931579 0.0239874)
(-0.00294601 0.0723558 0.016638)
(0.00740285 0.0564333 -0.00183775)
(-0.0110592 0.146277 0.0728527)
(-0.00147736 0.102426 0.0279321)
(1.15829e-05 0.0774043 0.0193377)
(0.00785189 0.0599776 0.00596725)
(-0.00729679 0.119435 0.076597)
(-0.000417512 0.0937764 0.0269494)
(-0.00134931 0.0739636 0.0210287)
(0.00745308 0.0568277 -0.00118476)
(-0.0360336 0.13776 0.0560507)
(-0.0107334 0.0994578 0.0215321)
(-0.00876677 0.0748798 0.0151712)
(0.00789568 0.0562882 0.00262888)
(0.00132716 0.0660431 0.0654817)
(0.000985463 0.0764827 0.0201237)
(0.000501483 0.0587784 0.0129549)
(0.00147239 0.0182921 -0.0037003)
(0.00446984 0.0113014 0.0253963)
(0.00192268 0.0683164 0.0071298)
(0.00101088 0.0526879 0.00401026)
(0.00097248 0.0172489 -0.000625043)
(0.00110859 0.0719003 0.0649004)
(0.00188097 0.0787392 0.0204058)
(0.00065394 0.0598579 0.0131672)
(0.00377135 0.019245 -0.00318715)
(0.0110447 0.0197259 0.0260059)
(0.00497925 0.0709049 0.00751216)
(0.00241418 0.0535452 0.00434874)
(0.00252197 0.017561 -0.000276436)
(-0.0022888 0.0814578 0.0613803)
(0.00131108 0.0822065 0.0198653)
(0.000307093 0.0607923 0.0134554)
(0.00587735 0.0191429 -0.00221312)
(0.0153635 0.0329892 0.0252908)
(0.00720548 0.0751547 0.00759454)
(0.0035942 0.054539 0.00472951)
(0.00381739 0.0176724 0.000203939)
(-0.0025396 0.095409 0.0519364)
(0.00178071 0.0866854 0.0169982)
(0.000373396 0.0625687 0.0128035)
(0.00773742 0.0204173 -0.00107612)
(0.0167996 0.0493013 0.0224051)
(0.00851915 0.0805851 0.00672278)
(0.00393975 0.0563283 0.0050043)
(0.004382 0.0183603 0.000815835)
(-0.0095755 0.115762 0.0456005)
(0.000262269 0.0928714 0.0157729)
(-0.00255622 0.06562 0.0120819)
(0.00699447 0.0228347 0.000468957)
(0.0103876 0.0678385 0.0204166)
(0.00759891 0.0860472 0.0067706)
(0.00254767 0.0581041 0.00537322)
(0.00383662 0.0189256 0.00160971)
(-0.0358726 0.130591 0.0349521)
(-0.00505601 0.10049 0.0146406)
(-0.00724215 0.0675137 0.00881493)
(0.00580786 0.0216721 0.00107247)
(-0.0100259 0.0688242 0.0185197)
(0.00210157 0.0928581 0.00891701)
(-0.000303445 0.0618795 0.00511694)
(0.00234135 0.0197466 0.0024526)
(-0.022491 0.127905 0.0375493)
(-0.00158273 0.0970968 0.0136751)
(-0.00544474 0.0660347 0.00976985)
(0.0061715 0.0217165 0.000751204)
(-0.00178686 0.0700277 0.0185899)
(0.00492253 0.0901908 0.00741647)
(0.000951405 0.0598568 0.00517335)
(0.00307497 0.0192399 0.00213988)
(-0.0472531 0.130669 0.0305471)
(-0.00957095 0.102968 0.0151559)
(-0.00923948 0.0685084 0.00867334)
(0.0061535 0.0205012 0.00215223)
(-0.0154289 0.0660347 0.0182399)
(-0.000715817 0.0951927 0.0101397)
(-0.00143408 0.0632377 0.00548893)
(0.00194224 0.0197409 0.0030894)
(-0.0552171 0.130245 0.0233231)
(-0.0141756 0.105897 0.0140767)
(-0.0113049 0.0707983 0.00867115)
(0.00590745 0.0209882 0.00473411)
(-0.0201845 0.0713428 0.0164596)
(-0.00399231 0.0981848 0.010565)
(-0.00273477 0.0651341 0.00634058)
(0.00149965 0.0202037 0.00429479)
(0.000706542 0.0510922 0.000661294)
(0.000324093 0.0353098 0.000298612)
(0.000157257 0.0225906 0.00015269)
(8.22936e-05 0.0124511 8.41276e-05)
(5.34024e-05 0.00396245 5.62223e-05)
(0.00101853 0.0514359 0.000325365)
(0.000500496 0.0353998 0.000149353)
(0.000251399 0.0226289 7.71329e-05)
(0.000134431 0.0124684 4.30009e-05)
(8.80201e-05 0.00396747 2.91037e-05)
(0.0014866 0.052008 0.00112449)
(0.000688491 0.035612 0.000562425)
(0.00033339 0.022723 0.000294323)
(0.000175052 0.0125084 0.000162839)
(0.000114728 0.00397846 0.000108595)
(0.00267274 0.0522569 0.000997351)
(0.00136482 0.0357572 0.000526053)
(0.000696637 0.0227989 0.000275597)
(0.000377413 0.0125444 0.000152004)
(0.000249237 0.00398906 0.000101192)
(0.00215867 0.0525036 0.00227406)
(0.00100436 0.0359272 0.00122678)
(0.000491531 0.0228694 0.000651391)
(0.000260961 0.0125722 0.000363215)
(0.000172369 0.00399633 0.000243334)
(0.00387999 0.0524947 0.00410718)
(0.0019516 0.0362598 0.00220805)
(0.00100319 0.0230575 0.00117376)
(0.000548354 0.012663 0.00065294)
(0.000364267 0.00402327 0.000436132)
(0.00128835 0.0543556 0.00412525)
(0.000635552 0.0369811 0.00229919)
(0.000328803 0.0234312 0.0012439)
(0.000181049 0.01284 0.000698206)
(0.000120716 0.00407523 0.000469135)
(0.000671696 0.0553026 0.004309)
(0.000335239 0.0376416 0.00237335)
(0.000172555 0.0238011 0.00127892)
(9.49513e-05 0.0130192 0.000717415)
(6.3154e-05 0.00412821 0.000482893)
(0.00192946 0.0540166 0.00285745)
(0.000840339 0.0366414 0.00160592)
(0.000413279 0.0232153 0.000872209)
(0.000221882 0.0127308 0.000490556)
(0.000146118 0.00404234 0.000328109)
(0.000385664 0.0549577 0.0022221)
(0.000117695 0.0367834 0.00126012)
(4.77152e-05 0.0232414 0.000687563)
(2.28654e-05 0.0127363 0.000388619)
(1.42332e-05 0.00404323 0.000260659)
(0.00299121 0.0528342 0.00300553)
(0.00140926 0.0362724 0.00162195)
(0.000710297 0.023026 0.000864504)
(0.000385775 0.0126408 0.000484457)
(0.000255851 0.00401564 0.000324651)
(0.000781461 0.0544561 0.00223644)
(0.000308758 0.036558 0.00114035)
(0.000145803 0.0231266 0.000601893)
(7.64815e-05 0.0126817 0.000337249)
(4.94943e-05 0.00402698 0.000225152)
(0.000567022 0.0548113 0.00309937)
(0.000165318 0.0370579 0.00185101)
(6.39968e-05 0.0234417 0.00102244)
(3.02304e-05 0.0128401 0.000578911)
(1.88422e-05 0.00407479 0.000389672)
(0.000392434 0.0556219 0.00291193)
(0.000131439 0.0371827 0.00170116)
(5.72462e-05 0.02346 0.000934896)
(2.91755e-05 0.0128422 0.00052908)
(1.8849e-05 0.00407472 0.00035594)
(0.000492443 0.0554935 0.0038463)
(0.00014111 0.0377474 0.00216554)
(5.40726e-05 0.0238418 0.0011728)
(2.56414e-05 0.0130355 0.000658992)
(1.5518e-05 0.00413279 0.000443468)
(0.000230282 0.0563952 0.00367656)
(3.51032e-05 0.0378475 0.0020844)
(5.52126e-06 0.0238483 0.00113162)
(3.35902e-07 0.013033 0.000636267)
(-8.02316e-07 0.00413162 0.000427549)
(0.000563468 0.0506357 0.000491325)
(0.00024313 0.0352089 0.000248526)
(0.000112962 0.0225485 0.000128437)
(5.72052e-05 0.0124322 7.08728e-05)
(3.64625e-05 0.00395699 4.7433e-05)
(0.000558687 0.0509013 0.00014984)
(0.000234809 0.0351736 9.58821e-05)
(0.000107859 0.0225237 5.10534e-05)
(5.43229e-05 0.0124206 2.87255e-05)
(3.45437e-05 0.00395361 1.96266e-05)
(0.00131177 0.0512111 0.000756855)
(0.00055519 0.0354485 0.000391438)
(0.000257535 0.022649 0.00020587)
(0.000130798 0.0124741 0.000114481)
(8.39552e-05 0.00396843 7.70449e-05)
(0.00130582 0.0514465 0.000199331)
(0.000534204 0.0353929 0.000127452)
(0.000245546 0.022613 6.88e-05)
(0.000124051 0.0124572 3.87875e-05)
(7.90256e-05 0.00396357 2.66453e-05)
(0.0017044 0.0520441 0.00100608)
(0.000679451 0.0357663 0.000571807)
(0.000312035 0.0227798 0.000306689)
(0.000157731 0.0125287 0.000172561)
(0.000101247 0.00398336 0.000117197)
(0.00160705 0.0525548 0.000537244)
(0.000661184 0.0357087 0.000294306)
(0.000308774 0.0227359 0.000152394)
(0.000157177 0.0125076 8.34487e-05)
(0.000101356 0.00397723 5.65151e-05)
(0.00220517 0.0532723 0.00254562)
(0.00100417 0.0361254 0.00135425)
(0.000498234 0.0229277 0.000712682)
(0.00026733 0.0125917 0.000399742)
(0.000177025 0.00400076 0.000270043)
(0.00111661 0.0537415 0.00127846)
(0.000490113 0.0360264 0.000674511)
(0.000235892 0.0228707 0.000350831)
(0.000122282 0.0125649 0.00019563)
(8.03324e-05 0.00399279 0.000132467)
(0.00128809 0.0539845 0.0030305)
(0.000609079 0.0363645 0.00146779)
(0.000308153 0.0230347 0.000755425)
(0.000168062 0.0126392 0.000418316)
(0.000111699 0.00401431 0.000279245)
(-0.0202097 0.401711 0.116948)
(-0.0252028 0.625593 0.203268)
(-0.0559317 0.420245 0.110991)
(-0.0720401 0.638546 0.197621)
(-0.0858786 0.450938 0.10444)
(-0.115878 0.659619 0.184473)
(-0.103494 0.487568 0.102713)
(-0.153285 0.700882 0.177951)
(-0.100206 0.525353 0.110587)
(-0.148739 0.773228 0.200495)
(-0.0913476 0.47106 0.0661519)
(-0.125207 0.5805 0.0925961)
(-0.0805723 0.489324 0.089683)
(-0.0996172 0.631047 0.138331)
(-0.109548 0.465476 0.0445225)
(-0.151153 0.569081 0.05593)
(-0.116577 0.458655 0.0179486)
(-0.160034 0.5655 0.0226718)
(-0.0229913 0.32461 0.345293)
(-0.00507654 0.0583617 0.0835332)
(-0.00111208 0.0129059 0.0192533)
(-0.000237428 0.00291593 0.00428809)
(-5.80535e-05 0.000516125 0.00108087)
(-0.00895608 0.386793 0.0923981)
(-0.00339175 0.10726 0.0245937)
(-0.000351844 0.0262412 0.00660794)
(-0.000104492 0.00598174 0.00148745)
(-4.37015e-05 0.00104947 0.000334072)
(-0.0742977 0.330474 0.341374)
(-0.0165199 0.0573426 0.0814556)
(-0.00364014 0.0124522 0.0186406)
(-0.000783268 0.00278865 0.0041223)
(-0.000192944 0.00049091 0.00103444)
(-0.0230373 0.392541 0.095572)
(-0.00490252 0.107348 0.027875)
(-0.000993926 0.025935 0.00687893)
(-0.000193657 0.00583739 0.00160224)
(-4.11824e-05 0.00102084 0.000403704)
(-0.130346 0.34104 0.326975)
(-0.0291496 0.0570084 0.0767066)
(-0.00646182 0.0120784 0.0173703)
(-0.00140344 0.00267061 0.00381308)
(-0.000348863 0.000467135 0.000951762)
(-0.0408079 0.403961 0.0927973)
(-0.00978721 0.108155 0.0269298)
(-0.00217939 0.0256718 0.00659143)
(-0.000479905 0.00571258 0.00151927)
(-0.000117067 0.000992261 0.000379157)
(-0.185467 0.353312 0.303675)
(-0.0417147 0.0562918 0.0698568)
(-0.00934099 0.0116324 0.01568)
(-0.00205288 0.0025481 0.00343012)
(-0.000516872 0.000444533 0.000855779)
(-0.0575066 0.418563 0.0890094)
(-0.0151584 0.109096 0.0252187)
(-0.00362546 0.0255062 0.0060485)
(-0.000841438 0.0056368 0.00137179)
(-0.000215811 0.000976517 0.000337621)
(-0.255995 0.361631 0.263101)
(-0.0592564 0.0553789 0.0596223)
(-0.0135603 0.0113744 0.0133727)
(-0.00303645 0.00250535 0.00293734)
(-0.000778224 0.000439931 0.00073795)
(-0.0770924 0.430229 0.0821736)
(-0.0231253 0.109503 0.0222305)
(-0.00587163 0.0255769 0.00521313)
(-0.00140683 0.00568478 0.00116784)
(-0.000370423 0.000990673 0.000284891)
(-0.338464 0.342316 0.145089)
(-0.0856325 0.0623853 0.0351354)
(-0.0207155 0.014239 0.00816815)
(-0.00483486 0.00333646 0.00183737)
(-0.00127959 0.000607278 0.000470071)
(-0.0905019 0.38435 0.0421352)
(-0.0286011 0.110743 0.0107471)
(-0.00748446 0.0279941 0.00235676)
(-0.00182374 0.00658934 0.000490937)
(-0.000488128 0.00119319 0.000113182)
(-0.311165 0.352335 0.203964)
(-0.0762731 0.0598058 0.0479917)
(-0.0179953 0.0129985 0.0109529)
(-0.00411557 0.00295125 0.00243229)
(-0.00107158 0.000527051 0.000616942)
(-0.0869299 0.403784 0.0583809)
(-0.0279199 0.110782 0.015275)
(-0.00730854 0.0269163 0.00350911)
(-0.00177803 0.00614225 0.00077647)
(-0.000471873 0.00108929 0.000188425)
(-0.350825 0.33652 0.0905865)
(-0.0899392 0.0640194 0.0225041)
(-0.0220341 0.0150369 0.00531017)
(-0.00520168 0.00359696 0.00120677)
(-0.00138944 0.000663575 0.000310652)
(-0.0932874 0.376836 0.027118)
(-0.0285062 0.110637 0.00709191)
(-0.00732982 0.0285739 0.00153758)
(-0.00176413 0.00686011 0.000307185)
(-0.000470548 0.0012608 6.80386e-05)
(-0.360387 0.332975 0.0333858)
(-0.0920913 0.0628186 0.00840072)
(-0.02266 0.0148181 0.00200033)
(-0.00538001 0.00357401 0.000458193)
(-0.00144483 0.000663811 0.000118689)
(-0.0938482 0.372847 0.0131319)
(-0.0286844 0.109262 0.00317629)
(-0.0073604 0.0284111 0.000659108)
(-0.00164477 0.00687516 0.000175941)
(-0.000464585 0.00127075 2.75061e-05)
(-0.0108529 1.47917 -0.0605756)
(-0.276233 2.07318 0.0207449)
(-0.270925 1.85249 0.174314)
(-0.151486 1.38786 -0.152143)
(0.153614 0.770737 0.0402131)
(0.211167 0.810423 0.0429035)
(0.424317 1.22856 0.107847)
(0.558766 1.23521 0.131737)
(0.240776 0.832719 0.0896733)
(0.487051 0.891964 0.144669)
(0.0887026 1.33182 0.120278)
(0.289794 1.7816 0.181702)
(0.23604 1.97263 0.115784)
(0.394743 2.68684 0.151069)
(0.436133 1.00342 0.0552456)
(0.603084 1.10497 0.080382)
(0.524714 0.8083 0.0596735)
(0.598219 0.789946 0.069519)
(0.299521 0.559406 0.0414866)
(0.339428 0.575946 0.0429912)
(-0.76198 0.161731 0.115811)
(-0.564125 0.111477 0.0890079)