/*--------------------------------*- C++ -*----------------------------------*\
| =========                 |                                                 |
| \\      /  F ield         | OpenFOAM: The Open Source CFD Toolbox           |
|  \\    /   O peration     | Version:  2412                                  |
|   \\  /    A nd           | Website:  www.openfoam.com                      |
|    \\/     M anipulation  |                                                 |
\*---------------------------------------------------------------------------*/
FoamFile
{
    version     2.0;
    format      ascii;
    arch        "LSB;label=32;scalar=64";
    class       volScalarField;
    location    "1.5";
    object      gradTz;
}
// * * * * * * * * * * * * * * * * * * * * * * * * * * * * * * * * * * * * * //

dimensions      [0 -1 0 1 0 0 0];

internalField   nonuniform List<scalar> 
5712
(
7768.42
23568.7
5904.89
25749.3
3228.28
27206.9
5471.32
42910.5
8922.13
53839.6
9169.33
38312.2
9804.04
34102.6
9673.89
29345.2
4532.53
2518.84
13699.6
6557.38
4222.3
1962.85
14695.2
5945.85
5973.44
4457.92
17610.5
13004.4
4005.62
3201.28
17706.6
13538.3
9030.01
3304.37
6936.59
2573.04
3194.23
8453.88
42143.4
12847.2
12707.6
5810.88
50935.6
15913.6
11760
5445.59
28073
9342.49
14341.4
6504.61
22997.3
7294.57
5778.33
3120.43
9647.85
3939.1
5228.09
3253.42
10110.6
3859.93
6912.68
4378.41
6406.82
2732.02
11144.2
4056.87
4369.12
1625.97
13855.1
10603.3
8297.35
7545.69
15035.9
13243
8106.51
8671.06
7848.34
6884.56
10519.1
9154.06
6091.01
5300.47
3463.21
2998.63
5940.32
5940.48
3314.18
3329.75
5925.28
4749.79
3397.82
2441.79
6827.95
3864.49
6974.24
7577.89
9303.1
7054.62
10148.2
13116.1
4890.44
2117.41
4417.83
4501.45
2721.78
965.573
1999.97
1719.98
6892.52
13690.3
4944.28
15433.7
7462.07
13807.2
5877.97
16354.3
9665.72
13576.7
8074.51
16510.8
10152.4
11621.5
8308.74
8440.36
10008.6
7676.14
8916.08
12560.2
14857.7
21548.4
10442.9
8874.24
8751.16
11069.9
17235.6
17090.7
16606.1
19961.7
20231.4
16601.4
16661.4
19946.6
19971.2
15173.1
15793
19005.5
19304.6
9653.35
10290.7
9909.34
10540
12149.4
12375.8
14407.4
14226.6
18361.5
18752.5
8766.38
9738.7
10213.6
11210.9
11660.3
12949.8
13635.8
15302.4
18041.3
19978.1
10296.6
7047.93
8295.32
8248.4
11272.2
12607.4
9142.74
11887.5
7780.19
7795.42
9951.61
7185.66
3584.18
5930.13
1427.53
2185.88
5645.81
8762.86
2158.3
3239.85
3113.91
5311.14
1150.88
1927.43
7518.74
6384.02
7768.55
4926.99
10642.6
7662.3
12212.1
8276.48
3591.29
4058.19
4432.47
2568.85
2678.76
2869.5
2969.31
2247.59
14540.6
9636
3186.27
15743.5
9976.82
3462.49
14262.9
9403.07
3237.43
15647
9928.47
3387.1
13534.1
8797.73
2961.63
15276.1
9738.32
3362.18
7517.2
4404.67
1207.29
9262.63
6350.8
2077.67
10880.6
7652.62
2592.11
12198
8020.12
2651.15
14685.8
9349.25
3309.25
8149.19
4569.87
1530.37
8442.7
5544.45
1961.59
9715.43
6473.04
2253.48
11567.4
7486
2587.43
13966.4
8273.46
2893.29
-518.209
983.162
409.05
2645.06
1871.87
1868.81
4805.59
4181.72
607.027
954.046
642.899
1000.35
335.939
920.608
618.01
1350.14
1820.62
1113.26
3770.54
2695.42
1698.45
2760.1
2930.58
677.828
6119.99
1833.16
-4446.96
-881.214
515.681
504.397
-186.379
-90.6031
10101.4
4232.01
2664.79
1512.73
9938.95
4274.15
2897.46
1780.27
9549.7
4625.71
3829.03
2584.91
2926.65
1809.89
1501.75
1326.45
13290
11580.7
5765.78
7380.6
15315.7
14284.4
7424.99
8892.14
5077.99
6135.12
10990.3
8987.93
3606.92
4765.22
1987.64
2695.46
4910.03
5742.63
2746.12
3209.03
2805.07
4000.68
1480.21
2372.69
4402.16
2964.23
4965.31
3134.95
7681.7
4297.24
6709.68
4120.73
2540.58
1994.94
3413.29
2129.64
1335.32
1207.51
2120.34
1296.86
11615.4
7344.22
5418.94
5375.28
11507.2
7341.63
5327.67
5256.84
11616.2
7098.19
5381.2
4878.91
13377.1
13303.3
12141.8
9064.83
4899.37
8073.1
9387.87
9580.06
8677.74
5670.67
11526.7
9997.83
8018.11
6235.59
3786.9
5911.03
5558.9
5714.92
6598.47
5940.56
5452.23
5603.94
6491.83
5766.78
5284.16
5358.93
6265.62
9059.11
8589.44
8092.51
6913.94
5776.17
5683.19
5295.37
5366.92
4692.54
5957.82
6710.45
7604.67
5402.49
6103.57
4566.02
5154.02
4208.5
4934.99
3520.79
5482.66
4825.36
3878.83
3306.95
1866.59
7608.43
5772.48
6131.82
3945.05
2380.51
1401.52
3529.61
3163.8
4196.42
1882.52
1893.9
1047.86
5627.9
3268.51
2249.62
1553.01
3278.86
1406.59
1623.98
808.507
1836.46
2153.48
2129.81
3546.51
2795.93
3340.09
2532.18
4571.83
2270.24
1586.18
1577.55
2568.33
967.37
353.038
250.895
582.826
4307.76
1985.24
574.964
4494.24
1212.11
323.789
4270.79
2110.19
662.537
4498.34
1261.77
354.326
4022.42
2019.93
533.778
4331.27
1192.59
278.287
5881.09
3288.49
897.81
4658.09
2565.44
734.014
4257.79
2202.07
644.889
3910.02
1904.12
465.711
4165.06
1081.25
198.845
6453.95
3457.26
1098.04
5289.46
2910.91
966.667
4506.18
2401.64
794.107
4045.28
1734.13
489.58
4410.01
1146.96
372.169
1563.27
580.728
287.509
47.5474
633.865
246.878
130.459
35.0094
1605.84
616.765
336.277
90.5441
757.522
323.97
208.396
94.9045
1823.71
728.984
431.998
150.907
1273.66
619.519
328.752
143.412
910.767
531.847
215.116
60.9753
922.887
587.657
300.445
150.622
1487.59
676.424
342.226
55.279
1399.6
619.305
368.443
9.87837
1888.51
771.126
466.372
127.281
1673.55
675.125
436.834
0.952265
1107.65
571.311
275.587
47.283
1072.73
530.668
314.371
61.3002
801.174
478.174
273.001
144.485
731.968
426.943
272.69
142.4
1979.28
709.809
365.879
8.48929
2025.05
689.272
424.338
-88.1943
1965.62
716.65
393.321
28.1182
1942.25
664.315
422.008
-81.2812
1967.63
731.677
451.851
64.7046
1739.15
599.685
415.95
-45.9438
1821.32
698.303
483.442
149.181
1914.93
673.735
525.718
-29.6189
1401.27
538.303
379.28
65.722
1637.04
503.092
323.873
-92.5075
634.906
178.245
100.256
-15.6261
1622.51
510.145
329.179
-79.6788
650.147
187.804
108.718
-6.9109
1534.51
496.633
336.385
-55.3279
632.271
189.864
118.238
5.09849
1298.41
424.954
320.087
-26.903
560.127
168.07
125.107
20.3959
1140.01
394.323
302.049
11.7239
510.414
169.265
134.331
40.2427
873.802
366.015
220.373
26.8118
462.992
222.925
127.924
61.315
938.734
341.878
244.246
18.7801
464.748
185.412
129.334
53.4971
763.677
378.898
216.834
53.8057
455.996
253.493
137.223
77.2349
583.079
351.919
216.779
118.353
411.489
264.126
158.515
107.37
16.5323
7.46531
3.81725
2.10319
1.40556
8.13412
3.73383
1.92832
1.07502
0.727593
28.1123
14.0606
7.35808
4.07098
2.71488
24.9338
13.1513
6.88992
3.80011
2.52981
56.8515
30.6695
16.2848
9.08037
6.08335
102.68
55.2013
29.344
16.3235
10.9033
103.131
57.4797
31.0974
17.4551
11.7284
107.725
59.3337
31.973
17.9354
12.0723
71.4362
40.148
21.8052
12.2639
8.20273
55.5525
31.5029
17.1891
9.71547
6.51648
75.1382
40.5489
21.6126
12.1114
8.11627
55.9109
28.5087
15.0473
8.43122
5.62881
77.4843
46.2751
25.5609
14.4728
9.74181
72.7982
42.529
23.3724
13.227
8.89851
96.1574
54.1385
29.3201
16.4748
11.0867
91.9141
52.1101
28.2906
15.9067
10.6887
12.2831
6.21316
3.21093
1.77182
1.18582
3.74601
2.39705
1.27634
0.718138
0.490666
18.9214
9.78595
5.14674
2.86202
1.92612
4.98328
3.1863
1.72
0.969686
0.666132
25.1519
14.2952
7.66722
4.31402
2.92992
13.4311
7.35764
3.80985
2.08622
1.41288
63.6404
33.8563
17.8171
9.99354
6.75107
31.9615
16.8628
8.77079
4.89074
3.31167
75.7626
36.6947
18.8856
10.4579
6.98113
2923.71
5081.71
2774.78
4940.52
2611.01
4611.83
2567.83
4448.79
2764.68
5012.38
1653.8
2314.9
2242.08
3458.28
1113.06
1398.25
448.716
566.794
8632.31
2088.33
481.331
107.202
27.0218
2309.95
614.844
165.199
37.1862
8.3518
8534.36
2036.39
466.015
103.057
25.8611
2389.3
696.874
171.973
40.0559
10.0926
8174.37
1917.67
434.257
95.327
23.7941
2319.93
673.244
164.786
37.9819
9.47893
7591.89
1746.42
392.001
85.753
21.3945
2225.24
630.468
151.212
34.2948
8.44052
6577.53
1490.56
334.318
73.4334
18.4488
2054.34
555.762
130.328
29.1961
7.12228
3627.23
878.385
204.204
45.9342
11.7518
1053.38
268.677
58.9191
12.2734
2.82955
5099.09
1199.79
273.823
60.8072
15.4235
1459.52
381.874
87.7277
19.4118
4.71061
2264.66
562.603
132.754
30.1693
7.7663
677.949
177.298
38.4395
7.67963
1.70096
834.646
210.018
50.0082
11.4548
2.96722
328.299
79.4073
16.4777
4.39853
0.687652
-1514.39
518.622
4357.85
-3803.57
1005.33
1072.59
2696.18
3293.43
2241.83
3616.73
3006.96
4542.55
2894.61
3776.72
1381.14
2009.55
1491.84
1737.97
1037.17
1074.78
2895.27
2225.2
-169.819
-698.274
-766.585
-1037.51
-464.17
12503.2
3647.53
4433.62
3617.44
523.041
186.438
3456.95
-729.473
-209.255
-586.225
-178.782
6149.1
3289
1664.98
931.699
3372.06
1676.99
349.448
564.582
-861.258
-806.026
999.422
885.012
9453.99
4580.48
4651.3
2670.16
3424.75
3401.18
216.251
-779.525
513.274
1993.41
1715.63
1462.6
1312
952.719
1760.54
1403.22
1116.47
806.12
313.117
-155.105
-130.779
-96.0722
-56.864
-18.5655
-621.928
-518.12
-387.218
-238.859
-80.6593
-683.576
-569.889
-425.583
-262.044
-88.4155
-925.596
-772.391
-577.732
-356.369
-120.359
-409.725
-336.863
-246.995
-149.325
-49.8762
9110.79
8099.61
6680.85
5954.93
5243.02
3235.63
2547.86
2198.06
1755.4
762.066
3571.4
2791.95
2255.06
1707.01
753.93
2774.44
2121.77
1688.44
1218.27
451.068
426.59
298.037
271.231
203.242
97.6064
215.837
225.321
204.573
147.829
54.2915
2845.1
2241.35
1702.96
1148.47
426.815
-435.325
-210.336
-92.7735
-35.0013
-10.9458
-159.289
-103.215
-51.1471
-15.6012
-1.49423
-409.859
-251.808
-138.646
-65.8401
-19.6016
-171.8
-149.068
-109.607
-63.7393
-20.1158
4168.35
3965.99
3340.22
3142.63
2979.48
2684.27
2079.77
1675.84
1232.29
469.903
1485.73
1257.01
989.424
659.646
235.596
809.369
668.043
517.088
341.156
120.955
2807.61
2217.63
1662.15
1083.32
387.196
1484.18
1228.58
939.383
600.416
198.419
300.009
245.854
191.464
127.57
44.8133
501.354
420.823
325.212
210.162
72.5237
-745.246
-600.113
-433.136
-259.547
-86.2865
-709.504
-581.442
-425.123
-256.398
-85.4405
874.402
723.654
551.827
354.827
124.012
774.048
639.938
487.556
312.878
108.826
6186.95
4888.03
4187.98
3872.6
3056.82
3552.41
2774.48
2178.5
1570.31
634.98
3640.64
3003.7
2455.78
1947.02
799.704
2117.42
1721.02
1352.41
955.542
412.778
2916.4
2351.27
1774.61
1145.65
399.524
2815.7
2014.61
1594.54
1134.9
230.406
190.034
160.869
131.62
91.5064
32.4136
-692.209
-572.816
-422.503
-256.445
-85.7606
458.985
388.459
308.969
206.458
70.847
-31084.4
-48407.9
-23573.6
-41116.7
-24930.5
-57447.4
-32742.9
-69876.2
-17667.2
-11944.5
-19501.9
-10592.9
-16421.4
-10852.6
-19602.1
-9417.31
-25741.2
-18202.6
-35477
-25701
-20309.4
-14961.4
-30519
-22959.6
-15513.6
-15880.7
-10926
-10673.5
-13339.9
-13974.8
-45999
-14137.6
-14807.1
-7059.67
-53927.8
-17151.4
-13427.9
-6510.58
-32304.3
-10640.1
-16440.2
-7678.49
-27229.7
-8289.98
-12445.4
-5306.15
-16960.7
-6391.2
-10854.8
-4865.93
-15675.9
-5610.68
-11314
-5496.12
-9608
-3689.52
-13490.2
-4810.11
-5274.85
-1958.62
-11193.1
-8189.11
-9122.24
-6875.34
-9653.04
-8289.63
-8076.3
-7090.32
-9147.97
-6782.24
-10635.9
-8469.8
-6828.43
-5063.57
-4037.93
-2895.42
-6167.91
-5197.58
-3548.25
-2861.75
-6894.77
-4804.19
-4102.42
-2538.31
-8183.26
-4342.86
-7067.79
-7547
-10681.8
-7509.2
-10062.6
-12871.9
-5798.79
-2445.54
-4547.89
-4531.05
-3349.24
-1201.32
-2133.21
-1764.29
-10995.6
-14060.4
-6320.44
-15961.8
-10913.2
-13714.8
-6919.28
-16512.3
-12088.8
-13240.2
-8616.44
-16168.7
-6796.38
-4236.78
-8728.53
-10144.4
-10406
-6112.99
-8564.64
-12840.3
-14789.3
-20981.5
-5594.52
-6450.4
-7863.14
-10648.9
-16731.4
-14883
-12239.8
-18574.3
-15413.6
-14437.8
-12541
-18587.6
-15532.2
-13196.8
-11696.2
-17563.8
-15421.6
-8818.33
-8236.55
-8985.19
-8116.86
-10357.2
-9262.31
-11992.9
-10660
-16824.7
-15459.3
-7239.34
-7916.97
-8208.18
-8107.39
-9513.01
-9370.8
-11623.6
-11638.4
-16687.1
-16489.3
-8602.99
-5862.28
-7227.49
-7277.92
-8879.65
-10953.3
-7519.65
-10416.5
-7154.84
-7132.84
-8878.66
-6271.65
-2887.76
-5218.84
-863.524
-1617.18
-4519.47
-7722.3
-1275.41
-2424.4
-2711.31
-4838.36
-815.533
-1543.39
-7158.09
-5943.01
-7520.54
-4624.52
-9944.82
-6921.18
-11725.6
-7610.02
-3355.17
-3759.1
-4258.97
-2373
-2465.86
-2612.86
-2819.05
-2077.16
-8919.34
-3442.28
-9599.25
-3341.95
-9128.48
-3428.26
-10065.6
-3709.94
-8766.01
-3235.39
-10861.8
-4289.01
-4690.51
-1148.36
-5680.77
-2042.57
-6654.38
-2591.81
-8084.48
-3059.47
-10822.7
-4198.55
-5621.7
-994.788
-5076.53
-1733.95
-5914.2
-2190.57
-7659.85
-2842.54
-9869
-3255.81
-6651.94
-6429.69
-4444.25
-4226.28
-10661.3
-8466.35
-8331.7
-6570.68
-5578.32
-5043.94
-2162.99
-1738.3
-5237.2
-4967.71
-1885.9
-1758.82
-2746.56
-5941.05
-3965.05
-7169.16
-4851.45
-2242.36
-3434.07
-931.004
-7145.08
-2566.72
3969.41
1051.68
-358.657
-189.159
866.341
1029.65
-2599.51
-1298.22
-1046.79
-382.887
-2619.75
-1452.45
-1172.06
-389.325
-2887.2
-1738.38
-1367.51
-282.932
-1248.62
168.407
101.005
807.394
-5343.22
-5234.96
-3988.86
-4479.43
-7831.81
-7548.23
-6401.05
-6376.37
-2644.56
-3285.19
-4178.79
-3949.76
-2749.57
-3060.91
-1367.14
-1403.8
-4569.85
-4425.06
-2570.77
-2293.7
-1417.89
-2113.18
-404.64
-830.263
-1647.03
-894.62
-2493.11
-1320.59
-2672.06
-1778.49
-3028.89
-1972.6
-739.802
-234.387
-1571.71
-547.366
135.628
433.879
-499.078
191.919
-2832.88
-2727.81
-2208.8
-3397.94
-2933
-2900.51
-2327.58
-3486.87
-3487.78
-3049.05
-2642.56
-3428.12
-2413.7
-2967.61
-2858.17
-2634.34
-2182.86
-4711.77
-3685
-3278.47
-3812.22
-3746.05
-4854.57
-3612.94
-2936.28
-2565.8
-1766.41
-3558.51
-4436.82
-5832.85
-10066.5
-3427.96
-3769.65
-5462.35
-9331.53
-3524.18
-4212.17
-5013.54
-8321.78
-7875.05
-6775.61
-6147.08
-5333.39
-4124.71
-4479.16
-4097.26
-4880.86
-4299.84
-7431.23
-5334.16
-6139.07
-3771.03
-4793.78
-2944.17
-4055.65
-2934.24
-4306.91
-2433.78
-5804.71
-2406.86
-2528.21
-1387.42
-467.398
-4969.32
-4333.82
-4196.59
-2509.58
-635.671
-136.663
-1536.52
-2012.25
-2653.16
-762.019
-584.001
-85.1158
-4164.36
-2130.37
-1085.08
-604.846
-1805.24
-393.065
-289.175
97.8475
-439.383
-1233.43
-1143.74
-3126.31
-1315.35
-2593.19
-1651.92
-4519.63
-1001.79
-768.181
-484.784
-1978.82
286.147
461.906
861.455
93.511
-3707.31
-1223.42
-7320.57
-990.848
-3218.86
-1357.89
-6894.93
-980.403
-2931.04
-885.49
-5659.41
-448.258
-3702.8
-836.82
-3093.75
-753.854
-3298.2
-995.622
-2917.71
-486.808
-5083.1
-389.671
-4444.26
-618.886
-3773.85
-588.386
-3578.45
-705.188
-3432.29
-343.613
-5103.71
-504.376
-587.516
-191.785
-107.437
64.0487
-186.7
-55.5966
-40.5519
13.0066
-570.469
-165.324
-110.708
56.7865
-87.97
6.66254
-30.8849
12.037
-620.949
-150.599
-108.334
94.421
118.576
172.274
189.531
240.251
541.213
374.682
379.556
336.205
797.703
534.7
414.977
273.768
-275.89
22.9054
107.344
268.194
-255.227
61.2715
49.833
291.968
-703.482
-151.933
-92.1187
190.516
-543.315
-58.7909
-86.0184
288.212
122.35
200.997
223.964
288.418
49.5374
185.298
151.446
265.211
463.644
351.816
283.044
224.656
377.917
307.733
221.497
205.887
-943.023
-307.307
-198.417
124.105
-1265.24
-366.618
-333.643
227.393
-921.289
-284.42
-205.903
121.296
-1229.96
-348.958
-329.11
220.604
-920.114
-258.176
-239.728
106.241
-1114.64
-305.9
-320.81
188.239
-634.238
-117.655
-183.553
126.134
-1049.5
-246.737
-356.597
237.911
-461.028
-54.706
-96.4338
245.538
-1233
-282.355
-272.983
201.023
-538.096
-103.646
-76.4824
50.911
-1104.79
-243.957
-257.176
193.709
-497.71
-92.0684
-74.8597
47.7724
-899.726
-174.825
-239.441
169.738
-415.854
-66.7974
-69.8795
44.3906
-706.453
-120.539
-213.794
141.059
-352.369
-51.9538
-71.0066
37.2454
-471.701
-52.3838
-143.801
138.637
-195.017
-6.62639
-45.8489
42.1634
-174.862
62.8933
52.8542
204.363
117.199
130.406
91.8743
113.699
-394.688
-36.0197
-63.0289
159.908
-21.0194
59.0899
17.0746
71.7114
86.2856
179.601
141.578
219.829
213.964
194.045
147.424
139.726
334.376
277.294
187.734
179.114
302.171
239.767
163.028
132.771
21.4553
8.27839
3.76643
1.98292
1.31104
9.44531
3.87195
1.79631
0.942475
0.615647
33.6589
14.5722
7.11591
3.8618
2.58784
27.376
12.899
6.62463
3.66922
2.47574
67.1542
30.2523
15.2081
8.31198
5.57082
105.721
53.4285
27.8559
15.4487
10.4238
111.745
57.3565
29.9092
16.5336
11.1068
112.782
59.4196
31.5024
17.5436
11.7962
88.3316
41.3426
20.9138
11.4491
7.71794
73.2881
32.6382
16.2962
8.86039
5.95744
85.4808
38.7719
19.5775
10.6786
7.16612
56.1866
26.0792
13.2451
7.21769
4.86636
101.839
49.049
25.0215
13.7112
9.20221
92.6863
44.4803
22.7239
12.4619
8.38201
104.837
54.8016
28.9579
16.0991
10.8184
101.389
53.1005
28.016
15.5593
10.4612
23.1437
7.33627
3.16532
1.64044
1.07836
10.9304
2.84462
1.15217
0.576338
0.367178
28.3528
10.4982
4.86787
2.58736
1.70837
12.3206
3.61813
1.56413
0.806012
0.515757
38.2582
14.5579
6.90648
3.67782
2.41317
18.1441
7.23915
3.60102
1.98283
1.30754
69.6612
30.0979
15.0886
8.15366
5.40187
33.071
14.4413
7.33776
3.98933
2.63297
62.8608
31.3077
16.3039
8.98063
6.04403
-3144.79
-4784.5
-3011.09
-4690.26
-2792.53
-4378.96
-2659.17
-4188.54
-2674.01
-4560.11
-1541.4
-2153.74
-2134.58
-3204.56
-986.476
-1269.3
-317.619
-448.881
-8976.19
-2147.3
-490.992
-108.693
-27.2583
-2373.46
-630.913
-168.739
-37.7649
-8.43125
-8801.29
-2081.6
-473.387
-104.18
-26.0336
-2462.47
-715.882
-175.556
-40.6565
-10.1927
-8303.77
-1939.64
-437.818
-95.8445
-23.861
-2382.9
-688.26
-167.524
-38.4262
-9.5501
-7587.6
-1745.65
-391.777
-85.6587
-21.3533
-2253.48
-637.55
-152.504
-34.4931
-8.46821
-6492.83
-1476.18
-331.728
-72.9384
-18.3344
-2036.62
-554.227
-130.139
-29.1493
-7.10684
-3565.07
-864.99
-201.446
-45.3827
-11.6271
-1009.04
-259.79
-57.2301
-11.9542
-2.76111
-5011.99
-1182.81
-270.564
-60.1815
-15.2848
-1419.58
-375.463
-86.6386
-19.2115
-4.66761
-2221.23
-552.672
-130.582
-29.715
-7.66012
-633.39
-166.809
-36.1926
-7.22162
-1.59711
-801.157
-202.089
-48.1896
-11.06
-2.87193
-284.384
-68.2448
-13.9054
-3.84609
-0.558097
455.979
-1851.28
-6014.41
1579
-7068.05
-3117.88
-6933.71
-3191.93
-11871.2
-6474.27
-13883.5
-7577.43
-100.336
-374.04
-578.388
-670.275
-586.083
-282.833
-160.406
-579.811
-882.217
-987.371
-812.11
-281.228
-77.6985
-74.0385
-267.26
-248.524
-342.354
-330.365
-234.725
-249.167
-140.11
-185.131
-246.842
-202.224
500.261
1679.85
3281.09
2624.19
2375.54
1117.95
694.737
2045.21
3435.8
3829.11
3272.07
1480.1
-90.3887
-76.3045
-57.7377
-35.9355
-12.1938
-337.379
-285.271
-216.233
-134.775
-45.7684
-521.59
-440.91
-334.125
-208.224
-70.7083
-604.105
-510.325
-386.478
-240.732
-81.7254
-527.958
-445.703
-337.267
-209.92
-71.2303
-255.8
-216.67
-164.13
-102.028
-34.5587
-144.396
-121.788
-92.0764
-57.273
-19.4284
-522.605
-441.507
-334.388
-208.3
-70.7171
-794.846
-671.19
-508.151
-316.476
-107.437
-888.77
-749.754
-567.148
-353.032
-119.82
-730.24
-615.314
-464.997
-289.274
-98.157
-253.808
-214.582
-162.465
-101.084
-34.2826
-70.0481
-59.1942
-44.8373
-27.9282
-9.47991
-66.7939
-56.4883
-42.8223
-26.6908
-9.06341
-241.181
-204.06
-154.771
-96.5088
-32.7788
-224.335
-189.862
-144.045
-89.8412
-30.5181
-308.876
-261.27
-198.113
-123.511
-41.945
-298.069
-252.125
-191.177
-119.188
-40.4779
-211.831
-179.253
-135.957
-84.7628
-28.7809
-224.661
-189.892
-143.879
-89.6434
-30.4317
-126.526
-107.107
-81.1841
-50.5394
-17.1363
-166.58
-140.447
-106.131
-65.9769
-22.3679
-222.202
-187.255
-141.189
-87.4772
-29.5774
-181.618
-152.708
-115.001
-71.2574
-24.11
442.601
367.52
275.666
171.622
58.4321
1480.28
1225.26
918.535
573.035
195.503
2855.5
2343.23
1759.33
1109.47
382.369
2268.54
1879.22
1427.85
917.081
330.767
2064.71
1711.29
1300.11
830.694
288.74
1001.11
845.23
647.291
410.731
140.04
616.075
512.349
384.163
238.697
81.1235
1808.03
1500.22
1124.71
700.151
238.435
3018.33
2493.66
1869.77
1169.17
400.16
3348.04
2762.43
2076.17
1306.14
450.984
2855.81
2355.12
1773.78
1120.03
386.824
1303.74
1085.06
823.528
522.204
180.384
197.281
472.828
679.778
773.732
691.199
405.047
298.164
718.429
1018.6
1111.95
912.313
352.167
149.395
130.719
337.276
305.188
405.324
383.032
280.037
285.951
182.718
179.046
365.098
237.227
-355.613
-1475.48
-2916.3
-2149.98
-1803.84
-487.148
-642.568
-1965
-3245.86
-3484.09
-2762.32
-862.886
178.29
151.118
114.836
71.7223
24.3834
427.029
361.625
274.549
171.351
58.2349
613.659
519.409
394.15
245.907
83.5569
698.187
590.682
448.04
279.441
94.9366
623.732
527.689
400.229
249.592
84.7868
367.227
312.121
237.491
148.289
50.3771
269.358
228.196
173.329
108.219
36.7849
648.447
548.745
416.341
259.726
88.2492
918.757
776.915
589.059
367.303
124.774
1002.13
846.656
641.451
399.788
135.784
821.578
693.551
525.121
327.179
111.113
318.469
269.945
204.99
127.884
43.4436
135.043
114.493
87.0262
54.3622
18.4825
118.168
100.19
76.1558
47.5721
16.1736
304.693
258.131
196.052
122.391
41.5975
275.732
233.618
177.449
110.784
37.6539
366.039
309.989
235.353
146.882
49.9119
345.891
292.897
222.352
138.758
47.1503
253.013
214.407
162.872
101.678
34.5513
258.124
218.491
165.802
103.436
35.1396
165.443
140.531
106.942
66.8156
22.706
161.585
136.739
103.728
64.6855
21.9681
330.197
279.987
212.656
132.653
45.0464
214.077
181.092
137.284
85.5515
29.0451
-311.116
-255.196
-189.584
-117.488
-39.9636
-1294.97
-1067.46
-798.091
-497.611
-169.826
-2523.1
-2058.43
-1540.74
-972.192
-335.541
-1826
-1490.34
-1120.88
-719.205
-263.219
-1524.5
-1231.39
-915.758
-577.723
-199.522
-402.29
-309.982
-215.29
-123.703
-38.2207
-568.967
-472.505
-353.97
-219.894
-74.7377
-1736.13
-1439.95
-1079.52
-672.313
-229.047
-2846.15
-2347.2
-1758.19
-1099.5
-376.503
-3030.53
-2487.5
-1862.49
-1170.19
-404.42
-2382.64
-1941.43
-1448.57
-910.496
-314.179
-728.623
-579.79
-424.064
-263.312
-90.2823
-2065.96
-1481.61
549.77
1015.87
1082.89
1505.93
950.928
-10411.5
-1809.66
-3240.58
-1419.16
539.611
-4019.34
848.776
2225.09
727.542
-5147.06
-2186.03
-720.308
-397.379
-2979.95
-890.42
67.3574
7.95606
1625.83
1521.87
-548.269
-390.547
-8559.92
-3907.92
-3734.76
-1946.91
-2916.68
-2399.24
450.397
1515.88
144.726
-1131.54
-910.406
-764.673
-796.944
-741.111
-1036.2
-743.092
-570.539
-431.34
-176.331
503.041
430.59
327.979
203.899
68.9986
912.577
768.423
580.763
361.559
122.73
974
820.892
620.359
385.903
130.983
1353.27
1139.62
860.93
535.597
181.79
857.173
724.087
547.946
341.008
115.833
-7340.42
-6778.9
-5842.09
-5713.33
-5764.62
-1254.02
-775.83
-781.262
-808.415
-367.256
-2430.95
-1795.95
-1478.18
-1217.24
-589.974
-957.046
-650.524
-590.854
-508.577
-165.695
480.078
398.193
295.06
180.02
61.3123
-3300.35
-2606.22
-1990.95
-1351.92
-503.723
757.914
632.677
472.35
290.424
97.6698
1921.12
1560.31
1162.73
731.942
254.567
655.381
551.714
413.923
254.504
85.2683
-3248.47
-3173.06
-2746.75
-2848.69
-3099.28
-1615.03
-1112.54
-898.551
-724.339
-290.81
-577.287
-444.721
-341.486
-237.597
-87.3713
-308.236
-227.032
-170.18
-118.532
-43.9296
-2467.33
-1940.29
-1464.32
-971.505
-353.133
-742.62
-570.269
-415.362
-258.972
-77.8334
85.304
89.8485
70.9264
40.1353
13.0714
29.2055
42.0832
37.1162
21.9192
7.70349
1447.61
1207.85
906.73
562.99
191.327
1365.89
1148.24
865.346
537.12
182.197
-457.073
-360.844
-269.159
-174.454
-61.8335
-317.259
-243.158
-178.71
-116.172
-41.1345
-5356.74
-4167.13
-3628.51
-3557.2
-3048.14
-2920.48
-2214.04
-1732.57
-1282.27
-536.885
-2739.18
-2211.54
-1810.77
-1524.99
-637.181
-1437.68
-1119.06
-874.286
-647.495
-311.308
-2446.45
-1942.76
-1456.3
-943.026
-328.927
-1876.98
-1161.52
-914.152
-693.358
-57.3073
427.187
377.461
289.69
178.257
60.8008
1364.41
1150.29
868.494
539.329
182.903
159.545
158.922
125.15
74.7802
27.3203
-83.2469
-183.34
-235.879
-305.313
-448.187
-623.56
-21959.4
-18117.4
-16909.2
-20231.5
-15518
-11972.1
-14154
-10796.3
-19525.7
-15596.3
-16474.7
-14056.3
-14202
-10896.6
-13441.2
-18562.6
-16288.6
-14386.1
-16331.7
-13828.6
-10761.3
-12217.5
-9190.67
-18078.8
-15295.4
-16309.1
-14321
-14107.7
-11778.4
-13706.6
-14509.7
-13303.4
-11568.8
-12597.8
-11589.6
-9603.09
-10272.6
-8778.68
-15000.6
-13792.9
-14235.3
-13320.8
-12975.2
-11245.2
-12752
-9999.6
-9590.05
-8248.86
-8590.59
-8876.45
-8310.78
-7842.35
-7769.12
-10856.7
-12027
-10515.7
-11565.2
-10044.3
-9167.39
-11004.4
-6437.11
-6333.56
-5314.35
-5409.81
-6237.54
-6308.36
-5229.3
-5379.17
-7572.69
-9255.36
-7445.82
-8660.96
-7346.48
-7136.98
-8273.23
-2349.58
-2332.88
-1913.98
-1935.69
-2345.15
-2459.97
-1880.52
-1868.64
-3080.19
-3885.84
-3011.95
-3443.38
-3004.72
-2986.42
-3290.65
-8028.67
-8048.37
-11477.5
-12658
-8039.68
-7575.3
-10651.9
-8859.57
-7322.82
-4560.75
-7438.66
-4490.36
-7495.1
-7554.27
-4582.6
-7628.29
-7429.25
-10586.5
-11454.6
-7146.47
-6250.88
-9603.56
-7840.45
-5150.57
-1746.79
-5074.6
-1984.08
-4286.43
-4101.9
-2329.29
-6411.1
-6265.22
-8917.78
-9426.59
-6245.11
-5693.11
-8317.69
-7401.04
-2723.81
-1628.17
-2664.27
-2214.97
-2551.88
-2824.55
-2874.99
-4718.11
-4700.98
-6544.35
-6717.61
-4793.1
-4665.71
-6396.64
-6232.11
-2791.03
-1512.26
-2964.04
-2411.36
-3183.68
-3725.22
-3280.81
-2944.28
-2939.89
-4177.92
-4232.02
-2860.28
-2828.66
-4127.62
-4046
-1589.11
-1129.67
-1761
-1909.26
-2184.02
-2657.92
-2563.72
-1001.4
-1002.92
-1481.79
-1495.42
-992.945
-1027.28
-1459.06
-1408.11
-309.844
-479.486
-460.843
-872.86
-754.022
-972.226
-1079.98
7677.6
23085.5
5894.25
25761.9
3223.7
27212
5469.05
42909.1
8918.36
53835
9161.04
38309.3
9789.63
34098.2
9546.06
28663.9
4530.5
2518.45
13701
6557.7
4220.93
1962.42
14694.3
5945.5
5900.62
4403.27
17283
12763.7
3996.26
3197.26
17722
13556.8
9035.61
3302.65
6937.9
2572.84
3194.18
8461.93
42146.6
12847.5
12708.4
5810.79
50935.3
15913.2
11759.9
5445.27
28080.4
9343.89
14343.2
6505.01
23007.8
7296.37
5733.81
3081.69
9457.41
3855.11
5232.27
3253.52
10127.6
3863.91
6915.3
4378.89
6412.35
2733.75
11150.4
4058.94
4370.66
1626.54
13855.1
10603.4
8297.49
7545.77
15036.1
13243.1
8106.42
8671.07
7848.92
6884.77
10519.2
9154.2
6091.25
5300.55
3463.06
2998.56
5940.26
5940.48
3314.01
3329.69
5925.96
4749.98
3397.87
2441.77
6829.2
3865.02
6974.54
7578.04
9303.91
7054.87
10148.4
13116.2
4891.59
2117.88
4418.09
4501.6
2722.07
965.712
2000
1720.02
6899.54
13724.3
4924.85
15465.9
7468.15
13798.2
5880.49
16345.2
9666.59
13573.4
8074.28
16507.6
10152.5
11621.8
8308.89
8441.34
10008.5
7676.21
8915.98
12559.7
14856.6
21546.8
10443.1
8874.3
8751.21
11069.9
17235.5
17121.6
16621.4
19999.5
20211.9
16594.1
16658.4
19939.3
19974.9
15170.1
15791.4
19003.1
19305.2
9653.32
10290.6
9909.09
10539.7
12148.6
12375.3
14405.7
14225.7
18360.4
18752.5
8766.34
9738.59
10213.4
11210.7
11659.9
12949.4
13635.3
15302.1
18041.2
19978.1
10296.5
7047.89
8295.29
8248.39
11272.1
12607.3
9142.72
11887.4
7780.2
7795.45
9951.49
7185.65
3584.21
5930.14
1427.52
2185.88
5645.82
8762.83
2158.3
3239.85
3113.95
5311.17
1150.87
1927.43
7518.8
6384.07
7768.62
4927.01
10642.6
7662.35
12212.1
8276.51
3591.35
4058.23
4432.53
2568.87
2678.79
2869.52
2969.33
2247.6
14539.9
9627.91
3189.37
15730
9962.9
3456.43
14259.2
9400.81
3236.09
15648
9927.93
3386.42
13532.8
8796.81
2961.21
15276.6
9738.11
3361.94
7517.07
4404.57
1207.26
9262.38
6350.62
2077.6
10880.2
7652.32
2591.99
12197.4
8019.74
2651
14685.9
9349.11
3309.13
8149.08
4569.78
1530.34
8442.53
5544.31
1961.53
9715.2
6472.87
2253.4
11567.2
7485.84
2587.35
13966.3
8273.31
2893.19
-520.151
982.508
404.275
2644.15
1870.43
1868.2
4802.72
4180.92
596.885
950.805
630.835
993.127
338.474
922.571
620.799
1351.89
1823.75
1114.86
3770.98
2695.68
1700.26
2763.34
2930.19
678.107
6119.6
1833.03
-4445.6
-879.809
516.037
505.209
-184.121
-88.8836
10087
4229.49
2659.92
1508.56
9937.27
4275.47
2897.04
1782.01
9548.78
4625.96
3829.67
2586.21
2927.87
1811.06
1503.18
1327.41
13290.2
11580.8
5765.63
7380.61
15316
14284.6
7424.8
8892.12
5078.09
6135.15
10990.1
8987.79
3606.91
4765.29
1987.93
2695.66
4909.9
5742.62
2746.13
3209.09
2805.39
4000.84
1480.75
2372.99
4402.33
2964.56
4965.33
3134.99
7681.22
4297.03
6709.39
4120.46
2541.08
1995.44
3413.48
2129.84
1335.99
1208.02
2120.66
1297.13
11615.2
7355.48
5424.25
5383.22
11504.9
7338.32
5326.08
5250.71
11614.2
7096.26
5379.85
4876.22
13377.4
13303.7
12141.3
9063.78
4898.61
8073.25
9387.89
9579.48
8676.4
5669.12
11526.9
9997.9
8017.87
6235.12
3786.43
5917.46
5558.54
5718.51
6592.59
5938.03
5450.06
5597.83
6489.15
5765.29
5283.23
5356.37
6264.44
9059.17
8589.39
8092.45
6913.82
5775.84
5682.92
5294.67
5366.43
4691.32
5957.2
6710.49
7604.63
5402.5
6103.5
4565.88
5153.88
4208.19
4934.76
3520.22
5482.32
4825.43
3878.83
3306.99
1866.6
7608.53
5772.48
6131.85
3945.05
2380.5
1401.5
3529.53
3163.75
4196.47
1882.55
1893.99
1047.92
5627.92
3268.53
2249.66
1553.04
3278.92
1406.62
1624.1
808.567
1836.42
2153.44
2129.76
3546.46
2795.75
3339.99
2531.95
4571.69
2270.3
1586.2
1577.62
2568.36
967.502
353.104
251.032
582.9
4303.64
1982.26
575.301
4492.68
1213.86
324.055
4269.35
2111.56
663.173
4497.51
1263.06
354.959
4022
2020.31
534.002
4330.88
1192.83
278.451
5881.01
3288.44
897.788
4658.01
2565.41
734.002
4257.66
2202.09
644.906
3909.75
1904.14
465.713
4164.85
1081.31
198.881
6453.89
3457.21
1098.02
5289.39
2910.86
966.646
4506.09
2401.6
794.088
4045.14
1734.05
489.539
4409.88
1146.96
372.185
1558.58
577.728
284.513
45.5247
628.476
243.99
128.216
33.7353
1606.54
617.033
336.491
90.6665
758.249
324.25
208.627
95.0353
1823.83
729.037
432.069
150.963
1274
619.646
328.877
143.458
911.095
531.979
215.22
61.0162
923.283
587.843
300.547
150.661
1487.74
676.49
342.282
55.3139
1399.64
619.342
368.48
9.91568
1888.43
771.108
466.402
127.328
1673.43
675.094
436.848
0.994142
1107.87
571.415
275.653
47.3174
1072.86
530.747
314.425
61.3375
801.432
478.307
273.077
144.522
732.145
427.049
272.755
142.439
1981.27
709.926
364.718
7.06022
2029.36
690.486
424.359
-89.063
1964.99
716.424
393.249
28.1074
1939.63
663.437
421.58
-81.2125
1967.06
731.487
451.804
64.7554
1737.97
599.278
415.797
-45.8816
1820.97
698.184
483.439
149.242
1914.25
673.504
525.658
-29.5586
1401.06
538.238
379.288
65.776
1643.53
505.374
325.095
-93.1206
638.903
179.566
100.853
-15.7777
1619.6
509.208
328.76
-79.5729
649.841
187.76
108.753
-6.86385
1533.21
496.215
336.267
-55.2423
631.858
189.75
118.23
5.15114
1297.83
424.758
320.04
-26.8595
559.879
167.991
125.095
20.4257
1139.74
394.233
302.036
11.7572
510.285
169.223
134.326
40.2642
873.793
366.028
220.394
26.8424
462.983
222.935
127.941
61.3384
938.631
341.849
244.249
18.8086
464.684
185.395
129.339
53.5181
763.743
378.95
216.873
53.8395
456.041
253.533
137.254
77.262
583.2
352.003
216.831
118.389
411.578
264.192
158.556
107.4
15.9772
7.163
3.64075
1.99327
1.32379
7.78901
3.53814
1.80844
0.996057
0.666297
28.1458
14.0784
7.36319