/*--------------------------------*- C++ -*----------------------------------*\
| =========                 |                                                 |
| \\      /  F ield         | OpenFOAM: The Open Source CFD Toolbox           |
|  \\    /   O peration     | Version:  2412                                  |
|   \\  /    A nd           | Website:  www.openfoam.com                      |
|    \\/     M anipulation  |                                                 |
\*---------------------------------------------------------------------------*/
FoamFile
{
    version     2.0;
    format      ascii;
    arch        "LSB;label=32;scalar=64";
    class       volScalarField;
    location    "1.5";
    object      gradTx;
}
// * * * * * * * * * * * * * * * * * * * * * * * * * * * * * * * * * * * * * //

dimensions      [0 -1 0 1 0 0 0];

internalField   nonuniform List<scalar> 
5712
(
-8375.44
-10247.5
-19092.5
-29896.1
-28912.3
-56400.6
-19926
-59951.4
-20527.6
-48040.3
-25253.7
-41581.4
-19295.5
-25586.1
-10386
-10565.7
-13815.3
-15759
-18800.3
-17098.2
-13013.5
-19588.4
-19355.7
-19369.5
-5538.7
-4066.34
-7500.53
-5409.43
-12604.2
-8308.08
-23218
-16310.4
-19309
-19672.2
-19764.5
-20244.7
-4706.23
-4105.61
-44700.9
-55258
-23850.3
-31778.3
-57369.6
-70625.6
-26590.9
-32720.8
-33617.1
-43923.3
-26878.3
-37143.3
-15516.4
-19583.2
-3229.58
-1029.43
-4175.19
-1454.57
-7240.09
-2987.69
-12431.8
-4582.49
-8284.04
-2750.75
-8226.81
-2338.3
-16089.1
-4701.74
-21050.3
-6623.29
-26871.2
-15453.7
-22660.5
-15662.1
-27282.1
-17604.7
-21614.6
-17404.3
-17739.7
-12819.2
-19562.4
-12446.1
-21992.6
-16159.2
-22730.4
-16554.1
-21175.2
-17722.6
-22006.6
-18052.7
-18256.8
-13507.7
-19659.6
-13983.9
-19593.3
-8113.45
-11283.4
-12964
-21141.5
-9414
-11285.3
-13682.5
-19606.6
-7535.64
-11754.1
-12707
-20258.9
-7570.76
-12326.1
-12783.7
-3128.35
-3538.97
-1107.14
-2246.13
-9005.32
-10609
-3753.32
-7261.21
-14656.3
-17418.7
-6772.86
-12235.8
-18040.7
-9423.79
-18705.4
-22863.2
-11710.9
-6760.82
-10847.4
-13019.4
-23241
-15337.9
-10653.6
-14125.2
-15864.8
-15608.5
-19635.9
-3431.32
-3498.22
-2152.75
-2287.94
-10161.1
-9564.08
-6680.19
-6739.21
-15211
-13707.8
-9914.12
-9882.29
-9843.16
-10953.8
-15532.2
-16491.3
-17858.8
-16767.8
-21504.5
-19605.8
-15297.8
-15210.7
-13437.5
-14319.8
-17384.2
-15523.8
-16554
-13514.7
-15027.8
-11726.2
-17070
-13388.9
-14509.1
-7386.95
-11446.8
-10917.4
-15972.2
-18285.9
-16319.9
-21041.5
-9714.2
-9367.49
-13219.4
-5522.15
-11129.9
-17322.4
-11565.2
-18586.8
-16595.9
-25883.2
-17200.9
-26593.7
-9515.15
-15353.4
-9907.69
-16731.9
-11774.5
-8539.92
-15310.5
-6686.47
-12655.5
-4221.66
-14458
-2989.35
-12310.3
-12452.4
-16077.4
-8168.72
-11162.3
-14440.3
-14810.5
-10452.6
-3228.44
-2963.34
-2487.57
-2094.76
-2026.07
-1739.11
-8649.53
-7287.32
-6203.41
-5741.43
-4684.49
-3856.24
-11205.1
-9232.98
-8264.07
-8290.29
-6466.31
-5699.96
-9660.85
-7534.95
-6985.64
-15226
-10891.2
-8592.24
-14022
-9884.49
-7406.06
-15772.7
-11939.4
-9759.71
-12683.1
-8347.6
-5996.12
-18076.9
-14223.6
-12288.3
-13487.5
-10291.3
-8227.49
-12168.1
-8788.71
-6632.57
-11121.1
-7981.2
-6056.01
-12396.6
-7185.5
-4254.41
-11794
-19137.7
-10066.4
-14332.6
-9732.9
-19929
-8196.13
-16380.3
-154.95
-1712.48
273.638
-1020.01
-3564.2
-6721.95
-2263.18
-4120.95
-1901.42
-3954.46
-11176.5
-16550.2
-8768.32
-6648.69
-12034.6
-10534.7
-16321.8
-17496.8
560.433
5685.63
-8560.6
-5979.79
-6724.4
-3861.34
-1575.28
-1005.18
-1294.18
-805
-3885.02
-1214.59
-1979.08
-274.135
-10004.1
-2919.62
-7626.43
-2352.61
-8683.14
-2609.04
-9819.23
-3205.38
-12599.4
-12327.5
-9787.08
-12178.4
-19359.7
-17315.2
-15815.9
-16411.4
-7127.46
-9193.09
-8323.31
-8511.03
-9156.67
-12070.7
-9622.69
-12166.6
-15091.4
-16050.7
-15639.6
-16150.2
-6294.18
-9297.62
-6083.27
-9396.72
-636.003
-1232.25
-7176.33
-3747.91
-619.828
-994.528
-6285.98
-3151.96
-640.626
-1109.28
-7564.15
-4133.13
-939.406
-1222.5
-7626.82
-4357.84
200.874
351.69
-458.543
-284.78
913.299
1442.61
-709.235
-400.802
-1028.46
30.3358
-2357.88
-1965.43
7531.13
3811.84
4461.54
3071.36
133.49
7060.98
10234.7
4827.07
4958.78
166.94
-9684.61
-6956.96
-5513.14
-5486.71
-2979.05
535.889
436.178
-144.954
-213.344
1515.15
1612.41
-385.221
-507.11
1344.16
1835.16
-1184.52
-1348.54
2941.18
1334.21
7799.21
5310.61
4160.81
2866.73
3858.24
3115.36
-48.222
-649.573
-5164.09
-3628.19
339.133
1932.46
665.821
1798.21
-218.094
775.825
-497.912
-767.094
-4100.81
-4473.78
-9601.19
-6066.08
-8786.56
-8406.66
-13091.2
-10130.5
-7126.31
-4313.95
-2389.37
-3045.54
-11341.8
-4819.27
-12166.8
-4473.84
-15019.3
-9799.17
-16009.3
-9472.44
-8589.58
-3131.03
-9330.97
-2707.91
-5075.14
-3988.17
-3509.14
-6238.54
-2395.26
-3189.13
-2201.46
-5192.42
-5599.85
-3670.23
-4309.83
-7175.63
-6834.39
-3422.21
-5202.77
-7048.45
514.54
620.298
705.054
-134.976
120.843
158.718
1819.02
2059.83
2166.31
-170.051
493.691
580.966
2221.26
2949.79
3245.26
-696.19
863.116
1171.25
558.048
1122.17
995.128
3818.37
4033.76
3696.48
2967.86
3382
3235.62
3213.78
3833.58
3893.98
-330.433
1248.91
1163.01
-4263.36
-2168.33
-1284.77
901.734
1980.72
2333.02
1228.58
2312.91
2583.69
784.832
2052.13
2308.09
-1395.75
828.576
967.075
-72.7467
0.455184
23.1017
46.5727
84.2985
79.5399
93.22
82.5745
-192.979
-7.21164
65.8447
125.278
191.962
181.665
198.569
182.888
-367.823
-60.6349
59.5483
194.575
9.20221
138.997
151.524
194.249
24.0143
90.3338
48.1301
55.784
-149.744
-19.6961
24.1636
66.4769
-914.378
-283.093
-147.497
82.2866
-1328.12
-429.684
-314.464
114.582
-752.358
-215.201
-84.122
179.201
-1077.98
-344.108
-275.057
120.295
-843.83
-271.294
-135.188
67.0737
-1465.23
-475.575
-335.244
147.778
-892.645
-311.372
-126.362
103.446
-1539.24
-502.998
-350.131
163.204
-66.8372
-7.15776
3.75896
38.8888
-53.1022
-3.51875
-8.86274
41.9216
-179.272
-23.229
13.357
105.872
-86.6111
10.7791
-10.4911
115.329
-617.673
-168.443
-71.7369
153.819
-464.746
-106.519
-73.6504
185.071
-276.479
-36.9341
0.289572
196.297
-182.42
-10.4378
-33.7327
186.327
-900.841
-268.336
-219.169
197.392
33.1789
24.6366
12.5371
36.8097
111.746
48.0671
25.2719
24.312
27.7148
47.0242
16.3485
94.2838
276.118
124.481
60.3546
63.0494
-57.2199
32.777
7.67731
146.934
384.087
180.137
89.8549
95.4348
-63.4901
44.5179
9.33491
193.436
419.99
212.979
98.4938
109.55
-239.387
6.55673
-63.9055
174.862
259.69
189.973
63.6917
95.9156
-896.816
-126.4
-181.054
145.196
-250.648
52.5393
-7.58614
58.5337
-562.275
-39.5683
-136.119
154.287
-44.6715
123.063
23.7851
76.8743
-1181.33
-239.274
-230.987
153.838
-385.723
-17.8954
-35.8521
48.5561
-1380.43
-354.39
-282.623
147.686
-504.613
-99.8077
-68.3692
37.4914
17.6635
8.10233
3.93142
2.05734
1.33506
25.4633
12.5124
6.28497
3.36077
2.2005
37.1649
17.2123
8.33474
4.3763
2.8682
66.8185
34.1205
17.4159
9.43533
6.23092
53.9669
25.1089
12.2883
6.52402
4.30922
96.9998
48.79
25.0798
13.7089
9.10667
32.2087
15.8888
8.22008
4.52622
3.01789
16.7924
8.38098
4.31386
2.37378
1.57885
48.2365
21.0085
10.332
5.54706
3.65295
9.64159
2.94236
1.19288
0.571636
0.355829
74.7804
35.2314
17.7574
9.64438
6.39628
19.5365
7.71894
3.64507
1.91204
1.23736
14.1756
4.13295
1.59992
0.75576
0.471054
9.81085
3.28598
1.43116
0.729387
0.471225
12.3111
3.52774
1.35182
0.641035
0.38795
5.75706
0.877579
0.138031
0.00839755
-0.0200579
14.0867
6.07825
2.82406
1.43013
0.911562
13.9672
5.87023
2.69648
1.35807
0.863594
32.7943
13.8797
6.43837
3.26994
2.09888
32.6455
13.3551
6.13865
3.10129
1.97564
42.6099
16.9863
7.80089
3.94328
2.53117
40.1764
16.5296
7.71934
3.92941
2.53391
55.1293
25.1041
12.4559
6.68326
4.42563
27.9153
12.2528
5.89729
3.05706
2.00831
32.2024
15.227
7.70382
4.20155
2.79247
-505.243
-630.071
-1398.29
-1801
-2146.97
-2896.96
-2587.36
-3832.13
-2505.14
-3718.47
-2283.69
-3130.17
-2014.31
-2490.43
-2738.69
-3778.84
-2914.43
-4000.84
-574.781
-126.914
-27.8021
-5.9357
-1.45134
-223.902
-84.7938
-8.79611
-2.6123
-1.09254
-1857.44
-412.998
-91.0036
-19.5817
-4.82359
-575.933
-122.563
-24.8481
-4.84143
-1.02956
-3258.65
-728.739
-161.546
-35.0859
-8.72157
-1020.2
-244.68
-54.4847
-11.9976
-2.92667
-4636.67
-1042.87
-233.525
-51.3221
-12.9218
-1437.66
-378.961
-90.6365
-21.036
-5.39526
-6399.87
-1481.41
-339.007
-75.9112
-19.4556
-1927.31
-578.131
-146.791
-35.1707
-9.26057
-8461.59
-2140.81
-517.888
-120.872
-31.9898
-2262.55
-715.029
-187.111
-45.5935
-12.2032
-7779.12
-1906.83
-449.882
-102.889
-26.7896
-2173.25
-697.998
-182.714
-44.4507
-11.7968
-8770.61
-2248.48
-550.852
-130.042
-34.7359
-2332.18
-712.656
-183.246
-44.1032
-11.7637
-9009.68
-2302.28
-566.501
-134.5
-36.1207
-2346.2
-717.111
-184.01
-41.1193
-11.6146
-271.323
-6905.83
-6773.12
-3787.15
3840.35
5279.18
10607.9
13969.2
6019.4
12176.3
2217.56
7244.86
5901
9868.57
10903.3
15077.1
13117.8
14955.5
7488.02
8485.69
-19049.5
-14103.1
-3927.92
-2935.35
-2258.62
-3603.26
-2591.77
-12250.7
-11674.3
-10095.8
-10410.3
-8358.63
-5764.34
-8131.42
-4813.17
-3671.55
-4499.45
-2868.44
-20301
-9846.15
-2772.77
-4716.11
-7363.37
-4908.27
-5630.95
-4200.07
-1982.44
-3334.22
-3019.48
-3536.03
-19063.2
-11695.6
-11688.7
-7320.01
-7674.79
-7812.73
-3640.16
-4563.12
-4930.86
-12643.3
-11754.8
-9732.57
-9214.93
-7970.6
-9953.2
-7277.17
-5859.77
-4683.41
-2052.39
-3458.9
-2853.66
-2127.04
-1317.73
-446.705
-2614.87
-2181.6
-1635.91
-1013.53
-343.353
-1998.75
-1654.66
-1231.11
-758.117
-256.07
-3212.97
-2682
-2009.87
-1243.34
-420.769
-2293.46
-1899.65
-1415.71
-873.792
-295.583
-8013.61
-6670.82
-5173.02
-4605.13
-4735.24
-6328.78
-4906.07
-3382.01
-2644.41
-2122.84
-6971.86
-4724.64
-3491.27
-2528.21
-1080.05
-5612.79
-4127.64
-2795.42
-2101.46
-1409.36
-4231.08
-2909.4
-1894.46
-1486.05
-852.47
-4572.61
-3419.96
-2408.3
-1481.63
-519.39
-5825.36
-4026.66
-2822.83
-1823.06
-711.425
-3372.49
-2225.3
-1493.07
-927.077
-346.014
-3022.54
-2330.95
-1656.17
-1006.29
-343.146
-3615.68
-2718
-1896.33
-1141.27
-388.872
-2388.94
-1859.98
-1324.88
-800.995
-270.772
-13601
-11002.8
-8861.84
-7874.38
-6981.64
-7512.47
-5541.83
-4145.39
-2894.65
-1189.34
-2297.18
-1786.36
-1283.13
-789.082
-271.257
-3975.24
-3149.85
-2303.39
-1436.99
-496.981
-6036.01
-4683.54
-3447.75
-2221.89
-796.804
-4168.31
-3327
-2452.48
-1538.3
-529.331
-4869.64
-3946.66
-2921.97
-1818.05
-616.761
-3643.59
-2961.31
-2184.5
-1348.97
-458.248
-1703.39
-1367.56
-993.778
-604.738
-203.77
-2921.2
-2394.14
-1769.03
-1086.77
-367.18
-2557.61
-2027.79
-1466.87
-896.465
-304.349
-3045.38
-2457.07
-1802.45
-1110.31
-377.547
-12587.4
-10994.8
-9108.44
-8396.19
-7052.99
-8577.67
-6318.19
-4978.92
-3792.47
-1644.55
-9251.14
-7362.66
-5702.42
-4323.05
-1861.97
-5936.13
-4436.95
-3332.7
-2241.64
-711.674
-6421.85
-5030.21
-3727.99
-2386.14
-802.216
-6311.84
-4690.2
-3508.34
-2353.11
-727.355
-3122.66
-2511.34
-1846.77
-1145.61
-390.636
-3999.99
-3283
-2433.97
-1501.8
-508.654
-4225.72
-3398.1
-2503
-1557.04
-532.115
-6705.46
-14763
-11733.9
-38395.8
-11007.3
-49889.6
-7418.39
-19656.1
-9601.67
-8111.78
-18982.6
-14818.6
-9697.24
-11636.3
-20660.9
-17077.6
-4225.62
-2888.25
-9766.42
-6886.66
-7383.48
-3862.45
-26874
-19012.6
-16123.2
-11159.5
-16809
-10946.6
1895.62
-1584.68
-45908.3
-55727.4
-23126.7
-31674.3
-58286
-71001.4
-25722.2
-32514.6
-34420.5
-44382.6
-26180.7
-37131.9
-16689.3
-20059.2
-2289
-438.963
-5012.03
-1617.16
-4327.94
-2055.91
-14014.2
-5015.64
-2168.31
-1044.24
-6106.51
-1697.81
-16139.2
-4658.34
-21243.7
-6667.17
-19477.7
-12022.2
-20164.6
-13948.5
-18741.8
-13402.8
-18761.9
-15393.2
-16025.2
-11516.6
-14695.1
-9959.7
-20996.5
-15370.7
-22486.3
-16330.4
-20002.3
-16827.6
-21683.7
-17796.8
-17633.5
-12894.4
-19521
-13807.7
-18623.4
-7861.13
-10339.9
-12538.3
-18170.3
-8612.47
-9417.84
-12872.3
-19329.3
-7457.46
-11312.6
-12497.1
-20225.3
-7560.88
-12197.2
-12723.9
-696.256
-530.389
115.635
-761.031
-2616.96
-3272.89
-1880.68
-4933.22
-3961.52
-5343.05
-4169.99
-9072.52
-17515.3
-16598.9
-14214.3
-16849.5
-10289.5
-11003.8
-8827.37
-7897.64
-16681.7
-13938.3
-13173.3
-12712.4
-12253
-11682.7
-17858.5
-770.866
-977.806
-515.797
-756.787
-3286.27
-2942.16
-3757.51
-3709.87
-3241.3
-1762.04
-6232.17
-5912.67
-11959.1
-12763.1
-11279.5
-11229.4
-10506.3
-8750.72
-14305.1
-12278.7
-12949.5
-12215.4
-15542
-15819.6
-14810.4
-13090.7
-12314.6
-9986.65
-11222.3
-8665.8
-15259.3
-11223.4
-13493.8
-7817.13
-11054.7
-11047.1
-16436
-19268.8
-16377.8
-21391.3
-9128.2
-9332.7
-11694.3
-5628.43
-10968.9
-17310.2
-11510.6
-18569.1
-16634.9
-26150.4
-17189
-26613.7
-9269.84
-15257.6
-9833.83
-16698.6
-11271.5
-8505.28
-15060.6
-6738.49
-11387.4
-4405.51
-13921.3
-3402.39
-12098.4
-12376.9
-15958.5
-8163.79
-11098.6
-14411
-14778.6
-10438.1
-1179.78
-909.186
-688.162
-847.004
-2277.01
-1151.98
-3094.02
-3087.45
-623.374
-447.312
-5445.08
-5263.71
-13694
-11674
-11014.2
-8392.56
-7338.02
-4928.85
-9818.64
-7407.22
-10574.2
-7068.23
-19976.7
-16816.3
-10618.2
-8443.21
-8393.51
-6051.19
-7424.9
-5027.47
-8481.71
-4223.13
-5892.54
-11289.7
-5409.24
-11099.3
-7539.86
-12284.6
-8927.84
-13880.4
-1644.55
-1542.29
-1448.53
-1452.5
-4612.85
-4818.71
-4281.31
-4425.25
-1755.81
-2141.12
-9098.43
-9933.27
-5530.05
-6232.1
-10779.2
-10230.6
-15146.5
-17158.5
719.287
5591.01
-7796.25
-5833.98
-6395.17
-3844.04
-1352.65
-1272.58
-1471.01
-1246.4
-3026.38
-1959.23
-2352.11
-1386.57
-8155.77
-3882.95
-7664.12
-3559.73
-8627.02
-3283.23
-9820.97
-3476.24
-6723.21
-9724.12
-7641.78
-10746
-11728.3
-13281.3
-13108
-14428.1
-5908.91
-8501.68
-5079.3
-7551.65
-8242.75
-11444.5
-9350.93
-11987
-13921.2
-15186.7
-15293.8
-15902.5
-5782.83
-8992.61
-5930.14
-9309.62
-663.875
-1612.13
-7124.75
-3959.61
-796.953
-1690.08
-6416.15
-3487.6
-742.445
-1418.3
-7546.01
-4287.04
-986.227
-1351.18
-7608.51
-4428.38
-1233.77
-1388
-1278.76
-1425.92
-2998.69
-3301.39
-2188.86
-2474.38
-7348.8
-7870.77
-4049.13
-4378.63
-4144.74
-9634.06
-2668.05
-254.206
-1256.57
-4146.01
-1114.32
-1896.26
1916.72
-763.427
-14095
-10098
-7569.27
-7175.86
-3744.12
-1657.51
-1774.04
-1653.55
-1963.76
-3883.14
-4107.83
-2906.57
-3550.34
-8295.62
-9190.63
-4392.9
-5430.37
-6172.21
-7473.99
-2086.32
-4108.01
-3312.68
-4569.12
-777.772
-1635.2
-1623
-2567.79
-11410.1
-8839.31
-6128.8
-4222.88
-4423.57
-3033.5
-4077.16
-2719.87
-2113.43
-2608.09
-7311.97
-7779.87
-11031.9
-7492.49
-11250.6
-11124
-13981.6
-11311.4
-8839.19
-5758.56
-5496
-6166.05
-12011.1
-5621.17
-12341.1
-4656.11
-15398.8
-10484.1
-16087.9
-9608.29
-9444.96
-3942.53
-9571.26
-2912.36
-6738.32
-5331.71
-4966.87
-7787.88
-5079.29
-5891.89
-4094.89
-7700.32
-6477.3
-4463.63
-5178.81
-8094.54
-7101.37
-3659.02
-5479.15
-7286.1
-1460.47
-1535.93
-1380.85
-1125.39
-4427.38
-4998.41
-2177.93
-1287.1
-9770.16
-8110.51
-3177.99
-393.51
-9295.5
-7983.09
-5919.96
-4906.34
-4877.59
-3902.56
-1764.01
-906.731
-1815.11
582.658
-8465.2
-6948.46
-4202.69
-2998.75
-2795.98
-1529.58
-2117.98
-773.58
-3281.84
350.488
-268.456
-106.95
-34.6498
17.3779
-280.045
-130.325
-25.0369
16.1352
-688.095
-278.96
-73.6051
64.0232
-637.489
-303.686
-88.8617
1.0418
-1022.84
-424.748
-146.188
90.2459
-990.787
-465.262
-248.332
-89.7423
-583.559
-289.798
-187.281
-68.9061
-410.942
-188.539
-80.9814
8.02609
-1264.75
-499.116
-304.594
-27.9659
-1442.08
-480.88
-366.572
111.257
-1267.84
-497.835
-289.229
8.91765
-1227.25
-410.859
-341.441
115.895
-1112.44
-440.947
-236.703
31.273
-1553.47
-516.719
-380.847
126.521
-1007.88
-385.842
-172.566
82.2825
-1578.19
-522.37
-367.793
157.4
-254.404
-92.4857
-38.1623
24.4803
-254.519
-81.5173
-51.4871
28.8825
-654.499
-243.19
-96.0703
68.7433
-643.534
-213.962
-128.722
82.9631
-1137.43
-422.893
-214.491
116.509
-1099.1
-379.541
-234.65
143.531
-1107.3
-443.626
-242.159
55.3938
-820.39
-299.333
-187.686
153.467
-1238.64
-425.219
-348.947
160.357
-190.034
-59.3905
-25.7374
20.6673
-115.973
-41.6297
-12.8947
2.54294
-517.496
-164.747
-86.9685
50.5449
-316.491
-117.303
-47.3588
2.14926
-708.387
-238.923
-136.374
81.1674
-428.491
-179.545
-74.3954
2.72867
-815.325
-298.302
-178.562
102.277
-530.345
-238.192
-107.67
-3.32621
-962.27
-332.956
-262.986
69.9319
-710.739
-275.883
-159.586
-29.9391
-1669.83
-541.875
-422.455
20.0584
-888.34
-301.505
-192.388
-44.9708
-1433.76
-468.057
-386.079
24.199
-917.858
-312.126
-195.905
-48.399
-1676.36
-524.299
-397.282
69.6793
-766.751
-249.316
-158.649
-17.0336
-1544.53
-453.011
-340.304
119.042
-625.338
-177.487
-110.038
15.5396
-4.8761
-5.57505
-3.59357
-2.17415
-1.51336
-14.938
-10.0995
-5.89848
-3.45114
-2.37871
-11.4623
-11.793
-7.52805
-4.52395
-3.1181
-47.8113
-28.8762
-16.3023
-9.37882
-6.41048
-24.3101
-18.7164
-11.2324
-6.59944
-4.50464
-72.7826
-42.1521
-23.2093
-13.1738
-8.94622
-24.7977
-14.0355
-7.63851
-4.30593
-2.91667
-12.723
-7.24328
-4.01099
-2.27946
-1.55864
-22.3009
-16.0605
-9.2525
-5.33847
-3.6541
1.93599
-1.21047
-1.01609
-0.657095
-0.468859
-49.71
-29.3565
-16.1653
-9.17205
-6.22504
-5.3772
-5.46973
-3.29214
-1.93425
-1.34164
2.68262
-1.20412
-1.17571
-0.785795
-0.566406
-0.464119
-1.73924
-1.19207
-0.726929
-0.508248
3.13805
-0.986896
-1.03901
-0.708555
-0.54096
4.74979
0.553644
-0.0233958
-0.0896949
-0.0988454
-1.22269
-3.7431
-2.64229
-1.65186
-1.164
-1.92534
-3.68055
-2.53125
-1.57456
-1.10833
-4.61436
-9.06795
-6.14692
-3.79094
-2.64893
-5.62613
-8.97528
-5.95136
-3.65557
-2.56271
-5.53505
-11.7425
-7.74653
-4.7412
-3.30108
-13.6066
-12.9943
-7.94634
-4.77437
-3.3029
-34.9726
-21.1584
-11.694
-6.68148
-4.53059
-16.7985
-10.8727
-6.16337
-3.61228
-2.45865
-25.021
-13.11
-6.97541
-3.90793
-2.64052
-185.349
-323.18
-631.835
-1040.92
-1248.35
-1958.54
-1840.15
-2976.05
-2061.85
-3209.71
-2328.03
-3183.11
-1949.21
-2524.77
-2779.13
-3804.27
-2928.99
-4008.9
-552.884
-124.371
-27.4295
-5.87262
-1.43825
-162.348
-76.7607
-7.26622
-2.39076
-1.0645
-1805.59
-406.988
-90.1189
-19.4292
-4.79072
-424.024
-98.15
-20.9752
-4.23651
-0.924488
-3178.45
-718.34
-159.922
-34.8014
-8.66009
-837.053
-214.579
-49.5946
-11.2143
-2.78615
-4525.29
-1026.17
-230.699
-50.8109
-12.8114
-1281.23
-351.836
-85.9661
-20.2402
-5.24388
-6265.84
-1458.15
-334.697
-75.0928
-19.2753
-1839.72
-559.078
-143.006
-34.4538
-9.11209
-8378.84
-2120.38
-513.308
-119.906
-31.7645
-2263.6
-712.238
-186.143
-45.3502
-12.1423
-7660.27
-1881.29
-444.629
-101.839
-26.5528
-2150.36
-688.336
-180.303
-43.9311
-11.6802
-8721.97
-2235.73
-547.849
-129.389
-34.5795
-2335.12
-712.208
-182.99
-44.0318
-11.7447
-8993.81
-2298.06
-565.479
-134.275
-36.0662
-2347.3
-717.135
-183.981
-41.1173
-11.6126
-128.765
-6745.28
-6216.38
-2929.57
-1509.57
-846.111
-3194.3
-2425.55
-5671.23
-6172.24
-3269.42
-3066.13
-298.163
-462.9
-795.77
-1259.78
-1824.4
-2416.66
-208.654
-444.233
-917.289
-1587.17
-2391.92
-3246.55
-230.169
-99.9132
-413.469
-254.641
-780.82
-576.531
-1277.79
-1091.31
-1798.15
-1764.11
-2279.15
-2462.37
-3062.82
-3778.14
-4684.16
-6791.57
-7307.16
-8949.84
-4057.77
-4670.47
-4896.48
-4791.46
-4037.92
-3678.52
-269.174
-227.825
-172.865
-107.832
-36.6355
-417.559
-353.085
-267.659
-166.846
-56.6635
-717.142
-605.743
-458.709
-285.722
-97.0002
-1133.79
-956.259
-723.18
-450.052
-152.724
-1638.74
-1379.25
-1041.24
-647.304
-219.563
-2164.02
-1815.55
-1367.31
-849.003
-287.877
-188.242
-159.235
-120.753
-75.2888
-25.5693
-400.46
-338.397
-256.358
-159.723
-54.2286
-826.166
-697.403
-527.837
-328.663
-111.557
-1427.58
-1203.32
-909.611
-565.942
-192.036
-2147.09
-1805.97
-1362.88
-847.199
-287.386
-2905.49
-2436.54
-1834.84
-1139.62
-386.544
-207.907
-176.035
-133.616
-83.3759
-28.3372
-90.2584
-76.4301
-58.0178
-36.205
-12.3058
-373.171
-315.71
-239.439
-149.311
-50.7237
-229.871
-194.529
-147.571
-92.0399
-31.2702
-704.078
-595.064
-450.864
-280.942
-95.4001
-520.013
-439.652
-333.218
-207.679
-70.5282
-1150.62
-970.975
-734.625
-457.283
-155.195
-982.879
-829.583
-627.732
-390.762
-132.617
-1615.82
-1360.44
-1027.23
-638.574
-216.582
-1585.21
-1334.53
-1007.42
-626.062
-212.29
-2040.64
-1711.51
-1288.33
-799.546
-271.009
-2204.2
-1847.76
-1389.68
-861.571
-291.844
-2728.77
-2278.02
-1710.16
-1061
-359.821
-3336.57
-2763.02
-2066.36
-1283.22
-435.997
-4070.97
-3325.08
-2477.89
-1549.19
-529.729
-5742.31
-4586.24
-3422.51
-2189.25
-760.404
-5860.8
-4550.72
-3452.98
-2347.44
-885.537
-6887.99
-5246.4
-4053.92
-2901.38
-1142.92
-3615.6
-3019.51
-2268.29
-1408.37
-477.943
-4135.24
-3434.23
-2573.52
-1599.52
-543.819
-4294.22
-3538.53
-2646.38
-1651.31
-563.998
-4134.34
-3364.56
-2515.04
-1586.79
-547.818
-3380.43
-2699.89
-2029.28
-1318.37
-471.435
-2973.02
-2325.7
-1764.84
-1190.73
-441.714
-314.132
-512.892
-885.212
-1393.22
-2005.08
-2634.15
-228.787
-507.509
-1029.77
-1752.27
-2602.63
-3477.72
-246.191
-111.658
-464.597
-293.353
-876.16
-652.897
-1427.93
-1225.29
-2014.56
-2015.77
-2547.63
-2920.08
-3308.5
-4044.93
-4963.23
-6999.36
-7444.37
-9001
-4269.99
-4821.04
-4960.25
-4768.78
-3984.37
-3652.94
-283.674
-240.185
-182.313
-113.761
-38.6566
-462.979
-391.826
-297.293
-185.455
-63.0105
-798.47
-675.197
-511.91
-319.169
-108.414
-1255.33
-1060.26
-803.024
-500.343
-169.904
-1803.71
-1520.85
-1150.31
-716.189
-243.133
-2363.48
-1987.68
-1500.65
-933.638
-316.918
-206.534
-174.826
-132.67
-82.7681
-28.1199
-457.937
-387.414
-293.849
-183.263
-62.2559
-928.439
-784.747
-594.745
-370.729
-125.912
-1577.97
-1332.05
-1008.46
-628.214
-213.31
-2339.55
-1971.28
-1490.28
-927.708
-314.94
-3117.63
-2619.79
-1976.93
-1229.88
-417.529
-222.435
-188.41
-143.068
-89.3045
-30.3574
-100.91
-85.4988
-64.9413
-40.5463
-13.7856
-419.599
-355.285
-269.692
-168.299
-57.1983
-265.005
-224.459
-170.437
-106.384
-36.1599
-790.74
-669.039
-507.501
-316.535
-107.544
-589.411
-498.872
-378.544
-236.156
-80.2423
-1287.35
-1087.95
-824.407
-513.825
-174.509
-1104.95
-934.094
-708.003
-441.344
-149.901
-1813.33
-1529.88
-1157.64
-720.909
-244.749
-1814.95
-1531.7
-1159.27
-721.984
-245.118
-2286.64
-1923.66
-1452.57
-903.724
-306.732
-2622.62
-2207.6
-1667.49
-1037.45
-352.106
-2955.87
-2475.85
-1864.93
-1160.07
-393.979
-3586.58
-2984.19
-2242.2
-1397.36
-475.653
-4338.95
-3568.14
-2676.19
-1680.99
-576.075
-5957.65
-4794.59
-3604.03
-2317.75
-806.632
-6014.57
-4705.67
-3595.19
-2456.19
-928.744
-6949.84
-5311.36
-4116.71
-2953
-1163.82
-3812.09
-3191.03
-2402.77
-1494.61
-507.709
-4277.48
-3561.25
-2675.48
-1666.24
-567.112
-4359.2
-3601.1
-2700.37
-1688.81
-577.515
-4122.2
-3362.36
-2520.59
-1594.9
-551.517
-3339.22
-2671.3
-2013.7
-1313.38
-471.103
-2953.22
-2311.76
-1757.18
-1188.5
-441.655
-18988.8
-14165.7
-4322.55
-3318.12
-2821.26
-4267.4
-3091.31
-13112.6
-14080
-11655.6
-13407.5
-6960.69
-11106.6
-5020.13
-5298.6
-3686.99
-21131.9
-10797.6
-3359.03
-5387.45
-8035.2
-5320.04
-6298.04
-4782.24
-2326.41
-4077.22
-3717.03
-4091.15
-18993.9
-11930.1
-12255.9
-7721.76
-8074.38
-8301.16
-4316.65
-5265.15
-5411.2
-12634
-11799.2
-9820.86
-9365.47
-8119.3
-10045.2
-7377.48
-5963.95
-4781.28
-2094.53
-3830.49
-3183.98
-2390.88
-1489.63
-506.55
-2967.77
-2488.17
-1875.06
-1166.23
-395.921
-2519.31
-2108.79
-1587.22
-986.765
-335.118
-3824.36
-3212.19
-2422.79
-1506.68
-511.39
-2756.99
-2305.18
-1734.42
-1078.67
-366.442
-9531.51
-8441.62
-6980.66
-6273.37
-6107.78
-9781.27
-8828.48
-7137.74
-5867.76
-4324.75
-8930.44
-6670.58
-5258.57
-3904.68
-1673.95
-9671.89
-8218.9
-6457.38
-5140.6
-3133.77
-5880.93
-4692.36
-3507.46
-2256.9
-811.602
-8936.43
-6813.42
-5154.62
-3501.57
-1393.7
-4333.54
-3520.6
-2627.06
-1657.09
-576.901
-4556.26
-3689.2
-2751.64
-1740.02
-608.158
-3205.33
-2619.56
-1955.27
-1226.74
-423.601
-14944.8
-12543.6
-10437
-9330.75
-8104.17
-8605.01
-6640.59
-5141.5
-3648.58
-1499.31
-2893.49
-2348.21
-1755.58
-1112.34
-388.701
-4649.43
-3783.93
-2837.54
-1802.79
-629.448
-6753.41
-5388.14
-4068.66
-2668.79
-966.027
-4586.58
-3725
-2792.11
-1773.52
-614.713
-5508.97
-4524.56
-3391.66
-2129.12
-725.911
-4206.88
-3475.6
-2605.49
-1628.96
-557.14
-2049.42
-1694.39
-1268.38
-790.66
-270.129
-3619.58
-3013.72
-2262.93
-1408.26
-479.273
-3243.8
-2660.84
-1989.53
-1247.46
-429.607
-3589.1
-2958.63
-2216.66
-1387.89
-476.187
-12694
-11242.3
-9453.93
-8841.39
-7524.03
-8876.3
-6624.98
-5274.35
-4041.28
-1755.8
-10004.4
-8168.04
-6489.87
-4981.41
-2164.3
-6370.4
-4861.86
-3710.13
-2517.54
-802.711
-6850.07
-5449.67
-4099.07
-2652.62
-898.17
-6857.15
-5222.71
-3987.43
-2706.82
-850.46
-3771.15
-3097.6
-2322.91
-1460.86
-501.744
-4662.74
-3873.71
-2906.83
-1810.48
-616.384
-4704.69
-3847.37
-2880.64
-1814.41
-624.447
-420.51
-1162.98
-1799.38
-2406.05
-3026.9
-3599.05
-2496.17
-6417.78
-5983.73
-2486.9
-7318.92
-6671.11
-7763.82
-10421.6
-1415.94
-163.564
-2670.79
1389.67
-10438.9
-8807.05
2141.18
-1810.11
-5048.13
-4808.01
-1899.87
-5541.38
-3129.83
-6138.54
-6301.47
-618.645
1007.61
-1129.89
3709.98
-7264
-4765.37
4133.65
-1100.48
-3387.03
-3460.82
-1285.75
-3388.29
-450.733
-4497.24
-4462.66
-155.218
1199.15
153.548
3857.12
-4348.03
-394.223
4674.13
-718.125
-2372.24
-2736.8
-966.611
-1747.8
965.439
-3720.2
-4129.03
61.666
857.381
516.649
3195.83
-3215.94
1711.25
4421.95
-609.938
-2204.56
-2585.77
-874.135
-1598.81
666.681
-3923.79
-5355.65
141.308
636.016
619.293
2718.36
-3079.91
1671.31
3003.67
-584.211
-2161.48
-2504.92
-841.285
-2015
-168.021
-3832.98
-5267.36
185.695
984.579
499.075
2778.81
-3662.36
644.84
2168.44
-1321.07
-3126.52
-4283.54
-1752.16
-6451.02
-11587.4
-7115.57
-12603
-1600.87
-1413.7
-5166.78
-4321.09
-2212.08
-9330.71
-4647.3
-1285.55
-3028.29
-3798.74
-1505.98
-6070.79
-9834.2
-6348.57
-9134.79
-1657.77
-1299.56
-5000.77
-4101.71
-1573.64
-8576.4
-4505.72
-1174.79
-2789.66
-3120.95
-1200.37
-5428.63
-8455.86
-5273.44
-7966.33
-1405.01
-1650.94
-4342.21
-4819.66
-1870.61
-7538.07
-5018.72
-1159.19
-2995.22
-2828.2
-1040.79
-5662.33
-8138.6
-5116.06
-7698.88
-1441.81
-1995.32
-4400.14
-5789.97
-2380.61
-8147.88
-5947.87
-1152.06
-2936.98
-2746.14
-989.664
-5499.33
-8640.03
-5075.04
-8403.24
-1538.56
-2507.24
-4655.72
-7224.78
-3384.76
-9502.99
-7549.33
-1155.28
-2909.84
-2692.92
-969.149
-5553.13
-8817.19
-4929.53
-8266.64
-1715.56
-3099.54
-5095.9
-8185.58
-4518.83
-10429.5
-8379.91
7681.55
9314.94
19089.1
29846
28916
56384
19929.2
59946.9
20531.8
48035.3
25267.6
41576.4
19329.5
25573.8
8952.32
9083.01
13817.6
15759.4
18795.5
17096.7
13016.2
19590
19355.9
19370
5104.58
3764.35
6877.98
4965.12
12611.2
8304.07
23181.6
16280.5
19294
19670.4
19758.5
20241.5
4702.17
4089.72
44702
55259.2
23850.1
31778.6
57369.7
70625.9
26591.2
32721
33618.1
43924.9
26877.3
37143.9
15519.2
19585.1
3028.25
974.032
3852.99
1349.86
7223.77
2989.17
12405.8
4576.9
8275.62
2748.25
8215.22
2334.77
16089.3
4701.65
21051.7
6623.71
26870.4
15453.3
22659.5
15661.6
27282.6
17604.9
21614.7
17404.3
17738
12818.4
19560.7
12445.1
21992.2
16159
22730.3
16553.9
21175.3
17722.6
22006.6
18052.7
18256.3
13507.3
19659.6
13983.6
19590.2
8112.65
11282.4
12963.7
21137.4
9412.97
11283.7
13681.9
19605.9
7535.5
11753.6
12706.9
20259.1
7570.88
12325.9
12783.7
2932.19
3303.33
1045.43
2096.49
8975.34
10561.2
3752.44
7240.01
14643.1
17402.1
6768.99
12228.9
18039.7
9423.45
18703.6
22857.3
11709.6
6760.46
10846.7
13018
23234.3
15336.3
10653.6
14124.7
15863.4
15605.6
19634.8
3164.98
3226.1
1961.16
2117.66
10151.1
9537.6
6702.21
6743.92
15203.8
13699.5
9917.28
9884.27
9842.86
10953.6
15531.5
16490.7
17857.4
16766.7
21500.8
19602.8
15299
15212.3
13437.3
14319.6
17383.5
15523.3
16552.7
13514
15026.1
11725.5
17070.3
13389.6
14508.6
7386.72
11446.5
10917.3
15972
18285.7
16319.8
21041.3
9713.71
9367.3
13218.7
5521.87
11129.7
17322.2
11565.1
18586.7
16595.8
25883
17200.8
26593.6
9514.86
15353.2
9907.49
16731.8
11774.1
8539.83
15310.6
6686.56
12654.8
4221.47
14458.1
2989.53
12310.1
12452.4
16077.5
8168.78
11162.2
14440.3
14810.6
10452.6
2942.34
2697.94
2275.26
1944.12
1882.07
1619.68
8639.32
7277.78
6199.46
5745.82
4688.04
3861.89
11200.8
9230.17
8263.07
8291.79
6467.66
5702.14
9660.68
7534.85
6985.58
15225.6
10891
8592.14
14021.4
9884.21
7405.98
15771.1
11938.5
9759.44
12684.2
8348.35
5997.07
18076.6
14223.5
12288.3
13487.3
10291.1
8227.41
12167.8
8788.57
6632.53
11120.8
7981.03
6056
12397.1
7185.78
4254.74
11803.3
19141.3
10078.6
14335.9
9737.84
19931.9
8201.45
16382.4
174.861
1586.29
-222.328
939.05
3525.06
6706.54
2221.49
4110.27
1893.07
3946.98
11174.6
16547.5
8761.2
6642.15
12035.7
10535.3
16322.7
17497.3
-561.22
-5685.79
8560.17
5979.97
6723.85
3861.3
1433.36
931.461
1171.89
737.435
3890.49
1207.79
1982.23
271.823
10002.6
2916.64
7625.15
2350.65
8682.6
2608.46
9819.3
3205.25
12600.6
12328.1
9787.94
12178.8
19361.2
17315.8
15816.8
16411.8
7127.22
9193.12
8322.85
8510.99
9157.17
12070.9
9623.11
12166.9
15091.9
16051
15640
16150.4
6294.2
9297.74
6083.47
9396.94
635.094
1231.37
7176.15
3747.56
618.69
993.062
6285.69
3151.39
640.165
1108.84
7564.12
4132.97
939.357
1222.33
7626.95
4357.81
-190.326
-326.396
430.819
268.21
-909.367
-1439.49
702.229
392.646
1028.65
-29.7191
2354.34
1962.44
-7530.95
-3811.71
-4461.52
-3071.52
-134.926
-7060.91
-10234.6
-4826.94
-4958.4
-168.138
9684.8
6957.16
5513.07
5486.45
2978.16
-506.876
-406.563
121.157
184.017
-1507.1
-1609.35
389.23
510.44
-1341.55
-1832.37
1185.3
1350.63
-2941.03
-1334.06
-7798.88
-5310.21
-4160.41
-2866.14
-3856.97
-3113.61
48.2359
650.485
5164.22
3628.3
-338.854
-1932.12
-665.523
-1797.74
218.504
-775.157
497.854
767.575
4101.1
4473.98
9601.39
6066.2
8786.77
8406.73
13091.4
10130.6
7126.42
4314.06
2389.56
3045.79
11342
4819.38
12167
4473.95
15019.4
9799.2
16009.4
9472.47
8589.67
3131.12
9331.11
2708.02
5075.16
3988.23
3509.02
6238.56
2395.38
3189.39
2201.37
5192.63
5599.87
3670.28
4309.76
7175.63
6834.48
3422.29
5202.79
7048.51
-489.581
-580.858
-658.95
104.503
-126.392
-158.724
-1807.33
-2050.83
-2160.1
180.853
-487.129
-576.826
-2216.48
-2945.86
-3242.47
699.752
-860.376
-1169.34
-557.903
-1122.02
-994.979
-3817.91
-4033.33
-3696.11
-2967.08
-3381.28
-3235.05
-3211.42
-3831.45
-3892.32
331.811
-1247.63
-1161.99
4263.45
2168.45
1284.91
-901.376
-1980.36
-2332.67
-1228.02
-2312.36
-2583.2
-783.982
-2051.27
-2307.32
1396.46
-827.896
-966.536
69.3985
0.394294
-20.506
-42.5432
-78.697
-73.9868
-86.2842
-76.1127
191.83
6.93535
-66.2452
-125.47
-190.688
-181.114
-198.301
-182.622
366.928
60.2958
-59.8717
-194.73
-9.339