/*--------------------------------*- C++ -*----------------------------------*\
| =========                 |                                                 |
| \\      /  F ield         | OpenFOAM: The Open Source CFD Toolbox           |
|  \\    /   O peration     | Version:  2412                                  |
|   \\  /    A nd           | Website:  www.openfoam.com                      |
|    \\/     M anipulation  |                                                 |
\*---------------------------------------------------------------------------*/
FoamFile
{
    version     2.0;
    format      ascii;
    arch        "LSB;label=32;scalar=64";
    class       volScalarField;
    location    "1.5";
    object      gradTy;
}
// * * * * * * * * * * * * * * * * * * * * * * * * * * * * * * * * * * * * * //

dimensions      [0 -1 0 1 0 0 0];

internalField   nonuniform List<scalar> 
5712
(
13482.9
7409.83
23428.2
15371
22583.5
19245
33143
41217.8
50522.3
64170.9
26827.7
23619.3
16505.7
11398
10918.5
6219.27
22234.3
19777.9
20175.1
19812.4
25493.4
24237.5
29595.6
25261
7886.44
5460.79
4118.36
2845.84
11434.5
7313.04
6355.41
4121.68
22907.3
24112
20369.6
16307.1
16339.3
12900.3
13940.1
13340.1
18538.5
18276.6
38071
41995.7
27062.2
28704.4
19868.3
15647
20111.8
14088.7
8550.5
7410.62
6487.47
9979.03
3236.46
4496.3
8586.48
13253.5
5424.8
7548.34
8705.41
15817.7
6675.22
11161.7
2063.78
7459.1
344.837
5322.2
18725.3
22591.9
19856.5
22483.3
23559.5
23876.8
24231.7
23454.4
17876.4
21646.5
17719.9
21277.6
19988.4
22386
19660
22281.5
24537.6
23214.5
24617.1
23081.8
16838
21714.5
15373.4
21638.5
18827.1
20445.8
23701.8
33701.9
19755.2
23793.7
23616.7
37122.1
17792.8
18026.5
23539.1
31848.8
17095.9
16517.2
23491.4
30949.1
5046.26
6466.25
13820.4
22915.6
6003.02
6801.17
16973.2
25509.7
7070.58
7391.93
20610.3
28429.6
25765.3
28040.2
22144.9
20602.4
28846.6
28504.1
24990.5
22078.6
18921.8
32963.5
26107.7
24355.7
20755.4
21881.2
42365.5
1766.97
2334.34
4884.03
10293.4
2488.88
3497.59
6388.02
11834.9
3706.65
3578.98
8465.66
13851.2
27591.4
27148.8
23137.8
21827.3
19878.2
17376.7
14665.7
12814
11736.4
17697.4
24433.1
21789.4
22799.5
21125.7
19503.3
17787.1
17130
14947.6
13867.6
19148.1
23594.3
25029.7
24492.3
26812.8
23543.4
21645.9
23971.9
22893.5
21632.7
21803.9
21298.4
21073.6
24937.3
27478.1
24779.3
27238.9
24330.8
23882.8
24085.3
23734
21422.5
21626
21706.4
21799.2
18805.8
18522.6
13024.5
15578.3
18993.5
18249.2
13474.3
16249.7
18255.5
18228.9
12833.8
15530.2
18407.2
18015.8
12692.4
15130.1
1957.81
1555.07
1123.57
1056.29
883.177
869.202
2962.7
2017.61
1534.69
2479.87
2171.09
1835.79
3072.51
2850.77
2964.27
4483.05
3794.78
3400.74
25318.9
21896.6
19635.3
21324.6
19482.6
18083.9
14697.5
13725.4
13185.3
10651.5
9825.23
9406.85
7311.96
5199.78
4121.44
20031.8
17943.6
16529.1
20227.6
18313
17204.8
15215.7
13124.8
12011.1
11130.1
9520.37
8772.11
7596.04
5398.7
4289.37
29227.8
30100.9
31239.7
28523.6
28712
28496.2
34418.5
29431.2
18530.4
20207.5
18517.3
18136
24612.2
21464.1
24163.5
18966.2
26651.6
27673.3
22722.9
25350.3
29547.3
26130.4
29769.8
30984.8
31691.9
34063.4
25578
26285.7
22165
21879.2
25280.4
24454.7
16834.3
9690.3
15817.8
10706.4
16355.4
9498.48
15256.7
10381.4
14946.9
8786.96
14180.4
9863.04
13954.8
10238.9
13415.6
10222.4
22953.3
17905.1
22616.8
18124.2
25757.2
22861.5
25984
22604
20806.6
14190.4
21498.2
13647.2
23135.1
18248.3
23806.1
18245.8
26705.8
22540.4
27224.1
22486.6
20313
14413.1
20200
14436
12351.4
8594.08
10774.1
7052.08
11352.6
7694.85
10037.7
6469.58
12664.9
9103.25
11106.7
7383.36
12756.7
9430.39
11199.2
7576.55
2742.55
1491.77
5205.85
3069.98
2827.01
1703.46
5275.72
3356.54
3056.07
2242.81
5220.87
3810.72
13388.2
22588.1
8717.98
7923.51
5830.79
23062.5
14690.1
8222.18
7323.1
4593.25
22275.5
15985.1
11664
8562.2
5549.55
1038.9
960.663
2177.03
1978.39
1279.55
986.92
2581.55
2304.7
1785.02
1506.47
3076.15
2733.97
23255.8
21795.9
14626
13022.9
9104.88
8450.81
6974.09
6420.1
4238.16
3791.66
20277.7
17087.8
14608.7
12248.1
10825.8
9525.96
7688.7
7073.08
5117.27
5412.05
13873.1
10659.8
14065.1
10079.3
17944.8
13047.4
18308.2
12905
11334.2
8796.69
11191.8
9359.91
14586
9639.56
14741.8
9775.86
19277
13304.3
19268.7
13438.9
11433.5
8286.2
11642.2
8646.52
8120.05
7104.44
5607.9
6989.58
8213.91
7421.59
5697.38
6871.8
8094.19
6916.76
5472.66
7283.81
8514.91
6999.89
5684.32
7211.8
1938.35
1516.18
1170.52
7017.56
3443.05
2617.49
1808.57
1642.91
1373.96
7425.29
4040.11
3220.71
2258.95
2322.75
2284.7
7922.54
5021.12
4333.8
18923.7
16538.9
14989.9
11733.1
10577.3
9889.8
8262.82
7596.17
7253.16
7018.8
6368.19
6066.4
9237.75
6601.59
5805.1
14046.1
12126.2
10923.8
10338
9027.83
8293.17
8815.96
7598.69
6819.94
8155.98
6983.78
6367
11991
8234.25
7353.49
5274.92
3078.23
2043.22
1586.73
5863.93
3295.21
2118.05
1631.98
5131.29
3038.16
2040.79
1604.44
5823.87
3305.37
2147.38
1656.41
4874.79
2984.72
2079.46
1606.28
5664.63
3337.15
2224.88
1664.73
5920.96
3459.14
2215.54
1714.96
6072.01
3589.47
2283.22
1758.44
5167.77
3152.47
2164.41
1641.64
4321.94
2836.31
2047.49
1531.76
4547.85
2888.85
2083.9
1532.88
3938.02
2659.53
1970.8
1464.6
5536.71
3345.91
2222.97
1700.93
4565.19
2976.17
2102.68
1570.57
5747.28
3485.95
2284.51
1733.59
4707.96
3082.07
2158.76
1593.91
4089.47
2716.5
1935.3
1503.53
2889.45
2297.59
1796.3
1383.45
3980.38
2682.68
1938.45
1505.57
2878.96
2295.5
1797.4
1389.87
3815.52
2633.91
1955.45
1505.3
2950.28
2328.95
1808.9
1410.83
3656.93
2560.64
1935.11
1499.44
2985.87
2344.41
1849.09
1420.69
3444.01
2486.44
1872
1407.2
1651.08
1912.07
1469.46
457.301
282.535
1707.91
1317.2
431.223
1797.51
1968.48
1496.45
481.125
493.147
1772.62
1338.63
439.025
2036.44
2055.16
1519.81
478.573
824.731
1878.87
1363.47
441.81
2385.23
2167.13
1564.22
510.433
1232.53
2014.63
1408.21
459.007
2894.05
2321.78
1640.5
570.867
1695.96
2151.18
1452.6
473.141
3264.76
2512.25
1687.84
541.803
1720.6
2321.45
1546.99
493.665
3197.64
2427.42
1650.87
542.912
1750.69
2254.77
1496.42
480.997
3266.72
2574.2
1712.71
512.531
1650.87
2379.82
1580.94
493.522
3256.12
2647.44
1769.96
524.704
1783.57
2454.62
1628.35
505.094
1277.3
882.745
564.764
311.277
99.0612
1285.9
884.995
565.723
311.71
99.1867
1300.2
890.301
568.074
312.709
99.4615
1306.42
893.929
569.974
313.61
99.7266
1312.59
898.181
571.735
314.305
99.9082
1312.37
906.495
576.437
316.574
100.582
1358.89
924.527
585.78
320.999
101.881
1382.57
941.04
595.028
325.479
103.205
1350.41
916.036
580.383
318.269
101.059
1373.94
919.584
581.036
318.408
101.081
1320.85
906.809
575.649
316.02
100.391
1361.4
913.95
578.164
317.043
100.674
1370.28
926.446
586.041
321.003
101.87
1390.55
929.569
586.499
321.054
101.868
1387.34
943.686
596.044
325.888
103.32
1409.88
946.188
596.208
325.824
103.29
1265.89
880.222
563.711
310.805
98.9247
1272.53
879.34
563.094
310.515
98.8403
1280.28
886.212
566.225
311.853
99.2108
1286.16
884.823
565.326
311.429
99.0892
1301.1
894.157
569.496
313.219
99.584
1313.87
892.717
568.399
312.689
99.4308
1331.81
903.134
573.192
314.793
100.019
1343.54
900.659
571.767
314.123
99.8198
1349.61
909.113
575.867
315.979
100.358
10042.8
15639.8
10506.1
15963.6
11273.5
16490.5
12189.2
17522.1
13133.8
19330.7
11776.5
14512.5
12233.1
15776.2
11636.9
14227
11466.4
14137.5
8115.25
1459.04
322.647
72.8983
12.9031
9669.81
2681.51
656.031
149.544
26.2368
8261.84
1433.56
311.305
69.7163
12.2728
9813.53
2683.7
648.374
145.935
25.5211
8526
1425.21
301.96
66.7653
11.6784
10099
2703.87
641.794
142.815
24.8065
8832.79
1407.3
290.81
63.7026
11.1133
10464.1
2727.39
637.654
140.92
24.4129
9040.79
1384.47
284.36
62.6338
10.9983
10755.7
2737.57
639.422
142.119
24.7668
8557.9
1559.63
355.974
83.4116
15.182
9608.76
2768.58
699.851
164.733
29.8297
8808.37
1495.14
324.964
73.7813
13.1763
10094.6
2769.54
672.907
153.556
27.2322
8413.01
1600.49
375.923
89.9239
16.5894
9420.9
2765.93
714.347
171.503
31.52
8324.37
1570.47
370.452
89.3503
16.5953
9321.17
2731.55
710.277
171.879
31.7686
36979.3
51829.6
46312.1
34696.5
19268.4
20260.6
30714
30880.3
20818
22299.1
33295.6
44539.9
49315.7
67171
25085.5
27624.3
20207.5
19748.7
13985.1
14398.6
4043.29
2786.93
605.606
452.524
552.75
463.264
586.491
3931.92
3900.61
2443.43
3225.92
2842.79
1274.31
1853.58
1564.24
1024.76
1175.06
957.627
3439.1
1906.77
1132.51
1036.29
1317.51
1123.79
850.362
844.32
766.001
680.728
911.988
853.231
3573.93
2206.47
2354.67
1577.58
1288.04
1873.6
875.86
667.68
984.138
8412.49
8540.35
8519.86
10181
17139.5
6174.97
6877.35
7296.54
8375.97
9675.39
1585.58
2247.44
2739.84
3070.88
3239.98
1194.1
1712.49
2107.32
2373.51
2508.2
1454.34
2075.8
2541.8
2851.27
3006.28
1222.72
1753.82
2157.45
2428.08
2564.22
1538.95
2188.18
2672.38
2995.12
3158.03
8591.18
9051.46
8741.59
9633.13
15315
8240.83
8401.79
8143.97
8621.47
10180.1
5579.91
6400.83
6696.1
7209.59
7824.25
6925.46
7271.21
7112.61
7279.95
7924.14
6187.02
6644.25
6520.54
6615.3
6998.59
3153.58
4109.99
4688.97
5075.85
5304.48
4365.54
5275.53
5701.24
6059.31
6363.29
3759.97
4678.32
5139.11
5446.7
5648.93
2598.2
3508.42
4105.26
4486.12
4685.22
2931.01
3861.46
4431.17
4791.76
4987.48
2444.53
3333.12
3926.31
4300.08
4489.16
7680.4
8368.15
8314.99
9407.86
15095
4540.01
5552.33
6090.46
6671.22
7193.19
2850.87
3809.89
4433.51
4854.94
5093.97
2632.45
3566.22
4196.49
4625.32
4863.67
3269.61
4275.34
4911
5391.25
5704.05
2843.2
3824.58
4483.26
4952.82
5222.46
2192.1
3035.13
3636.03
4048.15
4267.68
2179.23
3022.95
3621.39
4021.58
4230.75
1989.5
2784.14
3350.95
3717.11
3899.81
1777.63
2508.51
3041.95
3391.8
3567.17
2339.45
3214.78
3816.02
4205.83
4406.93
2200.52
3048.63
3645.04
4037.53
4240.45
7716.67
8157.09
8178.46
9591.46
15717.5
5091.61
6007.62
6560.08
7405.47
8289.49
5834.38
6999.66
7323.34
8317.72
9457.92
3875.32
4958.7
5633.34
6267.55
6703.44
3229.07
4271.46
4952
5480.47
5798.07
4547.47
5615.02
6163.75
6828.18
7277.4
2254.9
3116.03
3724.88
4138.22
4357.81
1742.92
2458.89
2983.66
3331.72
3508.22
2512.65
3429.05
4058.94
4488.37
4722.74
20067.5
13110.5
21241.9
16091.9
25535.9
36442.9
27294.7
38050.2
22173.6
21596.5
19625.7
20256.3
23222.6
22951.2
28726.1
24461.3
15530.1
13771.8
6945.05
5540.48
18084.7
14529.7
9616.73
6472.49
23325.6
25647.9
21264.9
18865.5
22345.3
14905.2
13875.3
13376.4
18713.8
18335.1
38144
42088
26756
28645.2
20431.3
15802.6
20787.2
14233.5
9070.8
7513.81
14601.2
17561.8
5898.12
7164.12
15614.9
19607.3
7916.77
10036.2
13580
19889.8
8468.2
13074.7
2372.99
8141.99
368.455
5455.99
19513.5
21358.7
19809.7
21842.9
22306.4
22109.3
23429.7
22500.8
18571.3
21426.8
19932.3
20822.2
19923.8
22066.4
19631.2
22178.3
24146.2
22736.9
24509.7
22929.5
17071
21601.9
15415.3
21600.1
19477.7
21549.1
23868.6
33981
20841.9
25807.4
23932.1
37673.6
18098.5
18538.5
23611.7
31979
17177.9
16656.5
23509.8
30988
19557.4
22295.8
25855.9
36583
18624
20084.6
26666.7
36282.1
16200.5
16701.9
26833.4
34770.5
19703.4
21366.2
20423.8
21174.8
31605.8
20950.5
18518.9
21478.6
19564.2
36106
21138.1
20371.3
19167.4
22373.5
43356.3
13834.4
13171.7
11601
14641.7
13458.4
12959.9
11839.1
15157.6
12358.4
11201.6
11710
15247.8
20418.7
19670.3
17903
16983.8
19424.9
17729.5
15499.8
13718.5
12982.4
17359.3
20287.5
18830.1
19571.1
18948.9
18103.5
16769.9
17280.2
14841.3
13957.4
17893.4
21884.7
23490.5
23541.9
25859.7
21552.7
20181.2
22909.9
22065.3
21073.2
21167.2
20336.1
20080
24493.7
27054.1
24648.7
27114.8
23839.5
23526.7
23941.8
23630
21148.1
21309.9
21625.2
21709.5
18577.8
18162
12968.3
15362.2
18714.8
17745.1
13465.9
15864.2
18125.5
18030.5
12785.3
15407.7
18362.4
17952.2
12671.9
15087.5
12675
13705.9
4901.96
5025.79
12342.9
12413.9
5636.07
5857.91
9933.32
9627.1
6169.06
5981.52
18963.9
17860.4
17304.7
16965.3
15666.3
15059.2
11671.9
10646.6
7813.45
6016.75
18474.1
17543
19480
18382.2
15020.2
13593.5
11405.1
10120
7041.03
5397.88
24399.2
24223.6
29019.4
25805.6
26053.6
25026.6
34352.5
28009.6
19837.1
15489.1
21356.1
16669.7
20708.8
15524.6
22232.8
16632.2
23078.2
21204.3
20145.1
19414.9
21284.8
22722.8
28446.4
30590.5
30959
33846.1
23896.6
25767.8
21003
21549.9
23500.8
23925.1
12927.3
10351.2
13991.6
10748.5
12569.1
10079.5
13644
10437.1
11903.7
9289.83
12873.5
9841.64
13195.5
10149.1
13185.1
10181.5
18923.9
16729.5
20732
17309
22629.1
20819.5
24488.5
21459
18869.3
13839.3
17483.7
13420.9
22216.4
17788.1
23532.8
18092.6
25976.3
21951.1
27011
22297.1
19382.5
14167.1
19929.6
14346.4
11872.8
8864.13
10895
7463.78
11098.7
8550.01
10603.1
7355.24
12329.1
9171.44
11106
7573.11
12639.4
9434.66
11193.9
7643.58
11212.8
11532.9
9587.11
9226.44
10688
11152.3
9248.76
8898.17
9972.94
10312.9
8410.52
8008.32
16612.6
20886.6
14589.7
10269.3
8113.07
20314.4
17687.6
16019.8
10376.2
7668.21
20275.8
16489.6
13258.7
10615.5
7349.68
12941.5
15100.4
9725.34
10859.5
12197.6
13698.9
9153.69
10053.6
10859.7
11616.1
7849.32
8051.74
19549.1
17988.9
15784.9
14538.1
14432.7
14608.5
10559.7
11022.7
7518.76
7509.55
18145.6
15396.5
14734.9
12502.7
12412
11348.5
9996.83
9686.5
6974.39
7576.01
13615.9
10832
13882.8
10228.4
16725
12424
17623.2
12622.1
11560.9
9246.68
11699.9
10196.3
14448.1
9696.71
14690.5
9787.06
18926.3
13174.3
19161.1
13400.6
11480.2
8454.23
11628.6
8680.28
8549.85
7701.68
6100.56
7768.57
9167.1
8616.92
6715.25
8340.87
8252.29
7162.61
5697.04
7676.1
8567.69
7077.54
5773.04
7336.24
19181.3
20041.4
22750.5
19150.9
16712.1
17456
21313.5
18042.4
13623.7
14143.1
18394.2
15833.5
16502.9
15466.8
14058
13648
14935.6
14952.4
12420.6
11967
17390.7
15226.2
12954
12341.4
11122
10957.4
11210.6
10979.5
11648
11132
18260.9
15259.7
6591.64
3955.84
2554.79
1930.49
6772.78
4027.16
2580.99
1954.93
6333.7
3857.52
2509.21
1922.79
6601.1
3945.71
2550.1
1941.4
5904.74
3714.51
2489.5
1879.2
6244.27
3850.66
2562.84
1899.33
6250.69
3781.44
2449.55
1880.48
6178.64
3700.27
2361.46
1816.32
5704.21
3571.78
2435.88
1836.68
4811.23
3206.65
2275.79
1692.41
5459.64
3504.81
2442.62
1769.98
4744.58
3218.77
2284.77
1664.59
5817.26
3588.1
2387.55
1824.09
4828.76
3185.93
2245.7
1679.82
5830.74
3567.02
2342.64
1777.3
4793.91
3150.74
2208.58
1631.46
6210.94
3813.5
2520.92
1871.36
5626.77
3596.74
2458.44
1762.78
5913.65
3722.57
2490.93
1853.34
5341.2
3522.1
2429.23
1756.11
5481.33
3583.71
2462.96
1822.65
4945.54
3407.71
2376.89
1746.31
5047.91
3380.72
2366.68
1762.75
4666.04
3298.46
2342.72
1705.22
4639.67
3217.76
2264.97
1623.61
4626.12
3312.43
2098.84
610.817
2859.94
3126.64
1956.08
598.364
4438.26
3276.44
2096.48
633.291
2803.1
3095.58
1947.28
600.349
4163.07
3201.15
2053.36
612.821
2692.92
3037.48
1909.89
587.587
4129.22
3141.39
2044.48
639.451
2804.42
2990.3
1884.9
589.519
4169.68
3079.48
2044.3
690.257
2946.33
2925.33
1846.79
585.119
3707.09
2876.77
1953.2
635.058
2015.97
2675.65
1769.87
563.311
3989.19
2982.39
1995.99
652.073
2372.96
2801.85
1804.29
571.97
3481.25
2777.33
1878.43
573.168
1759.91
2574.17
1714.36
536.431
3311.12
2711.57
1825.37
545.285
1806.2
2515.05
1671.95
519.323
1518.08
1017.51
635.313
344.584
108.795
1511.49
1014.66
634.238
344.155
108.677
1529.46
1015.48
633.187
343.398
108.427
1510.12
1009.96
631.042
342.498
108.175
1523.87
1012.02
630.63
342.029
108.006
1477.38
999.926
625.558
339.818
107.381
1465.36
982.79
616.629
335.661
106.177
1422.59
963.795
607.172
331.272
104.906
1495.29
997.203
622.999
338.437
106.959
1518.53
1000.55
623.423
338.453
106.945
1507.83
1007.55
627.73
340.546
107.557
1542.63
1007.3
626.308
339.725
107.303
1468.45
984.759
617.129
335.787
106.202
1485.1
987.716
617.67
335.891
106.217
1420.33
963.423
606.69
330.977
104.816
1441.94
966.65
607.358
331.166
104.863
1527.74
1021.4
636.62
345.08
108.93
1559.21
1025.14
637.477
345.373
109.007
1534.59
1020.74
635.239
344.237
108.659
1566.1
1024.85
636.344
344.656
108.776
1544.27
1019.26
633.21
343.07
108.291
1581.96
1023.87
634.506
343.579
108.435
1559.68
1016.02
630.527
341.67
107.862
1593.8
1019.7
631.824
342.224
108.015
1557.89
1011.74
628.307
340.618
107.552
12106.8
16257.2
12064.1
16219
12097.6
16202.9
12490.3
16835.5
12996.6
18221.5
11692.6
14322.5
12119.3
15375
11583.8
14128.6
11450.4
14109.1
8777.78
1530.27
332.542
74.4107
13.101
10150.7
2785.13
674.711
152.624
26.6446
8769.68
1486.42
318.519
70.8085
12.4141
10128.5
2756.41
661.769
148.144
25.8123
8788.63
1450.11
305.154
67.2273
11.7346
10159.1
2728.83
647.044
143.703
24.9186
8872.72
1406.08
290.178
63.5519
11.0852
10299.8
2707.51
635.006
140.486
24.3426
8926.33
1366.65
281.231
62.0544
10.9076
10446.8
2690.97
631.719
140.763
24.5609
8468.33
1541.99
352.109
82.5845
15.0434
9487.37
2734.64
691.912
163.04
29.5479
8685.9
1473.35
320.675
72.9316
13.0397
9888.22
2723.03
663.48
151.721
26.9432
8359.98
1589.43
373.33
89.3373
16.488
9355.3
2745.98
709.286
170.358
31.3223
8307.37
1566.85
369.577
89.146
16.5594
9301.04
2725.24
708.609
171.487
31.7002
36566.3
51779.7
46222.6
33456.5
24894.3
29796.1
24657
29786
27947.1
43892
30219.6
47834.5
97.138
109.733
137.727
183.362
248.801
336.86
107.527
120.283
148.405
193.567
257.969
344.772
88.8012
84.6711
101.37
97.0844
129.753
125.376
177.611
174.575
246.919
248.618
341.924
353.46
450.181
605.371
834.421
1196.66
1563.52
1862.29
458.772
608.377
802.887
1038.68
1261.68
1412.04
259.906
380.72
477.507
544.939
579.544
293.383
429.286
537.87
613.335
651.991
367.811
537.225
671.937
765.182
812.823
488.869
712.197
888.604
1010.06
1071.92
661.793
960.673
1194.7
1354.82
1436.12
893.029
1289.82
1596.98
1805.75
1911.54
287.537
420.866
527.507
601.688
639.706
321.392
469.852
588.233
670.365
712.381
396.025
577.797
721.983
821.599
872.432
515.595
750.117
934.839
1061.8
1126.41
685.407
993.344
1233.73
1398.02
1481.45
912.804
1315.94
1627.08
1838.6
1946.01
237.644
348.258
437.016
498.928
530.719
226.595
332.122
416.873
476.028
506.405
271.106
396.913
497.609
567.685
603.606
259.666
380.255
476.871
544.157
578.653
346.648
506.658
634.144
722.511
767.687
335.004
489.798
613.273
698.929
742.727
473.737
690.644
862.294
980.604
1040.87
465.718
679.183
848.285
964.908
1024.32
657.038
954.353
1187.44
1346.96
1427.89
661.602
961.093
1195.93
1356.57
1438.02
906.702
1310.07
1622.38
1834.37
1941.55
937.169
1353.74
1675.77
1893.86
2003.86
1187.47
1702.37
2094.9
2360.35
2495.17
1583.92
2243.98
2736.56
3070.15
3242.12
2152.48
2987.48
3591.25
4010.51
4237.44
3011.31
4030.92
4735.24
5275.98
5608.63
3816.97
4908.09
5644.36
6311.61
6810.69
4441.66
5534.62
6265.64
7046.73
7706.89
1208.47
1729.24
2125.4
2393.89
2530.89
1590.81
2252.35
2746.54
3082.48
3256.61
2077.64
2898.35
3498.15
3912.83
4135.58
2651.39
3628.61
4326.53
4829.28
5117.37
3175.45
4264.33
5030.41
5615.82
5980.02
3519.78
4667.1
5469.79
6114.81
6539.52
98.917
115.214
147.582
198.617
270.657
366.445
109.394
126.011
158.508
208.754
278.933
371.85
90.4836
86.2997
106.64
102.218
139.414
134.869
193.069
190.044
269.924
272.127
375.251
390.226
487.324
648.193
878.072
1230.83
1583.64
1868.38
491.305
644.238
838.069
1067.62
1280.28
1418.37
264.665
387.728
486.379
555.14
590.431
308.143
451.13
565.559
645.208
686.053
394.367
576.582
721.907
822.784
874.429
530.038
773.374
966.493
1100.06
1168.3
720.922
1048.89
1307.47
1485.56
1576.39
973.357
1410.34
1751.92
1986.22
2105.68
292.547
428.266
536.89
612.49
651.244
336.827
492.726
617.267
703.823
748.157
423.268
618.224
773.38
880.91
935.903
556.605
811.124
1012.61
1151.74
1222.78
742.144
1078.06
1342.14
1523.8
1616.46
986.327
1426.3
1769.08
2004.09
2124.09
242.154
354.907
445.425
508.59
541.029
230.963
338.558
425.008
485.368
516.368
285.286
417.872
524.146
598.205
636.205
273.468
400.641
502.668
573.811
610.316
372.664
545.176
683.003
778.788
827.85
360.554
527.605
661.202
754.111
801.702
515.438
752.578
941.109
1071.63
1138.33
507.44
741.134
927.109
1055.93
1121.76
719.287
1047.25
1306.24
1484.72
1575.72
725.26
1056.21
1317.73
1497.97
1589.84
997.236
1446.02
1797.3
2038.25
2160.99
1037.18
1504.24
1869.88
2120.57
2248.17
1288.87
1855.81
2293.86
2593.69
2747.2
1702
2425.34
2975.05
3353.06
3549.67
2275.29
3181.34
3852.52
4326.7
4585.13
3112.23
4199.33
4972.31
5573.67
5943.23
3880.86
5021.61
5810.53
6528.37
7062.06
4462.59
5574.03
6325.27
7127.42
7803.01
1297.24
1863.55
2299.57
2598.18
2751.53
1689.43
2403.35
2944.61
3317.02
3511.29
2175.65
3051.14
3701.98
4157.54
4403.46
2733.67
3760.28
4506.19
5049.12
5360.83
3229.61
4353.35
5154.45
5770.52
6153.66
3538.52
4698.44
5514.1
6170.86
6603.06
4032.45
2789.33
659.477
496.253
623.33
518.334
651.458
3751.44
3602.24
2448.71
2940.23
1368.1
1886.31
1136.82
1301.54
1067.31
3375.46
1958.98
1227.04
1124.45
1397.43
1196.11
909.675
922.671
879.14
777.581
1014.42
944.998
3546.67
2222.81
2360.95
1617.41
1345.47
1918.04
945.709
745.241
1064.96
8415.25
8583.19
8602.76
10337.9
17448.8
6194.21
6925.75
7377.27
8498.45
9834.39
1734.31
2476.4
3041.73
3429.75
3630.51
1313.42
1893.11
2341.73
2648.66
2805.49
1647.92
2371.04
2927.98
3307.76
3501.69
1372.9
1980.88
2451.92
2773.74
2937.8
1717.89
2462.72
3033.26
3423.12
3623.28
8532.3
9575.23
9874.25
11520.3
18668.5
8246.5
9356.84
9904.68
11398.9
14281.8
5807.48
7077.88
7858.03
8887.31
9921.15
7163.49
8606.45
9215.46
10341.4
12009.6
3480.55
4732.83
5621.49
6287.29
6697.51
4646.66
6001.3
6889.67
7696.98
8333.73
2939.23
4094.26
4940.32
5536.45
5867.56
3333.27
4577.98
5471.24
6119.33
6499.46
2773.56
3892.13
4719.35
5293.53
5603.56
7702.58
8718.71
9032.36
10581.9
17206.6
4764.48
6037.94
6868.63
7743.37
8479.14
3145.34
4327.32
5182.06
5806.5
6171.76
2895.09
4009.31
4823.32
5410.64
5745.19
3525.98
4738.54
5594.87
6276.68
6719.79
3059.61
4191.49
5005.04
5610.17
5962.37
2360.61
3304.55
4003
4495.71
4761.82
2402.28
3380.64
4109.55
4617.34
4888.93
2305.38
3278.01
4011.95
4513.97
4775.3
2044.99
2920.17
3585.61
4040.15
4274.85
2638.84
3709.16
4504.13
5056.82
5354.49
2463.37
3473.15
4227.18
4750.12
5029.11
7742.37
8315.84
8465.08
10071.2
16648
5163.06
6158.96
6798.53
7740.34
8701.93
5947.17
7312.79
7853.15
9105.46
10455
4005.8
5197.34
5989.05
6736.05
7242.46
3405.54
4577.71
5394.39
6045.99
6438.99
4730.22
5994.05
6759.39
7646.59
8242.39
2454.5
3437.55
4165.3
4677.44
4954.58
1958.09
2792.38
3426.17
3860.64
4085.87
2749.1
3820.46
4605.94
5167.89
5481.41
7183.11
6735.61
6030.95
5106.45
3785.05
1495.39
20033.8
21301.1
22647.7
23369
21530.8
21671.7
21732.5
22171.4
17641.4
20657.2
19943.6
20574.9
26604.7
18331.7
29200.7
18784.3
20116.1
21188.5
21481.1
20607.1
21772.3
20701.9
21790.3
18208.3
27367.9
20498
26563
27581.6
22405.4
33758.1
17396.2
18540.6
19143
19043
19352.9
21073.8
19179.2
20942
20517.1
26294.1
23011.3
25881
28703.2
25144.3
32286.6
16045.3
17093
17167.2
16851.7
18214.3
20513
17592.8
19935.1
18563.5
24064.7
20662.5
22835.5
25114.1
22060.4
28838.8
14728.7
15791.1
15621.8
15251.5
17182.8
19861.9
16074.9
18300.7
16358.3
19425.5
18459.6
18114.1
21723
18446.1
22949.9
13504.1
14531.7
14408.8
14034.2
15642.5
17754.3
14856.3
16724.3
14003.2
15499.9
15980.8
14954.4
18912.5
15335.6
19764.7
22628.2
22700.6
23663.2
24781.7
23209.2
23781.8
22600.2
23318.6
19314.5
12363.4
20443.4
12180.7
20525.8
16842.7
17476.8
21501
21890.6
21879
22462.8
22426.1
23101.4
21281.9
22182
17023.1
12260.5
17785.1
11964.4
17609.2
15755.1
16078.4
18677.7
19096.5
19388.6
19487.8
19788.4
20366.3
19319.6
20585.3
15500.8
12729.8
16370.5
12148.9
16842.3
14102.8
16398.9
15909.7
16469.6
17022.9
16830.6
17350.9
17933.7
17488.1
18846.7
13374.8
13281.7
14281.9
12510.4
14850.2
12512.4
16731.8
14052.1
14731.2
15289.4
15016.7
15727.4
16816.7
15775.7
16996.5
12190.9
14171
13447.4
14070.1
14629.9
13434.9
18367.6
12489.2
13252
13990.7
13684.8
14708.3
16243.7
14488.1
15929.6
11715.5
15042.8
13362.8
15636.7
15065.4
13970.6
20066.4
13187.5
7109.83
23410.4
15326.4
22579.1
19229.5
33137.4
41206.4
50517.6
64153.9
26834.5
23609.3
16512.5
11376.1
10551.3
5876.75
22229.2
19775
20169.3
19809.8
25489.7
24235.2
29590.7
25258.8
7703.98
5366.3
3989.49
2788.05
11425.3
7305.85
6355.85
4126.3
22901.9
24105.3
20366.6
16304.8
16335.5
12901.2
13938.3
13339.4
18537.2
18275.9
38069
41994.6
27060.8
28703.4
19867.9
15647.2
20111.3
14088.4
8550.45
7410.63
6375.49
9788.87
3164.91
4378.47
8591.06
13265.2
5434.99
7562.42
8708.17
15823.5
6679.24
11166.9
2064.35
7460.98
344.834
5322.83
18723.9
22591.1
19855.5
22482.8
23558.1
23875.9
24230.5
23453.7
17876.2
21646.3
17719
21277.3
19987.7
22385.6
19659.5
22281.2
24536.7
23214
24616.3
23081.3
16837.8
21714.4
15373.2
21638.5
18827.7
20448.1
23702.4
33703.1
19755.8
23796.5
23617.4
37123.6
17793.3
18027.8
23539.6
31849.7
17096.3
16518.1
23491.8
30949.9
4984.45
6419.75
13631
22748.6
6013.11
6812.25
16989.5
25531
7074.73
7396.13
20617.5
28436.1
25764
28039.2
22143.2
20602.9
28849.9
28503.2
24989.2
22076.5
18922.3
32966.7
26106.8
24354.9
20754.9
21882.2
42367.6
1740.73
2302.36
4825.82
10211.5
2499.24
3503.44
6401.25
11847.4
3710.32
3581.66
8471.32
13856.1
27590.5
27148.1
23136.8
21826.6
19877.1
17375.9
14666.8
12814.8
11739.2
17699.9
24432.4
21788.9
22798.9
21125.3
19503.1
17787
17130.8
14948.2
13868.8
19149.2
23593.9
25029.4
24492
26812.6
23542.9
21645.5
23971.5
22893.3
21632.6
21803.9
21298.3
21073.6
24937
27477.9
24779.1
27238.7
24330.5
23882.5
24085
23733.8
21422.4
21625.9
21706.3
21799.2
18806
18522.7
13024.9
15578.6
18993.9
18249.5
13474.9
16250.2
18255.7
18229
12834
15530.4
18407.4
18015.8
12692.6
15130.3
1919.15
1525.55
1104.33
1042.89
873.128
862.171
2965.26
2019.49
1537.08
2485.06
2175.33
1839.74
3073.86
2851.82
2965.24
4485.06
3796.34
3402.33
25318.3
21896.2
19634.9
21324.1
19482.3
18083.8
14697
13725.2
13185.3
10652
9825.51
9407.2
7313
5200.49
4122.11
20031.5
17943.3
16528.9
20227.3
18312.8
17204.6
15215.6
13124.8
12011.1
11130.5
9520.6
8772.35
7596.48
5399.01
4289.66
29232.5
30103.1
31243.8
28525.2
28709.8
28495.3
34415.3
29430.2
18382.3
20171.2
18331.2
18090.4
24635
21457.6
24191
18959.4
26657.4
27679.9
22725.4
25353
29547.1
26130.2
29770.4
30984.7
31691.1
34062.6
25580
26286.3
22165.8
21879.3
25281.2
24455.3
16816.5
9669.8
15796.4
10689.3
16352.3
9499.19
15253.9
10381.3
14945.9
8786.91
14179.6
9862.86
13955
10238.9
13416
10222.6
22954.1
17905.1
22617.4
18124.2
25756.7
22861.1
25983.5
22603.6
20807.2
14190.5
21498.7
13647.4
23135.2
18248.2
23806
18245.6
26705.2
22540
27223.4
22486.1
20313.4
14413.2
20200.1
14436
12351.9
8594.11
10774.2
7052.15
11353.1
7694.91
10037.9
6469.66
12665.2
9103.33
11106.9
7383.43
12756.9
9430.55
11199.3
7576.63
2729.81
1478.27
5190.71
3052.24
2829.6
1705.96
5276.98
3358.06
3056.97
2243.61
5221.24
3811.27
13388.1
22587.5
8718.12
7923.89
5831.01
23061.9
14689.8
8222
7323.27
4593.59
22275
15984.9
11664
8562.39
5549.68
1022.13
943.135
2154.48
1964.77
1280.84
987.519
2582.84
2305.21
1785.62
1506.86
3076.69
2734.19
23255.2
21795.3
14625.6
13022.3
9104.38
8450.06
6974.02
6419.85
4238.45
3791.78
20277.2
17087.4
14608.5
12247.8
10825.7
9525.74
7688.8
7073.06
5117.4
5412.06
13872.9
10659.6
14064.9
10079.2
17944.4
13047.1
18307.9
12904.9
11334.2
8796.65
11191.7
9359.84
14585.9
9639.47
14741.6
9775.76
19276.8
13304.1
19268.4
13438.7
11433.5
8286.16
11642.2
8646.46
8120.1
7104.44
5607.94
6989.61
8213.99
7421.6
5697.45
6871.87
8094.22
6916.74
5472.69
7283.82
8514.92
6999.87
5684.35
7211.81
1910.97
1493.37
1152.62
6974.87
3412.79
2590.95
1807.85
1642.73
1374.41
7430.54
4044.48
3224.45
2259.3
2323.02
2284.91
7924.4
5022.78
4335.37
18923.1
16538.4
14989.5
11732.4
10576.7
9889.26
8261.91
7595.38
7252.53
7018.47
6367.81
6066.06
9238.69
6602.5
5806.03
14045.7
12125.9
10923.5
10337.7
9027.53
8292.9
8815.72
7598.46
6819.73
8155.94
6983.71
6366.94
11991.5
8234.75
7354.1
5273.94
3079.23
2043.28
1586.04
5861.79
3295.42
2117.84
1630.69
5129.77
3037.81
2040.68
1604.29
5822.8
3305.28
2147.38
1656.36
4874.15
2984.52
2079.38
1606.2
5664.13
3337.03
2224.85
1664.68
5920.73
3459.06
2215.51
1714.92
6071.97
3589.45
2283.22
1758.43
5167.59
3152.4
2164.37
1641.6
4321.9
2836.3
2047.48
1531.74
4547.62
2888.76
2083.85
1532.83
3937.98
2659.51
1970.78
1464.58
5536.63
3345.87
2222.95
1700.91
4565.18
2976.17
2102.68
1570.56
5747.29
3485.96
2284.51
1733.58
4707.99
3082.09
2158.78
1593.91
4088.26
2717.45
1935.63
1503.21
2885.04
2297.04
1796.39
1383.03
3978.94
2682.34
1938.3
1505.41
2878.1
2295.41
1797.24
1389.78
3814.97
2633.74
1955.37
1505.22
2950.1
2328.95
1808.86
1410.8
3656.8
2560.6
1935.08
1499.41
2985.86
2344.44
1849.09
1420.67
3444
2486.45
1871.99
1407.19
1645.91
1911.51
1469.96
457.548
277.647
1706.42
1316.88
431.093
1798.35
1969.04
1496.58
481.252
494.623
1773.26
1338.92
439.132
2036.83
2055.4
1519.89
478.628
825.445
1879.21
1363.63
441.867
2385.43
2167.25
1564.26
510.456
1232.92
2014.8
1408.28
459.034
2894.14
2321.83
1640.52
570.876
1696.16
2151.26
1452.64
473.153
3264.77
2512.25
1687.84
541.8
1720.62
2321.46
1546.99
493.666
3197.66
2427.43
1650.87
542.912
1750.75
2254.8
1496.43
481
3266.72
2574.21
1712.71
512.529
1650.88
2379.83
1580.95
493.523
3256.14
2647.46
1769.97
524.707
1783.58
2454.64
1628.37
505.098
1276.4
882.34
564.589
311.203
99.0403
1284.56
884.505
565.504
311.614
99.159
1300.11
890.266
568.063
312.707
99.4617
1306.39
893.903
569.967
313.611
99.7287
1312.54
898.162
571.733
314.309
99.9103
1312.33
906.476
576.433
316.576
100.584
1358.86
924.513
585.776
321
101.882
1382.55
941.03
595.024
325.479
103.206
1350.38
916.02
580.378
318.27
101.06
1373.91
919.568
581.031
318.408
101.082
1320.81
906.792
575.645
316.022
100.393
1361.37
913.933
578.159
317.044
100.675
1370.26
926.433
586.037
321.004
101.871
1390.52
929.555
586.494
321.054
101.869
1387.32
943.676
596.041
325.889
103.32
1409.87
946.179
596.204
325.824
103.291
1265.22
879.878
563.567
310.745
98.9078
1271.9
879.023
562.961
310.462
98.8274
1280.2
886.174
566.212
311.851
99.2118
1286.1
884.779
565.304
311.424
99.0906
1301.05
894.134
569.49
313.221
99.5861
1313.81
892.688
568.388
312.689
99.433
1331.76
903.114
573.187
314.794
100.02
1343.49
900.637
571.76
314.123
99.8215
1349.57
909.094
575.862
315.98
100.359
10007.7
15599.9
10507.3
15966.9
11274.6
16492.1
12189.9
17523
13134.3
19331.3
11776.8
14512.8
12233.5
15776.6
11637.1
14227.2
11466.6
14137.7
8104.76
1452.26
320.97
72.519
12.8369
9656.32
2676.81
654.836
149.264
26.1881
8259.33
1431.16
310.499
69.5004
12.2312
9811.35
2681.08
647.345
145.637
25.4609
8524.73
1424.36
301.622
66.6629
11.6572
10098.2
2702.62
641.229
142.634
24.7682
8832.29
1406.99
290.668
63.6543
11.1027
10463.8
2726.86
637.378
140.823
24.3913
9040.67
1384.37
284.304
62.6122