/*--------------------------------*- C++ -*----------------------------------*\
| =========                 |                                                 |
| \\      /  F ield         | OpenFOAM: The Open Source CFD Toolbox           |
|  \\    /   O peration     | Version:  2412                                  |
|   \\  /    A nd           | Website:  www.openfoam.com                      |
|    \\/     M anipulation  |                                                 |
\*---------------------------------------------------------------------------*/
FoamFile
{
    version     2.0;
    format      ascii;
    arch        "LSB;label=32;scalar=64";
    class       volScalarField;
    location    "1.5";
    object      T;
}
// * * * * * * * * * * * * * * * * * * * * * * * * * * * * * * * * * * * * * //

dimensions      [0 0 0 1 0 0 0];

internalField   nonuniform List<scalar> 
5712
(
538.591
555.966
525.17
545.967
507.314
531.266
479.855
505.792
483.565
509.744
509.038
534.892
520.776
544.43
531.825
552.291
497.926
480.861
516.044
489.824
471.052
452.752
487.958
460.368
546.578
553.371
560.289
563.698
536.297
545.206
552.502
557.816
535.143
521.598
508.483
500.809
535.996
547.267
536.863
542.687
498.258
505.666
512.421
518.426
468.684
475.058
548.709
553.928
518.277
528.145
559.495
565.469
558.125
566.737
566.341
570.397
550.695
563.932
561.134
568.482
540.558
559.144
550.412
564.264
557.395
566.706
561.587
568.218
466.328
451.04
474.331
454.696
432.292
418.769
440.453
422.997
502.385
483.444
495.264
479.609
479.775
457.141
482.894
458.404
446.138
425.777
449.325
427.212
507.625
485.996
510.593
487.256
528.893
557.211
512.386
545.806
522.364
552.911
507.798
541.916
533.371
559.33
515.079
548.027
535.729
560.211
516.272
549.366
552.933
541.523
563.328
554.835
544.636
533.183
559.81
550.266
532.611
520.613
553.694
542.868
450.103
411.072
485.277
513.301
544.849
409.659
447.814
480.406
506.718
535.214
408.959
444.772
474.856
501.516
534.132
518.878
497.883
523.048
502.993
513.433
492.509
521.033
500.593
504.483
484.257
517.426
496.902
402.302
388.509
439.903
425.721
470.066
452.943
493.149
474.176
514.01
493.489
401.124
386.018
435.592
420.747
464.209
447.796
488.905
470.423
511.79
490.715
435.028
423.601
434.582
423.405
400.532
379.766
399.697
377.045
464.79
455.936
464.614
454.589
434.369
422.789
435.168
423.752
399.939
376.125
401.131
377.782
464.624
455.587
465.482
456.565
492.539
484.014
516.546
508.709
491.361
481.35
515.068
504.754
492.474
483.821
516.986
509.722
492.865
484.355
517.09
509.384
473.477
453.082
441.862
476.67
455.426
444.028
468.905
448.176
436.966
474.092
452.077
440.343
460.011
438.824
427.305
469.886
446.671
434.4
370.632
357.355
350.49
406.354
388.415
378.704
431.936
411.298
399.755
450.442
428.901
417.258
465.006
440.436
427.338
367.006
353.191
345.65
402.828
386.243
377.405
427.437
408.085
397.626
445.873
423.501
411.426
459.461
434.716
421.774
407.905
394.266
411.856
398.613
437.861
421.261
446.65
427.697
379.093
358.55
380.337
360.49
380.022
359.085
381.791
361.587
379.861
376.691
379.318
372.88
358.092
362.185
401.377
404.224
432.181
436.104
381.364
383.623
381.79
383.413
364.463
365.916
336.775
317.613
342.199
320.733
338.333
317.374
343.655
320.903
339.463
316.928
345.99
321.529
348.928
323.563
350.862
325.162
372.469
360.574
379.733
365.537
399.474
385.985
407.869
391.178
358.693
345.395
351.41
340.861
383.789
368.472
386.165
370.027
412.836
394.272
415.656
395.802
362.345
348.115
364.317
349.622
341.022
318.966
329.682
313.789
334.714
315.166
326.043
311.288
344.587
321.514
332.028
315.474
346.605
323.261
333.478
316.554
319.633
309.278
311.269
304.731
320.842
310.921
311.047
304.917
322.394
314.425
310.691
305.761
352.312
376.112
335.434
324.282
309.988
374.094
348.856
329.635
318.049
306.239
374.353
350.764
333.478
321.044
308.349
301.34
294.186
298.225
291.472
303.681
296.383
299.166
292.552
307.749
300.705
300.769
294.394
367.108
354.295
342.024
331.047
324.631
316.621
313.217
306.029
302.831
296.792
366.87
353.652
344.296
333.448
327.861
319.11
315.871
308.024
305.378
299.289
347.404
334.046
348.606
333.607
368.417
351.658
369.542
349.769
332.138
320.623
330.894
320.378
349.645
333.334
351.033
334.742
371.009
348.35
372.546
349.864
333.094
320.897
334.259
322.018
318.391
309.53
307.758
299.986
318.023
308.826
307.054
299.745
318.677
310.258
308.157
300.086
320.115
310.975
308.776
301.156
285.712
281.043
279.209
280.224
277.048
275.977
288.309
283.268
281.15
281.283
277.941
276.71
292.516
287.039
284.81
282.948
279.258
277.923
340.15
330.118
325.262
320.486
312.984
309.603
307.408
301.162
298.597
297.114
291.287
288.853
284.586
280.72
279.158
338.591
327.897
322.647
321.547
312.824
308.526
308.846
301.632
298.235
297.753
292.094
289.799
285.684
281.858
279.934
302.178
292.612
286.867
282.706
303.494
293.119
287.112
282.76
302.065
292.627
286.941
282.808
303.686
293.279
287.297
282.916
301.812
292.615
287.063
282.974
303.928
293.503
287.538
283.114
304.95
294.075
287.752
283.186
305.941
294.689
287.993
283.273
303.023
293.275
287.476
283.222
301.127
292.636
287.084
283.277
301.292
292.512
287.108
283.151
299.967
292.087
286.815
283.239
304.313
293.92
287.726
283.265
302.08
293.142
287.311
283.349
305.306
294.485
287.995
283.392
302.863
293.608
287.574
283.512
299.999
291.821
286.521
282.68
297.477
290.927
286.075
282.692
299.859
291.806
286.552
282.758
297.507
290.965
286.103
282.758
299.625
291.773
286.598
282.892
297.772
291.11
286.196
282.88
299.257
291.706
286.616
283.063
297.929
291.216
286.292
283.041
298.819
291.606
286.549
283.198
295.227
290.194
285.546
282.895
293.967
289.844
285.309
282.953
295.579
290.335
285.631
282.956
294.369
289.999
285.391
283.008
296.166
290.58
285.767
283.057
295.051
290.272
285.526
283.105
296.896
290.881
285.975
283.209
295.923
290.623
285.724
283.237
297.847
291.279
286.226
283.368
296.805
290.999
285.925
283.371
299.183
292.032
286.55
283.591
298.042
291.756
286.315
283.645
298.574
291.647
286.387
283.485
297.525
291.39
286.124
283.511
299.721
292.419
286.703
283.685
298.534
292.135
286.488
283.771
300.333
292.841
286.932
283.836
299.146
292.55
286.716
283.933
279.285
277.164
275.754
274.905
274.509
279.297
277.17
275.757
274.907
274.51
279.324
277.182
275.763
274.91
274.512
279.344
277.193
275.769
274.913
274.514
279.365
277.202
275.773
274.915
274.515
279.413
277.229
275.787
274.923
274.521
279.513
277.282
275.815
274.939
274.531
279.608
277.335
275.844
274.955
274.542
279.462
277.25
275.798
274.929
274.525
279.477
277.253
275.798
274.929
274.525
279.411
277.223
275.783
274.921
274.519
279.445
277.237
275.789
274.924
274.521
279.521
277.283
275.815
274.939
274.531
279.533
277.284
275.815
274.938
274.531
279.621
277.341
275.847
274.956
274.543
279.631
277.341
275.846
274.956
274.543
279.272
277.158
275.751
274.904
274.508
279.267
277.155
275.749
274.902
274.507
279.302
277.172
275.757
274.907
274.51
279.294
277.167
275.755
274.905
274.509
279.342
277.189
275.766
274.911
274.513
279.333
277.183
275.762
274.909
274.511
279.388
277.209
275.775
274.916
274.516
279.373
277.201
275.771
274.914
274.514
279.419
277.224
275.783
274.92
274.519
532.639
527.276
532.026
526.651
530.859
525.522
529.504
524.002
528.572
522.756
530.361
527.154
529.413
525.317
530.896
527.895
531.335
528.323
564.444
571.107
572.57
572.904
572.976
557.338
569.188
572.133
572.81
572.953
564.605
571.175
572.589
572.909
572.977
557.354
569.244
572.152
572.816
572.955
564.669
571.231
572.606
572.913
572.978
557.266
569.287
572.171
572.821
572.957
564.787
571.298
572.624
572.917
572.979
557.137
569.31
572.181
572.824
572.957
564.92
571.334
572.63
572.918
572.979
557.067
569.295
572.173
572.821
572.956
563.819
570.902
572.505
572.885
572.969
556.79
568.931
572.039
572.781
572.944
564.237
571.091
572.563
572.901
572.974
556.841
569.097
572.106
572.802
572.95
563.552
570.78
572.465
572.874
572.966
556.783
568.843
571.998
572.768
572.939
563.722
570.81
572.468
572.873
572.965
556.947
568.864
571.995
572.765
572.938
415.248
455.001
451.99
412.965
394.058
395.951
401.446
404.707
414.72
418.084
441.973
449.366
446.546
453.623
423.436
426.117
413.943
416.466
405.131
407.184
353.917
336.174
293.537
288.748
292
289.116
293.002
352.327
345.44
328.453
334.048
327.953
309.048
318.355
313.138
304.124
306.854
302.655
347.325
321.884
306.83
304.899
310.962
307.237
300.469
300.302
298.144
295.792
301.798
300.465
348.105
327.444
333.64
317.313
311.173
322.395
301.139
295.373
303.786
338.691
324.839
312.969
300.53
283.894
326.42
316.256
305.788
294.366
280.66
291.417
288.477
284.675
280.258
275.462
287.165
284.94
282.027
278.618
274.907
290.065
287.36
283.838
279.735
275.284
287.495
285.216
282.233
278.744
274.949
290.949
288.092
284.385
280.075
275.399
337.458
322.66
310.3
297.929
282.938
330.684
316.891
305.231
293.662
280.416
319.901
310.491
300.698
290.403
279.07
321.882
310.12
299.86
289.743
278.991
317.377
306.624
297.182
287.903
278.188
304.588
298.95
292.258
284.883
277.03
311.867
304.331
296.04
287.227
277.862
307.663
301.076
293.628
285.659
277.288
300.538
295.817
290.012
283.502
276.554
302.742
297.474
291.157
284.18
276.782
299.303
294.843
289.304
283.064
276.404
334.327
320.838
309.243
297.274
282.559
315.211
307.311
298.554
289.04
278.54
302.866
297.711
291.436
284.41
276.872
301.272
296.483
290.573
283.894
276.697
306.351
300.494
293.525
285.761
277.351
303.304
298.146
291.83
284.696
276.972
297.493
293.468
288.388
282.56
276.243
297.347
293.343
288.279
282.478
276.214
295.463
291.793
287.111
281.74
275.96
293.409
290.119
285.884
280.993
275.709
298.607
294.324
288.962
282.876
276.345
297.478
293.437
288.333
282.501
276.22
334.648
321.517
310.179
298.253
282.916
319.722
311.066
301.699
291.386
279.482
325.06
314.305
304.008
292.868
279.532
311.791
304.898
296.915
287.998
278.112
306.665
300.841
293.85
285.985
277.409
315.837
307.816
298.992
289.324
278.508
298.074
293.937
288.726
282.762
276.311
293.037
289.811
285.66
280.86
275.665
300.341
295.756
290.054
283.579
276.589
498.908
541.78
490.626
531.227
465.813
510.345
473.428
522.061
480.968
469.5
510.253
484.927
455.752
442.976
483.207
456.335
517.366
532.628
550.589
556.809
511.112
526.536
543.718
551.408
528.491
504.669
503.518
489.678
521.548
541.554
534.918
542.264
496.088
505.121
510.605
517.956
466.873
474.561
546.696
553.533
516.22
527.652
557.969
565.231
546.266
562.721
562.237
569.018
539.401
560.276
557.021
567.14
531.531
556.295
546.342
562.926
555.905
566.169
561.289
568.101
462.865
451.537
472.139
454.881
431.343
421.701
439.552
424.438
499.684
482.965
490.673
478.77
478.715
457.253
482.61
458.453
445.669
426.504
449.199
427.455
506.351
485.781
510.247
487.2
526.453
556.339
511.808
545.617
517.959
551.355
506.709
541.589
532.246
558.915
514.814
547.939
535.427
560.095
516.198
549.341
533.876
520.017
557.064
547.588
526.844
513.606
554.395
544.165
518.617
506.205
549.695
538.847
452.854
422.319
481.572
507.378
542.78
422.439
450.789
475.572
499.363
532.925
418.77
447.854
473.968
499.686
533.7
498.779
482.041
515.328
500.162
495.21
478.346
515.045
499.156
491.077
474.783
514.158
497.689
414.821
403.671
442.999
431.147
466.401
452.339
487.71
472.411
512.928
495.969
411.171
397.632
439.958
428.199
465.135
452.652
488.872
474.361
512.47
494.552
438.22
428.329
436.681
426.327
406.582
387.361
403.328
381.698
465.89
457.783
465.996
457.541
435.515
424.336
435.529
424.222
401.758
378.377
401.689
378.46
465.292
456.618
465.7
456.885
493.148
485.177
517.02
509.529
492.003
483.343
515.701
506.297
492.885
484.482
517.281
510.163
493.011
484.577
517.182
509.518
469.452
462.815
486.364
479.915
465.46
458.176
484.788
476.922
461.722
454.031
482.115
472.074
392.238
385.907
420.047
412.298
440.9
432.13
459.246
450.039
478.263
465.989
382.449
377.194
417.109
410.322
440.421
431.938
458.688
447.866
472.818
460.513
398.466
390.462
407.374
397.286
426.095
414.593
442.528
424.97
379.252
360.691
383.899
364.269
377.456
360.71
382.692
364.5
379.868
374.326
379.953
372.961
360.376
364.508
400.921
404.124
430.936
435.746
381.662
383.787
382.3
383.611
365.967
366.478
346.763
327.928
348.835
328.739
347.495
327.009
349.326
327.911
347.73
325.517
350.433
327.086
351.522
326.971
351.739
326.329
377.257
368.297
381.82
369.705
401.591
391.806
408.475
394.15
362.322
350.283
358.695
349.382
384.807
370.617
386.471
370.727
413.078
395.763
415.728
396.287
364.169
350.705
364.869
350.474
345.88
323.854
334.671
318.206
343.546
322.688
334.264
317.989
347.108
324.302
334.762
318.002
347.373
324.156
334.393
317.393
343.142
340.024
325.84
322.646
343.596
340.536
324.725
321.578
343.148
340.258
323.023
320.088
371.443
393.959
353.695
340.245
320.589
394.806
372.077
353.147
338.612
318.752
389.892
367.196
348.564
333.891
317.486
336.401
330.918
317.694
309.145
337.166
332.071
317.079
308.971
336.933
331.737
316.08
308.514
387.868
378.126
366.547
358.764
349.481
343.901
335.126
329.216
315.724
308.889
382.363
369.807
361.421
351.224
343.931
335.589
329.516
321.614
315.032
308.83
357.168
343.929
354.129
339.226
377.225
361.235
374.542
355.361
337.639
325.838
340.408
329.507
352.379
336.017
351.87
335.546
373.434
351.005
373.28
350.657
335.879
323.417
335.127
322.785
323.301
313.921
311.933
303.44
326.432
316.417
313.665
305.459
321.272
312.481
310.439
301.869
320.987
311.69
309.46
301.683
325.21
322.851
293.624
291.381
327.863
324.978
294.231
291.823
326.442
322.304
294.671
291.75
368.744
363.251
351.381
347.107
337.314
333.456
322.041
317.653
294.881
291.356
357.238
353.094
340.897
337.134
326.238
322.794
311.495
308.854
293.256
290.498
308.993
296.655
289.317
284.158
309.418
296.788
289.398
284.136
308.461
296.443
289.258
284.177
308.92
296.555
289.358
284.161
307.543
296.066
289.187
284.246
308.154
296.184
289.246
284.14
307.664
295.839
288.864
283.828
306.9
295.322
288.398
283.515
306.517
295.493
288.903
284.11
304.272
294.653
288.394
284.156
306.18
295.492
288.971
284.296
304.445
294.851
288.525
284.32
306.437
295.308
288.65
283.873
303.954
294.377
288.143
283.94
306.027
294.963
288.313
283.598
303.489
294.026
287.859
283.716
308.103
296.358
289.177
284.246
306.743
295.923
288.884
284.374
307.582
296.17
289.113
284.269
306.325
295.784
288.819
284.391
306.738
295.851
289.009
284.331
305.672
295.541
288.728
284.43
305.495
295.354
288.8
284.401
305.003
295.268
288.627
284.482
304.418
294.941
288.535
284.43
305.157
295.504
288.41
284.762
304.039
295.284
288.221
284.929
304.942
295.42
288.402
284.768
303.857
295.201
288.204
284.924
304.535
295.248
288.352
284.759
303.524
295.039
288.146
284.904
304.151
295.031
288.328
284.765
303.219
294.83
288.095
284.885
303.684
294.743
288.271
284.755
302.79
294.561
288.003
284.845
302.296
294.07
287.831
284.507
301.107
293.807
287.592
284.58
303.062
294.445
288.09
284.666
301.993
294.217
287.83
284.743
301.546
293.661
287.501
284.273
300.304
293.375
287.275
284.356
300.927
293.254
287.201
284.035
299.713
292.958
286.977
284.129
280.037
277.565
275.967
275.024
274.589
280.023
277.559
275.964
275.022
274.588
280.021
277.552
275.959
275.019
274.585
279.993
277.54
275.953
275.016
274.583
279.998
277.536
275.95
275.014
274.582
279.936
277.508
275.936
275.006
274.577
279.84
277.458
275.909
274.991
274.567
279.737
277.405
275.881
274.976
274.556
279.916
277.493
275.927
275.001
274.573
279.929
277.494
275.926
275
274.573
279.97
277.519
275.94
275.008
274.578
279.964
277.51
275.935
275.005
274.576
279.849
277.46
275.91
274.992
274.567
279.861
277.462
275.91
274.992
274.567
279.733
277.401
275.879
274.975
274.555
279.747
277.404
275.88
274.975
274.555
280.056
277.572
275.97
275.025
274.59
280.072
277.576
275.972
275.026
274.59
280.047
277.563
275.964
275.022
274.587
280.066
277.569
275.967
275.023
274.588
280.033
277.55
275.956
275.017
274.584
280.055
277.557
275.959
275.019
274.585
280.011
277.534
275.947
275.012
274.58
280.029
277.541
275.95
275.013
274.581
279.987
277.521
275.94
275.008
274.578
529.477
525.118
529.604
525.221
529.611
525.219
529.325
524.7
529.132
524.097
530.809
527.727
530.018
526.254
531.163
528.211
531.421
528.421
564.039
571.05
572.561
572.902
572.975
556.749
569.083
572.115
572.807
572.953
564.304
571.134
572.582
572.908
572.977
556.941
569.169
572.14
572.814
572.955
564.528
571.213
572.604
572.913
572.978
557.123
569.257
572.166
572.821
572.956
564.795
571.301
572.625
572.917
572.979
557.249
569.325
572.184
572.825
572.957
565.023
571.352
572.634
572.918
572.979
557.332
569.339
572.181
572.822
572.956
563.922
570.925
572.51
572.886
572.97
556.987
568.977
572.048
572.783
572.944
564.363
571.116
572.568
572.902
572.974
557.108
569.151
572.116
572.804
572.951
563.617
570.795
572.469
572.874
572.966
556.899
568.872
572.005
572.77
572.94
563.743
570.815
572.469
572.873
572.966
556.984
568.873
571.997
572.766
572.938
414.852
454.399
449.921
411.277
403.732
410.474
401.572
409.819
431.91
449.204
435.958
452.352
276.558
277.008
278.008
279.624
281.91
284.919
276.931
277.384
278.382
279.97
282.204
285.15
276.256
276.106
276.708
276.554
277.726
277.57
279.427
279.323
281.854
281.917
285.106
285.504
288.661
293.526
300.138
309.386
317.365
323.218
288.899
293.61
299.39
305.907
311.622
315.291
276.218
275.73
275.076
274.297
273.441
276.624
276.073
275.336
274.46
273.496
277.526
276.836
275.914
274.82
273.619
278.982
278.066
276.846
275.4
273.816
281.039
279.8
278.157
276.216
274.092
283.74
282.072
279.871
277.281
274.454
276.555
276.015
275.292
274.432
273.487
276.963
276.36
275.553
274.595
273.542
277.862
277.119
276.129
274.953
273.664
279.293
278.327
277.042
275.522
273.857
281.301
280.019
278.321
276.317
274.127
283.943
282.239
279.996
277.358
274.48
275.946
275.499
274.901
274.188
273.404
275.81
275.384
274.814
274.134
273.386
276.353
275.844
275.163
274.351
273.46
276.214
275.726
275.073
274.295
273.441
277.272
276.621
275.752
274.719
273.584
277.132
276.503
275.662
274.663
273.565
278.806
277.917
276.734
275.331
273.792
278.712
277.838
276.674
275.293
273.779
280.99
279.76
278.127
276.197
274.086
281.047
279.808
278.164
276.22
274.094
283.91
282.215
279.979
277.348
274.476
284.266
282.515
280.205
277.488
274.524
287.085
284.873
281.978
278.589
274.897
291.407
288.471
284.675
280.262
275.465
297.217
293.263
288.255
282.489
276.223
305.198
299.754
293.105
285.548
277.277
311.892
305.132
297.168
288.199
278.233
316.7
308.962
300.096
290.165
278.956
287.294
285.045
282.106
278.668
274.924
291.481
288.533
284.724
280.294
275.476
296.579
292.755
287.884
282.261
276.146
302.272
297.434
291.386
284.454
276.898
307.207
301.465
294.414
286.374
277.566
310.348
304.025
296.347
287.616
278.003
276.624
277.215
278.38
280.205
282.75
286.074
277.001
277.6
278.765
280.55
283.012
286.209
276.319
276.167
276.906
276.746
278.09
277.928
280.015
279.91
282.74
282.825
286.41
286.95
290.144
295.304
302.088
311.163
318.622
323.675
290.198
295.087
300.911
307.25
312.553
315.624
276.278
275.781
275.115
274.322
273.45
276.811
276.233
275.458
274.536
273.522
277.864
277.123
276.134
274.958
273.666
279.509
278.515
277.189
275.616
273.889
281.803
280.452
278.656
276.53
274.2
284.792
282.971
280.561
277.715
274.602
276.618
276.069
275.333
274.458
273.496
277.159
276.527
275.681
274.675
273.57
278.21
277.415
276.355
275.095
273.712
279.819
278.776
277.386
275.738
273.931
282.035
280.646
278.801
276.619
274.23
284.907
283.064
280.628
277.756
274.616
276.002
275.547
274.938
274.211
273.412
275.865
275.431
274.849
274.156
273.393
276.533
275.997
275.279
274.424
273.484
276.388
275.874
275.186
274.366
273.465
277.602
276.902
275.967
274.853
273.63
277.455
276.778
275.873
274.795
273.61
279.339
278.372
277.081
275.549
273.866
279.245
278.293
277.022
275.511
273.854
281.795
280.447
278.653
276.528
274.199
281.872
280.513
278.704
276.56
274.21
285.097
283.231
280.759
277.839
274.644
285.585
283.644
281.072
278.034
274.71
288.438
286.034
282.871
279.152
275.09
293.035
289.874
285.759
280.949
275.7
299.014
294.823
289.47
283.265
276.49
306.855
301.211
294.257
286.294
277.536
313.08
306.188
298.015
288.756
278.43
317.136
309.353
300.414
290.377
279.032
288.478
286.06
282.887
279.162
275.093
292.832
289.697
285.622
280.863
275.671
297.978
293.965
288.824
282.859
276.352
303.514
298.516
292.233
284.997
277.086
308.072
302.224
295.012
286.761
277.7
310.66
304.299
296.565
287.757
278.052
354.664
336.824
295.788
290.496
294.881
291.313
295.693
360.909
358.484
337.225
349.112
315.966
327.125
310.34
314.605
308.558
352.846
327.758
312.404
309.574
316.079
311.135
303.208
303.943
303.085
299.854
306.924
304.804
350.454
329.29
337.625
319.991
314.485
326.895
304.425
298.675
307.867
339.478
325.583
313.626
301.033
284.099
327.061
316.846
306.284
294.715
280.789
293.48
290.255
286.051
281.13
275.761
288.759
286.308
283.08
279.283
275.134
292.7
289.626
285.586
280.842
275.663
289.498
286.935
283.556
279.579
275.235
293.413
290.214
286.025
281.114
275.756
346.722
331.532
318.011
303.561
285.24
344.856
330.085
316.504
301.769
283.632
328.655
318.578
307.421
295.004
280.759
338.076
324.736
312.024
298.241
282.288
311.177
304.84
296.979
287.976
278.117
320.523
312.242
302.519
291.573
279.428
306.362
300.954
294.079
286.133
277.469
310.05
303.954
296.316
287.541
277.958
304.822
299.703
293.146
285.545
277.265
340.089
326.324
313.999
300.733
283.969
320.902
312.485
302.788
291.879
279.558
308.109
302.354
295.127
286.808
277.707
305.639
300.327
293.611
285.857
277.379
311.188
304.802
296.972
288.017
278.142
306.949
301.358
294.374
286.343
277.544
300.024
295.671
290.11
283.662
276.623
300.714
296.275
290.572
283.947
276.72
300.008
295.729
290.174
283.694
276.632
297.132
293.33
288.372
282.573
276.251
303.374
298.5
292.246
284.988
277.076
301.497
296.942
291.077
284.26
276.827
337.099
323.799
312.154
299.713
283.519
321.51
312.689
303.033
292.294
279.812
329.022
317.937
307.041
294.952
280.242
314.33
307.165
298.738
289.198
278.53
309.776
303.596
296.043
287.412
277.905
320.182
311.745
302.2
291.467
279.26
301.116
296.589
290.803
284.093
276.771
296.067
292.428
287.69
282.15
276.108
304.14
299.087
292.678
285.27
277.175
278.492
289.057
298.699
307.15
314.019
319.253
478.445
472.921
448.464
453.959
464.611
457.683
440.501
431.346
499.267
517.731
494.994
512.778
489.265
479.632
507.522
467.483
463.489
440.031
444.223
456.638
451.578
433.419
426.349
487.612
502.128
484.892
498.742
480.253
472.351
494.755
452.155
449.736
428.05
430.885
444.905
442.107
423.116
417.984
470.228
484.664
468.592
482.634
465.779
460.453
480.048
436.691
435.116
415.368
417.502
431.613
429.933
411.362
406.99
453.773
468.146
452.72
466.541
450.522
446.129
464.411
425.531
424.193
406.084
408.017
420.834
418.946
402.219
397.322
441.307
454.377
440.577
453.76
438.717
434.563
452.079
417.813
416.53
399.797
401.658
413.22
411.245
396.042
391.257
431.983
445.256
431.287
445.072
429.753
425.853
443.379
396.846
393.928
420.722
424.583
390.082
382.872
414.952
405.772
373.408
353.915
371.059
353.417
366.03
364.773
352.55
392.454
389.607
414.654
417.973
385.901
379.076
409.436
401.244
368.307
351.739
365.868
351.519
361.41
360.575
350.587
385.972
383.364
405.615
408.264
379.937
373.987
401.253
394.542
366.047
350.268
363.866
349.477
359.749
358.832
347.993
378.712
376.134
395.549
397.851
372.24
365.97
391.502
384.756
361.884
347.672
359.519
346.079
355.17
353.452
343.614
373.407
370.845
388.188
390.379
367.069
360.828
384.215
377.491
358.608
346.294
355.963
343.54
351.269
348.736
339.898
370.119
367.552
383.321
385.468
363.847
357.612
379.424
372.921
357.401
344.886
354.543
341.339
349.057
345.951
337.145
539.26
556.413
525.168
545.937
507.316
531.255
479.861
505.793
483.574
509.746
509.049
534.886
520.796
544.418
532.713
552.892
497.924
480.859
516.039
489.821
471.054
452.753
487.958
460.368
547.056
553.727
560.587
563.917
536.288
545.188
552.469
557.785
535.13
521.59
508.477
500.804
535.984
547.252
536.861
542.686
498.256
505.665
512.421
518.425
468.683
475.058
548.705
553.927
518.274
528.143
559.491
565.468
558.405
566.864
566.514
570.467
550.672
563.926
561.109
568.475
540.546
559.14
550.401
564.26
557.391
566.705
561.586
568.217
466.326
451.039
474.329
454.695
432.291
418.768
440.452
422.997
502.382
483.442
495.26
479.606
479.774
457.139
482.892
458.403
446.137
425.776
449.324
427.211
507.623
485.994
510.591
487.255
528.889
557.209
512.384
545.806
522.358
552.909
507.795
541.914
533.368
559.329
515.077
548.027
535.727
560.21
516.271
549.365
553.208
541.779
563.481
555.004
544.605
533.147
559.802
550.254
532.595
520.598
553.689
542.864
450.1
411.071
485.273
513.294
544.846
409.658
447.811
480.402
506.711
535.211
408.958
444.77
474.853
501.512
534.131
519.09
498.051
523.195
503.102
513.417
492.489
521.045
500.6
504.474
484.249
517.428
496.905
402.301
388.508
439.901
425.719
470.062
452.94
493.144
474.172
514.01
493.49
401.123
386.018
435.59
420.746
464.206
447.794
488.902
470.421
511.789
490.714
435.027
423.6
434.58
423.404
400.531
379.765
399.696
377.044
464.788
455.935
464.612
454.588
434.368
422.788
435.167
423.751
399.938
376.125
401.13
377.781
464.622
455.586
465.48
456.564
492.537
484.013
516.545
508.708
491.359
481.349
515.067
504.753
492.472
483.82
516.986
509.721
492.863
484.354
517.089
509.383
473.645
453.265
442.064
476.781
455.563
444.184
468.893
448.167
436.962
474.096
452.08
440.35
460.006
438.821
427.303
469.887
446.672
434.403
370.631
357.355
350.489
406.353
388.414
378.704
431.934
411.297
399.754
450.44
428.899
417.257
465.006
440.436
427.339
367.006
353.191
345.65
402.827
386.242
377.404
427.436
408.084
397.626
445.872
423.5
411.425
459.461
434.716
421.775
407.913
394.269
411.864
398.616
437.868
421.263
446.656
427.699
378.962
358.493
380.176
360.412
380.008
359.073
381.775
361.576
379.859
376.688
379.318
372.88
358.087
362.181
401.379
404.225
432.182
436.104
381.365
383.624
381.791
383.414
364.462
365.916
336.722
317.604
342.134
320.716
338.332
317.365
343.653
320.898
339.461
316.924
345.988
321.526
348.928
323.562
350.863
325.162
372.47
360.575
379.734
365.537
399.475
385.985
407.87
391.178
358.693
345.395
351.41
340.861
383.79
368.472
386.166
370.027
412.837
394.272
415.656
395.802
362.345
348.115
364.318
349.622
341.021
318.965
329.682
313.789
334.713
315.164
326.044
311.288
344.587
321.514
332.028
315.474
346.605
323.261
333.479
316.555
319.589
309.214
311.26
304.705
320.843
310.925
311.039
304.912
322.395
314.427
310.688
305.76
352.313
376.112
335.435
324.282
309.987
374.094
348.856
329.636
318.05
306.239
374.353
350.764
333.478
321.044
308.349
301.263
294.103
298.199
291.442
303.69
296.392
299.171
292.56
307.753
300.711
300.771
294.398
367.108
354.295
342.024
331.047
324.633
316.622
313.219
306.032
302.832
296.794
366.87
353.651
344.297
333.449
327.861
319.111
315.872
308.025
305.378
299.29
347.404
334.046
348.606
333.606
368.417
351.658
369.542
349.769
332.138
320.623
330.894
320.378
349.645
333.334
351.033
334.742
371.008
348.35
372.546
349.863
333.094
320.897
334.259
322.018
318.391
309.53
307.758
299.986
318.023
308.826
307.054
299.745
318.677
310.258
308.157
300.086
320.115
310.975
308.776
301.156
285.638
280.977
279.145
280.218
277.036
275.964
288.324
283.282
281.161
281.295
277.951
276.717
292.523
287.046
284.815
282.953
279.262
277.927
340.15
330.118
325.262
320.487
312.985
309.604
307.41
301.164
298.599
297.117
291.29
288.856
284.588
280.723
279.16
338.591
327.897
322.647
321.547
312.825
308.527
308.847
301.633
298.236
297.755
292.096
289.801
285.685
281.859
279.935
302.179
292.61
286.863
282.7
303.487
293.112
287.104
282.752
302.063
292.626
286.941
282.808
303.685
293.279
287.297
282.916
301.811
292.614
287.063
282.974
303.927
293.503
287.538
283.114
304.95
294.075
287.752
283.186
305.941
294.689
287.993
283.273
303.023
293.275
287.476
283.222
301.127
292.636
287.084
283.277
301.291
292.512
287.108
283.151
299.967
292.086
286.814
283.239
304.312
293.92
287.726
283.265
302.08
293.142
287.311
283.349
305.307
294.485
287.995
283.392
302.863
293.608
287.574
283.512
300.001
291.821
286.518
282.676
297.472
290.924
286.073
282.689
299.856
291.805
286.551
282.757
297.506
290.965
286.102
282.758
299.624
291.773
286.598
282.892
297.772
291.11
286.195
282.88
299.256
291.706
286.615
283.062
297.929
291.216
286.292
283.041
298.819
291.606
286.549
283.198
295.223
290.192
285.545
282.892
293.957
289.84
285.306
282.95
295.582
290.336
285.631
282.955
294.372
290
285.391
283.008
296.167
290.58
285.767
283.056
295.053
290.272
285.526
283.105
296.897
290.881
285.975
283.209
295.923
290.624
285.724
283.237
297.847
291.279
286.226
283.368
296.806
290.999
285.925
283.371
299.183
292.032
286.55
283.591
298.042
291.755
286.315
283.645
298.574
291.647
286.387
283.485
297.525
291.39
286.124
283.511
299.721
292.419
286.703
283.685
298.534
292.135
286.488
283.771
300.333
292.841
286.932
283.836
299.146
292.55
286.716
283.933
279.283
277.163
275.754
274.905
274.509
279.294
277.168
275.756
274.906
274.51
279.324
277.182
275.763
274.91
274.512
279.344
277.193
275.769
274.913
274.514
279.365
277.202
275.773
274.915
274.516
279.413
277.229
275.787
274.923
274.521
279.513
277.282
275.815
274.939
274.531
279.608
277.335
275.844
274.955
274.542
279.462
277.25
275.798
274.929
274.525
279.477
277.253
275.798
274.929
274.525
279.411
277.224
275.783
274.921
274.519
279.445
277.237
275.79
274.924
274.521
279.521
277.283
275.815
274.939
274.531
279.533
277.285
275.815
274.939
274.531
279.621
277.341
275.847
274.956
274.543
279.631
277.341
275.846
274.956
274.543
279.27
277.158
275.751
274.903
274.508
279.265
277.154
275.749
274.902
274.507
279.302
277.172
275.757
274.907
274.51
279.294
277.166
275.755
274.905
274.509
279.342
277.189
275.766
274.911
274.513
279.333
277.183
275.762
274.909
274.511
279.388
277.209
275.775
274.916
274.516
279.373
277.201
275.771
274.914
274.514
279.419
277.224
275.783
274.92
274.519
532.698
527.34
532.044
526.669
530.868
525.53
529.507
524.005
528.573
522.757
530.361
527.154
529.413
525.317
530.896
527.895
531.334
528.323
564.484
571.117
572.572
572.904
572.976
557.365
569.195
572.134
572.81
572.953
564.62
571.18
572.59
572.909
572.977
557.37
569.25
572.154
572.816
572.955
564.674
571.233
572.607