/*--------------------------------*- C++ -*----------------------------------*\
| =========                 |                                                 |
| \\      /  F ield         | OpenFOAM: The Open Source CFD Toolbox           |
|  \\    /   O peration     | Version:  2412                                  |
|   \\  /    A nd           | Website:  www.openfoam.com                      |
|    \\/     M anipulation  |                                                 |
\*---------------------------------------------------------------------------*/
FoamFile
{
    version     2.0;
    format      ascii;
    arch        "LSB;label=32;scalar=64";
    class       volScalarField;
    location    "70/leftSolid";
    object      T;
}
// * * * * * * * * * * * * * * * * * * * * * * * * * * * * * * * * * * * * * //

dimensions      [0 0 0 1 0 0 0];

internalField   nonuniform List<scalar> 
130
(
300.00367
300.00413
300.00506
300.00652
300.00858
300.01131
300.01477
300.01897
300.02385
300.02917
300.03455
300.03933
300.04272
300.00383
300.00433
300.00535
300.00696
300.00927
300.01238
300.01642
300.02149
300.02761
300.03464
300.04218
300.04942
300.05491
300.0041
300.00466
300.00582
300.00769
300.01042
300.0142
300.01929
300.02597
300.03451
300.04509
300.05759
300.07122
300.08356
300.00437
300.00499
300.00631
300.00845
300.01163
300.01615
300.02244
300.03107
300.04275
300.05837
300.07892
300.10509
300.13493
300.00453
300.0052
300.00661
300.00893
300.01241
300.01743
300.02457
300.03463
300.04882
300.06893
300.09786
300.14034
300.20162
300.00453
300.0052
300.00661
300.00893
300.01241
300.01743
300.02457
300.03463
300.04882
300.06893
300.09786
300.14034
300.20162
300.00437
300.00499
300.00631
300.00845
300.01163
300.01615
300.02244
300.03107
300.04275
300.05837
300.07892
300.10509
300.13493
300.0041
300.00466
300.00582
300.00769
300.01042
300.0142
300.01929
300.02597
300.03451
300.04509
300.05759
300.07122
300.08356
300.00383
300.00433
300.00535
300.00696
300.00927
300.01238
300.01642
300.02149
300.02761
300.03464
300.04218
300.04942
300.05491
300.00367
300.00413
300.00506
300.00652
300.00858
300.01131
300.01477
300.01897
300.02385
300.02917
300.03455
300.03933
300.04272
)
;

boundaryField
{
    minX
    {
        type            zeroGradient;
    }
    minZ
    {
        type            zeroGradient;
    }
    maxZ
    {
        type            zeroGradient;
    }
    leftSolid_to_bottomWater
    {
        type            compressible::turbulentTemperatureRadCoupledMixed;
        refValue        nonuniform List<scalar> 
130
(
300.00007
300.00013
300.00019
300.00027
300.00037
300.00052
300.00072
300.00097
300.00129
300.00166
300.00209
300.00325
300.02628
300.00007
300.00014
300.0002
300.00028
300.00039
300.00054
300.00075
300.00104
300.00142
300.0019
300.00263
300.00751
300.07885
300.00008
300.00015
300.00022
300.00031
300.00044
300.00063
300.0009
300.00128
300.00181
300.00256
300.0045
300.0342
300.54352
300.00009
300.00016
300.00024
300.00035
300.0005
300.00073
300.00107
300.00157
300.0023
300.00345
300.00874
300.13035
302.65043
300.00009
300.00017
300.00025
300.00037
300.00054
300.0008
300.00119
300.00179
300.0027
300.00431
300.01608
300.34932
309.26637
300.00009
300.00017
300.00025
300.00037
300.00054
300.0008
300.00119
300.00179
300.0027
300.00431
300.01608
300.34932
309.26636
300.00009
300.00016
300.00024
300.00035
300.0005
300.00073
300.00107
300.00157
300.0023
300.00345
300.00874
300.13035
302.65042
300.00008
300.00015
300.00022
300.00031
300.00044
300.00063
300.0009
300.00128
300.00181
300.00256
300.0045
300.0342
300.54352
300.00007
300.00014
300.0002
300.00028
300.00039
300.00054
300.00075
300.00104
300.00142
300.0019
300.00263
300.00751
300.07885
300.00007
300.00013
300.00019
300.00027
300.00037
300.00052
300.00072
300.00097
300.00129
300.00166
300.00209
300.00325
300.02628
)
;
        refGradient     uniform 0;
        valueFraction   uniform 0.0075140686;
        source          uniform 0;
        logInterval     -1;
        writePrecision  8;
        updateHeader    1;
        writeToFile     0;
        useUserTime     1;
        kappaMethod     solidThermo;
        value           nonuniform List<scalar> 
130
(
300.00364
300.00409
300.00501
300.00646
300.00851
300.01122
300.01465
300.01882
300.02365
300.02894
300.03427
300.03903
300.04256
300.0038
300.00429
300.0053
300.0069
300.00919
300.01228
300.01629
300.02132
300.02739
300.03436
300.04185
300.04906
300.05504
300.00406
300.00461
300.00577
300.00762
300.01033
300.01408
300.01913
300.02576
300.03424
300.04473
300.05715
300.0709
300.08697
300.00433
300.00495
300.00625
300.00837
300.01153
300.01602
300.02226
300.03082
300.04241
300.05792
300.07835
300.10522
300.15376
300.00449
300.00516
300.00656
300.00885
300.0123
300.01729
300.02437
300.03436
300.04843
300.0684
300.09719
300.14184
300.26965
300.00449
300.00516
300.00656
300.00885
300.0123
300.01729
300.02437
300.03436
300.04843
300.0684
300.09719
300.14184
300.26965
300.00433
300.00495
300.00625
300.00837
300.01153
300.01602
300.02226
300.03082
300.04241
300.05792
300.07835
300.10522
300.15376
300.00406
300.00461
300.00577
300.00762
300.01033
300.01408
300.01913
300.02576
300.03424
300.04473
300.05715
300.0709
300.08697
300.0038
300.00429
300.0053
300.0069
300.00919
300.01228
300.01629
300.02132
300.02739
300.03436
300.04185
300.04906
300.05504
300.00364
300.00409
300.00501
300.00646
300.00851
300.01122
300.01465
300.01882
300.02365
300.02894
300.03427
300.03903
300.04256
)
;
    }
    leftSolid_to_heater
    {
        type            compressible::turbulentTemperatureRadCoupledMixed;
        refValue        nonuniform List<scalar> 10(323.63866 327.4982 335.6568 348.96233 368.41714 368.41715 348.96234 335.6568 327.49819 323.63861);
        refGradient     uniform 0;
        valueFraction   uniform 2.0832466e-05;
        source          uniform 0;
        logInterval     -1;
        thicknessLayers List<scalar> 1(0.001);
        kappaLayers     List<scalar> 1(0.0005);
        writePrecision  8;
        updateHeader    1;
        writeToFile     0;
        useUserTime     1;
        kappaMethod     solidThermo;
        value           nonuniform List<scalar> 10(300.04318 300.05543 300.08425 300.13588 300.20296 300.20296 300.13588 300.08425 300.05543 300.04318);
    }
    leftSolid_to_topAir
    {
        type            compressible::turbulentTemperatureRadCoupledMixed;
        refValue        nonuniform List<scalar> 
130
(
300.00015
300.00032
300.00053
300.0008
300.00115
300.00162
300.00223
300.00303
300.00405
300.00529
300.00683
300.01042
300.06348
300.00016
300.00034
300.00055
300.00082
300.00118
300.00166
300.0023
300.00314
300.00421
300.00555
300.00721
300.0105
300.05571
300.00017
300.00036
300.00059
300.0009
300.0013
300.00186
300.00261
300.00362
300.00497
300.00672
300.009
300.01344
300.06998
300.00018
300.00039
300.00064
300.00097
300.00143
300.00207
300.00295
300.00418
300.00588
300.00819
300.0114
300.01791
300.09614
300.00019
300.0004
300.00067
300.00102
300.00151
300.00221
300.00318
300.00457
300.00652
300.0093
300.01336
300.0223
300.13115
300.00019
300.0004
300.00067
300.00102
300.00151
300.00221
300.00318
300.00457
300.00652
300.0093
300.01336
300.0223
300.13115
300.00018
300.00039
300.00064
300.00097
300.00143
300.00207
300.00295
300.00418
300.00588
300.00819
300.0114
300.01791
300.09614
300.00017
300.00036
300.00059
300.0009
300.0013
300.00186
300.00261
300.00362
300.00497
300.00672
300.009
300.01344
300.06998
300.00016
300.00034
300.00055
300.00082
300.00118
300.00166
300.0023
300.00314
300.00421
300.00555
300.00721
300.0105
300.05571
300.00015
300.00032
300.00053
300.0008
300.00115
300.00162
300.00223
300.00303
300.00405
300.00529
300.00683
300.01042
300.06348
)
;
        refGradient     uniform 0;
        valueFraction   uniform 0.00032132529;
        source          uniform 0;
        logInterval     -1;
        writePrecision  8;
        updateHeader    1;
        writeToFile     0;
        useUserTime     1;
        kappaMethod     solidThermo;
        value           nonuniform List<scalar> 
130
(
300.00366
300.00412
300.00505
300.00651
300.00857
300.0113
300.01475
300.01895
300.02381
300.02913
300.0345
300.03929
300.04269
300.00383
300.00432
300.00534
300.00695
300.00925
300.01236
300.0164
300.02147
300.02757
300.0346
300.04213
300.04936
300.05486
300.00409
300.00465
300.00581
300.00768
300.0104
300.01418
300.01927
300.02594
300.03447
300.04504
300.05753
300.07115
300.0835
300.00436
300.00498
300.0063
300.00843
300.01161
300.01613
300.02242
300.03103
300.0427
300.05831
300.07885
300.105
300.13485
300.00452
300.00519
300.0066
300.00892
300.01239
300.01741
300.02454
300.0346
300.04877
300.06887
300.09777
300.14023
300.20152
300.00452
300.00519
300.0066
300.00892
300.01239
300.01741
300.02454
300.0346
300.04877
300.06887
300.09777
300.14023
300.20152
300.00436
300.00498
300.0063
300.00843
300.01161
300.01613
300.02242
300.03103
300.0427
300.05831
300.07885
300.105
300.13485
300.00409
300.00465
300.00581
300.00768
300.0104
300.01418
300.01927
300.02594
300.03447
300.04504
300.05753
300.07115
300.0835
300.00383
300.00432
300.00534
300.00695
300.00925
300.01236
300.0164
300.02147
300.02757
300.0346
300.04213
300.04936
300.05486
300.00366
300.00412
300.00505
300.00651
300.00857
300.0113
300.01475
300.01895
300.02381
300.02913
300.0345
300.03929
300.04269
)
;
    }
}


// ************************************************************************* //
