/*--------------------------------*- C++ -*----------------------------------*\
| =========                 |                                                 |
| \\      /  F ield         | OpenFOAM: The Open Source CFD Toolbox           |
|  \\    /   O peration     | Version:  2412                                  |
|   \\  /    A nd           | Website:  www.openfoam.com                      |
|    \\/     M anipulation  |                                                 |
\*---------------------------------------------------------------------------*/
FoamFile
{
    version     2.0;
    format      ascii;
    arch        "LSB;label=32;scalar=64";
    class       surfaceScalarField;
    location    "5/air";
    object      phi;
}
// * * * * * * * * * * * * * * * * * * * * * * * * * * * * * * * * * * * * * //

dimensions      [1 0 -1 0 0 0 0];

oriented        oriented;

internalField   nonuniform List<scalar> 
111140
(
-6.20138e-05
-5.37604e-05
-0.000336953
7.21033e-05
-3.16491e-05
-0.000292425
9.51431e-05
-3.57457e-05
-0.000191149
0.000109269
-2.57236e-05
-0.000163326
0.000111432
-1.64836e-05
-0.000126859
0.000112329
-8.42051e-06
-9.95291e-05
0.000110664
-2.96326e-06
-7.23792e-05
0.000108416
6.89486e-07
-4.98765e-05
0.000106078
2.44271e-06
-3.1497e-05
0.000103762
-3.44343e-08
-1.66008e-05
0.000108293
-1.36477e-05
-4.46093e-06
0.000120855
-3.84497e-05
3.60326e-06
0.000137732
-7.06617e-05
7.89982e-06
0.000154341
-0.000102873
9.52043e-06
0.000167958
-0.000133273
1.04286e-05
0.000176456
-0.000160414
1.20008e-05
0.000178492
-0.00018202
1.40148e-05
0.000173619
-0.000194909
1.57819e-05
0.000161898
-0.000196682
1.64039e-05
-0.000184164
1.33669e-05
-3.44354e-05
8.74219e-05
-0.000287771
8.22323e-05
9.64867e-05
-0.000244804
9.48009e-05
0.000104307
-0.000152622
0.000101345
0.000101637
-0.000133905
9.73906e-05
8.9966e-05
-0.000102495
8.98387e-05
7.57072e-05
-7.65758e-05
8.23072e-05
5.92091e-05
-5.46408e-05
7.42627e-05
4.0414e-05
-3.16799e-05
7.07134e-05
1.96674e-05
-1.36754e-05
8.19796e-05
-7.86683e-06
-3.43381e-06
0.00010727
-4.52912e-05
6.35314e-06
0.000135672
-8.0337e-05
1.34854e-05
0.000158482
-0.000110349
1.68775e-05
0.000174636
-0.000137216
1.81879e-05
0.000184112
-0.00016184
1.90906e-05
0.000186885
-0.000183352
2.0165e-05
0.000182498
-0.000198707
2.10745e-05
0.000170813
-0.000204273
2.1049e-05
0.000152238
-0.000197403
1.92962e-05
-0.000178122
1.36238e-05
-3.98457e-05
0.000121547
-0.000185862
8.49433e-05
0.000123459
-0.000151762
0.000109462
0.000137581
-5.77915e-05
0.000122134
0.000133072
-4.41069e-05
0.00012752
0.000112269
-2.76894e-05
0.000127355
8.69738e-05
-1.11014e-05
0.000119912
5.97775e-05
6.8749e-06
0.000116785
2.46715e-05
1.88695e-05
0.000126495
-1.59565e-05
2.59131e-05
0.000145486
-5.73632e-05
3.05051e-05
0.000163272
-9.26565e-05
2.95796e-05
0.00017755
-0.000120784
2.61691e-05
0.000187968
-0.000143742
2.29751e-05
0.000193854
-0.000164409
2.13066e-05
0.000194729
-0.000184355
2.1641e-05
0.000189841
-0.000201288
2.28246e-05
0.000178006
-0.000210478
2.3606e-05
0.000158982
-0.00020802
2.27709e-05
0.000133348
-0.000191089
1.93197e-05
-0.000165299
1.24959e-05
-2.56758e-05
0.000126505
-0.000134326
8.32566e-05
0.0001188
-0.000104273
0.00011028
0.000134194
-2.36363e-05
0.000123453
0.000124695
-4.79665e-06
0.000128941
9.65388e-05
1.02428e-05
0.000127086
6.08292e-05
2.79995e-05
0.000132502
1.45363e-05
3.98257e-05
0.000146572
-3.64412e-05
4.70425e-05
0.000164355
-8.0054e-05
4.63142e-05
0.000179045
-0.000111078
3.90251e-05
0.000189642
-0.000133771
3.05182e-05
0.000196779
-0.000151849
2.39276e-05
0.000200781
-0.000168093
2.03493e-05
0.000200988
-0.000184736
2.01192e-05
0.000196242
-0.000202148
2.25388e-05
0.000185177
-0.000215084
2.48606e-05
0.00016642
-0.000217379
2.56584e-05
0.000140353
-0.00020577
2.38165e-05
0.000108322
-0.000177153
1.80957e-05
-0.00014727
1.14493e-05
-1.53696e-05
0.000104327
-8.47525e-05
6.79323e-05
8.27817e-05
-4.72835e-05
8.48963e-05
0.000102365
1.48649e-05
9.55952e-05
7.96118e-05
3.43841e-05
0.00010998
2.86577e-05
5.34961e-05
0.00012821
-3.50694e-06
6.75443e-05
-8.1766e-06
-4.33312e-06
-8.92808e-06
0.000151599
-1.80864e-05
7.10935e-05
-2.18562e-05
-1.8065e-05
-2.19392e-05
0.000173358
-2.90972e-05
6.09238e-05
-3.14284e-05
-2.87048e-05
-2.98928e-05
0.000187165
-3.60496e-05
4.4985e-05
-3.76597e-05
-3.265e-05
-3.24868e-05
0.000195915
-4.07764e-05
3.09637e-05
-4.21046e-05
-3.39175e-05
-3.39934e-05
0.000201718
-4.4523e-05
2.17076e-05
-4.57551e-05
-3.52979e-05
-3.57066e-05
0.000205252
-4.79046e-05
1.66348e-05
-4.91442e-05
-3.71264e-05
-3.78417e-05
0.000205848
-5.13248e-05
1.55416e-05
-5.26097e-05
-3.96195e-05
-4.06772e-05
0.000201928
-5.49562e-05
1.81155e-05
-5.6173e-05
-4.30345e-05
-4.47672e-05
0.000192085
-5.84212e-05
2.32193e-05
-5.93025e-05
-4.79135e-05
-4.98871e-05
0.00017452
-0.000224062
2.65434e-05
0.000148805
-0.000218627
2.69632e-05
0.0001162
-0.00019694
2.37748e-05
7.92273e-05
-0.000155111
1.49308e-05
-0.000126399
1.02509e-05
-3.17481e-05
5.18882e-05
-2.87578e-05
2.32867e-05
3.12152e-05
-3.4683e-06
4.66291e-05
1.64706e-05
6.25519e-05
8.15673e-05
-2.93396e-05
7.40132e-05
2.87627e-05
-8.1085e-05
7.68166e-05
2.99404e-05
2.73171e-05
2.84733e-05
2.99127e-05
-1.65755e-05
1.19185e-05
-3.46934e-05
3.73288e-05
-2.97861e-05
9.0642e-06
-4.17384e-05
4.42085e-05
-3.74421e-05
5.87488e-06
-4.77244e-05
4.97068e-05
-4.17714e-05
3.73943e-06
-5.22013e-05
5.36707e-05
-4.51249e-05
2.87902e-06
-5.54118e-05
5.64421e-05
-4.83591e-05
2.80567e-06
-5.76256e-05
5.81782e-05
-5.15694e-05
3.11226e-06
-5.87839e-05
5.86863e-05
-5.50094e-05
3.78231e-06
-5.85631e-05
5.75361e-05
-5.85598e-05
4.63064e-06
-5.6431e-05
5.40841e-05
-6.14325e-05
5.35806e-06
0.000157383
-0.000227873
2.66783e-05
-5.05335e-05
-4.93344e-05
-4.1073e-05
-3.93098e-05
0.000125856
-0.000214515
2.74152e-05
8.81087e-05
-0.000181758
2.25657e-05
4.9161e-05
-0.00012557
9.40659e-06
-0.000106589
8.54994e-06
-5.61404e-05
-2.68782e-05
1.15186e-05
-6.64231e-07
-3.15692e-05
7.30817e-06
4.45043e-05
-8.74682e-05
5.87702e-05
9.39087e-05
-0.000131093
5.23487e-05
3.17012e-05
-0.000157876
4.37821e-05
3.24503e-05
3.0926e-05
3.18399e-05
2.91929e-05
3.50783e-05
-3.81288e-05
5.5588e-06
3.86949e-05
-3.79264e-05
8.47709e-07
1.16888e-06
1.00715e-06
1.0483e-06
1.02262e-05
1.01374e-05
1.01526e-05
1.0251e-05
-1.15775e-05
-1.12401e-05
-1.12616e-05
-1.15287e-05
-1.11015e-05
1.09097e-05
1.16307e-05
-1.16443e-05
2.05322e-07
-1.29025e-05
1.14732e-05
1.31918e-05
-1.19718e-05
2.09288e-07
-1.38811e-05
1.20037e-05
1.40447e-05
-1.24338e-05
2.66426e-07
-1.44981e-05
1.26632e-05
1.46023e-05
-1.30369e-05
2.69523e-07
-1.48465e-05
1.33502e-05
1.4857e-05
-1.3668e-05
3.07241e-07
-1.47654e-05
1.41281e-05
1.4643e-05
-1.43752e-05
3.69417e-07
-1.42046e-05
1.4965e-05
-1.51064e-05
3.4149e-07
1.40045e-05
-5.42968e-05
6.31562e-05
5.14186e-05
-6.40269e-05
3.74883e-06
0.000136968
-0.00022687
2.5903e-05
-4.68767e-05
-4.5571e-05
-3.64305e-05
-3.49963e-05
9.97132e-05
-0.000205303
2.80429e-05
5.84792e-05
-0.000160694
2.01702e-05
2.24606e-05
-9.17784e-05
2.227e-06
-9.05291e-05
3.0569e-06
-3.75334e-05
-8.52006e-05
-2.05688e-05
3.47048e-05
-7.19349e-05
-3.18724e-05
7.42252e-05
-0.000140084
1.30954e-05
0.000105806
-0.000176613
1.39393e-05
3.28445e-05
-0.000197731
1.30264e-05
3.35276e-05
3.28158e-05
3.34476e-05
4.46725e-05
3.62643e-05
-4.91191e-05
1.0268e-06
1.25458e-05
-9.69389e-06
1.0161e-05
-1.30708e-05
5.78491e-08
1.37232e-05
-1.2057e-05
1.26643e-05
-1.41373e-05
-5.03385e-08
-4.45541e-08
-8.02537e-08
-1.79877e-08
-1.35582e-05
1.35351e-05
1.37466e-05
-1.39527e-05
5.85965e-08
4.78043e-08
-4.28184e-09
1.27041e-07
-1.41802e-05
1.38636e-05
1.43013e-05
-1.42629e-05
6.68635e-08
6.54671e-08
4.10289e-09
1.41643e-07
-1.45962e-05
1.43103e-05
1.46542e-05
-1.46631e-05
7.24837e-08
6.66045e-08
8.54378e-09
1.47123e-07
-1.47595e-05
1.47558e-05
1.47074e-05
-1.50455e-05
8.6178e-08
7.77394e-08
1.95864e-08
1.58331e-07
-1.44183e-05
1.51243e-05
1.42396e-05
-1.53173e-05
9.76748e-08
7.82655e-08
2.75851e-08
1.68066e-07
-1.34547e-05
1.54827e-05
-1.55668e-05
1.33003e-05
4.7243e-08
1.07903e-07
7.04208e-08
1.29139e-08
-1.25982e-05
6.43821e-05
4.79314e-05
-6.4311e-05
3.0454e-06
-1.24445e-05
-1.30928e-05
-1.29123e-05
0.000115449
-0.000221176
2.84406e-05
-4.30715e-05
-4.17945e-05
-3.2768e-05
-3.19501e-05
7.11193e-05
-0.000191187
3.02142e-05
2.8953e-05
-0.000135596
1.70678e-05
3.21231e-06
-6.02366e-05
-5.80113e-06
-8.28966e-05
-3.15808e-06
-3.216e-05
-0.000114122
-5.70214e-05
4.85706e-05
-9.79104e-05
-5.47551e-05
8.72836e-05
-0.00017066
-8.13694e-06
0.000117921
-0.000202305
-4.9454e-06
3.51238e-05
-0.000219729
-2.47835e-06
3.60869e-05
3.52075e-05
3.59785e-05
5.29373e-05
3.85953e-05
-5.54372e-05
-9.71646e-07
1.42353e-05
-1.01522e-05
1.05476e-05
-1.44883e-05
-1.42465e-07
1.4782e-05
-1.23324e-05
1.29924e-05
-1.49434e-05
-1.10155e-07
-1.28531e-07
-7.95411e-08
-1.80433e-07
1.46209e-05
-1.385e-05
1.39968e-05
-1.47442e-05
-3.98023e-09
-1.11915e-08
-8.77926e-08
7.94794e-08
1.48997e-05
-1.43136e-05
1.43894e-05
-1.50122e-05
1.25798e-08
5.30041e-09
-7.79571e-08
9.67465e-08
1.52229e-05
-1.45317e-05
1.45489e-05
-1.53099e-05
2.35152e-08
1.16482e-08
-7.17022e-08
1.0632e-07
1.54813e-05
-1.44679e-05
1.4399e-05
-1.55392e-05
3.82317e-08
2.4884e-08
-5.87723e-08
1.22407e-07
1.56053e-05
-1.41021e-05
1.39701e-05
-1.56261e-05
4.09421e-08
3.50052e-08
-5.04086e-08
1.27283e-07
-1.327e-05
1.58929e-05
-1.59491e-05
1.29724e-05
8.10642e-08
1.32337e-07
9.63983e-08
4.39094e-08
-1.19525e-05
6.39101e-05
4.47375e-05
-6.29215e-05
2.72574e-06
-1.18382e-05
-1.23877e-05
-1.22734e-05
9.08441e-05
-0.000210616
3.44789e-05
-3.90726e-05
-3.75777e-05
-2.99711e-05
-2.9261e-05
3.93136e-05
-0.000172744
3.30868e-05
2.31933e-07
-0.000110874
1.43595e-05
-5.90121e-06
-4.2364e-05
-1.17394e-05
-8.66632e-05
-6.82576e-06
-3.50903e-05
-0.000132748
-8.45522e-05
6.06319e-05
-0.000117938
-7.56948e-05
0.000100705
-0.00019032
-2.04131e-05
0.000131411
-0.000218718
-1.42935e-05
3.82701e-05
-0.000233024
-1.01665e-05
3.94381e-05
3.80794e-05
3.90847e-05
5.76953e-05
4.17116e-05
-5.91145e-05
-2.02232e-06
1.51113e-05
-1.08668e-05
1.12439e-05
-1.52572e-05
-2.31172e-07
1.52844e-05
-1.29968e-05
1.37055e-05
-1.53992e-05
-1.30333e-07
-1.58919e-07
-9.5804e-08
-2.08789e-07
1.50589e-05
-1.45416e-05
1.46616e-05
-1.51536e-05
-4.09898e-09
-1.20341e-08
-9.18568e-08
8.26738e-08
1.52979e-05
-1.4845e-05
1.48726e-05
-1.5386e-05
1.86232e-08
1.12491e-08
-7.55963e-08
1.06068e-07
1.55106e-05
-1.48589e-05
1.47857e-05
-1.55881e-05
4.81118e-08
2.69294e-08
-5.43207e-08
1.30001e-07
1.56593e-05
-1.44889e-05
1.43737e-05
-1.56808e-05
3.47826e-08
3.32018e-08
-5.75008e-08
1.26154e-07
1.55807e-05
-1.40099e-05
1.38592e-05
-1.55243e-05
2.46865e-08
2.2586e-08
-6.49008e-08
1.1198e-07
-1.29654e-05
1.56775e-05
-1.55392e-05
1.25979e-05
4.65104e-08
1.18455e-07
6.56264e-08
-1.3781e-09
-1.13169e-05
6.16016e-05
4.09697e-05
-5.99664e-05
3.20071e-06
-1.11587e-05
-1.17478e-05
-1.15822e-05
6.07431e-05
-0.000195875
4.29896e-05
-3.40074e-05
-3.19781e-05
-2.67507e-05
-2.57372e-05
6.89328e-06
-0.000153871
3.49769e-05
-1.66144e-05
-9.98518e-05
1.24858e-05
-4.05775e-06
-4.06056e-05
-1.43151e-05
-9.52974e-05
-9.90784e-06
-4.24423e-05
-0.00014504
-0.000112727
7.19393e-05
-0.000133309
-9.90101e-05
0.000115792
-0.000204001
-3.01716e-05
0.000147294
-0.00022988
-2.03398e-05
4.22167e-05
-0.000241333
-1.47925e-05
4.3455e-05
4.18107e-05
4.29127e-05
6.07289e-05
4.56718e-05
-6.15132e-05
-2.67082e-06
1.57382e-05
-1.18353e-05
1.2216e-05
-1.58342e-05
-2.84723e-07
1.57252e-05
-1.38495e-05
1.45041e-05
-1.5826e-05
-1.2223e-07
-1.47495e-07
-7.80616e-08
-2.06009e-07
1.5408e-05
-1.51994e-05
1.52555e-05
-1.54864e-05
9.36296e-09
-2.14333e-09
-8.24506e-08
9.75115e-08
1.56455e-05
-1.5223e-05
1.52106e-05
-1.57215e-05
2.35105e-08
2.06832e-08
-7.30466e-08
1.17275e-07
1.59825e-05
-1.51072e-05
1.49539e-05
-1.60293e-05
2.00184e-07
1.56543e-05
-1.43709e-05
1.42553e-05
-1.55946e-05
1.0362e-08
1.88593e-08
-7.62958e-08
1.02894e-07
1.52526e-05
-1.38463e-05
1.36685e-05
-1.51391e-05
1.954e-08
1.22551e-08
-7.0329e-08
1.02705e-07
-1.26857e-05
1.51379e-05
-1.50468e-05
1.22461e-05
7.74618e-08
1.37933e-07
9.93493e-08
3.36426e-08
-1.04603e-05
5.83848e-05
3.59573e-05
-5.65191e-05
4.37733e-06
-1.02924e-05
-1.08211e-05
-1.06267e-05
2.50831e-05
-0.000178452
5.25135e-05
-2.72244e-05
-2.45429e-05
-2.22893e-05
-2.0964e-05
-1.92454e-05
-0.000143787
3.42452e-05
-2.52042e-05
-0.000107318
1.34248e-05
-9.82165e-07
-5.0723e-05
-1.41047e-05
-0.000105974
-1.49464e-05
-5.25878e-05
-0.000152603
-0.00014241
8.26884e-05
-0.000144819
-0.000123766
0.000131562
-0.000213198
-3.96758e-05
0.000164154
-0.000236763
-2.57088e-05
4.64648e-05
-0.0002455
-1.87901e-05
4.77099e-05
4.59026e-05
4.70338e-05
6.25602e-05
4.98537e-05
-6.27572e-05
-3.19192e-06
1.61004e-05
-1.2816e-05
1.31745e-05
-1.61023e-05
-3.56639e-07
1.59743e-05
-1.46523e-05
1.52036e-05
-1.59752e-05
-1.22241e-07
-1.43057e-07
-8.69749e-08
-1.98047e-07
1.57063e-05
-1.56073e-05
1.55661e-05
-1.5777e-05
3.22629e-08
2.19158e-08
-6.38675e-08
1.2156e-07
1.58852e-05
-1.52924e-05
1.51803e-05
-1.59219e-05
3.77277e-08
3.61376e-08
-5.68067e-08
1.31734e-07
1.57725e-05
-1.48051e-05
1.46691e-05
-1.57171e-05
2.05384e-08
1.92314e-08
-7.18233e-08
1.12648e-07
1.5308e-05
-1.42395e-05
1.40892e-05
-1.51897e-05
8.97029e-09
6.41009e-09
-8.01398e-08
9.67461e-08
1.47285e-05
-1.35947e-05
1.33942e-05
-1.45642e-05
1.18108e-08
5.6678e-09
-7.42541e-08
9.29245e-08
-1.23038e-05
1.45597e-05
-1.43184e-05
1.17955e-05
5.17796e-08
1.06844e-07
7.87267e-08
2.95874e-08
-9.46215e-06
5.45524e-05
2.95633e-05
-5.20653e-05
5.83783e-06
-9.26455e-06
-9.69854e-06
-9.46291e-06
-1.02135e-05
-0.000163131
5.88194e-05
-1.84267e-05
-1.48298e-05
-1.63585e-05
-1.43116e-05
-4.00674e-05
-0.000145636
3.17025e-05
-3.52916e-05
-0.000120487
8.3934e-06
4.43824e-07
-6.70335e-05
-1.94248e-05
-0.000118396
-2.28626e-05
-6.46885e-05
-0.000155549
-0.000173863
9.24171e-05
-0.000152496
-0.000149429
0.000146864
-0.000217957
-4.96881e-05
0.000180827
-0.00023926
-3.1466e-05
5.07862e-05
-0.000245606
-2.31105e-05
5.19542e-05
5.01108e-05
5.11925e-05
6.32785e-05
5.41609e-05
-6.29875e-05
-3.66563e-06
1.60983e-05
-1.38245e-05
1.41254e-05
-1.60249e-05
-3.74247e-07
1.5905e-05
-1.50693e-05
1.54865e-05
-1.58347e-05
-1.04748e-07
-1.34402e-07
-5.79948e-08
-1.90324e-07
1.59449e-05
-1.55983e-05
1.55146e-05
-1.59408e-05
1.3744e-08
2.00207e-08
-6.87628e-08
1.1471e-07
1.59102e-05
-1.5205e-05
1.50933e-05
-1.58057e-05
-5.25335e-09
8.43397e-10
-8.4386e-08
9.59503e-08
1.54202e-05
-1.47176e-05
1.45761e-05
-1.52294e-05
-1.61197e-08
-1.34876e-08
-9.67825e-08
7.71954e-08
1.46989e-05
-1.40944e-05
1.39169e-05
-1.44551e-05
-1.92532e-08
-1.77537e-08
-9.76463e-08
6.83421e-08
1.39592e-05
-1.33259e-05
1.30913e-05
-1.36861e-05
-1.17962e-08
-1.21991e-08
-8.51206e-08
7.064e-08
-1.18536e-05
1.35401e-05
-1.32357e-05
1.1186e-05
6.99784e-08
1.33039e-07
1.12492e-07
4.77106e-08
-8.15948e-06
4.95215e-05
2.11271e-05
-4.65335e-05
8.03604e-06
-7.88422e-06
-8.20332e-06
-7.90425e-06
-4.12472e-05
-0.000155373
5.7833e-05
-7.6033e-06
-3.01929e-06
-8.55111e-06
-5.16965e-06
-5.83433e-05
-0.000155493
2.69532e-05
-4.58933e-05
-0.000135421
2.48371e-06
2.91498e-06
-8.55618e-05
-3.028e-05
-0.000131429
-3.40599e-05
-7.83131e-05
-0.000153889
-0.000205928
0.000100276
-0.000156244
-0.000174841
0.000160356
-0.000217586
-6.04516e-05
0.000195756
-0.000236503
-3.81564e-05
5.48047e-05
-0.000241042
-2.82505e-05
5.55782e-05
5.41077e-05
5.49519e-05
6.30678e-05
5.82686e-05
-6.22827e-05
-4.24904e-06
1.58965e-05
-1.49112e-05
1.5179e-05
-4.19658e-07
-1.57447e-05
1.54164e-05
-1.55688e-05
1.56557e-05
-1.51731e-05
-7.07694e-08
-1.22805e-07
-7.79589e-08
-5.86705e-08
1.51996e-05
-1.57548e-05
1.57801e-05
-1.45693e-05
-1.8292e-07
-2.31538e-07
-1.46281e-07
-9.47853e-08
1.47203e-05
-1.5651e-05
1.55568e-05
-1.39789e-05
-1.8131e-07
-2.26293e-07
-1.41869e-07
-9.76149e-08
1.39064e-05
-1.51395e-05
1.49396e-05
-1.31574e-05
-1.52914e-07
-2.06224e-07
-1.21147e-07
-6.89443e-08
1.30794e-05
-1.43764e-05
1.41669e-05
-1.23292e-05
-1.52223e-07
-1.95407e-07
-1.19112e-07
-7.3962e-08
1.22282e-05
-1.32101e-05
1.28625e-05
-1.1511e-05
-1.10237e-07
-1.60231e-07
-7.49516e-08
-2.41043e-08
1.18834e-05
-1.12676e-05
1.02711e-05
-1.12213e-05
5.74075e-08
9.88073e-08
7.72926e-08
1.00993e-07
-6.23078e-06
4.34846e-05
9.97686e-06
-4.00673e-05
1.10367e-05
-6.32626e-06
-5.88289e-06
-5.99091e-06
-6.88572e-05
-0.000156217
5.03169e-05
4.09374e-06
8.29378e-06
1.33353e-06
5.66345e-06
-7.7934e-05
-0.000165416
1.89992e-05
-5.85471e-05
-0.000151192
-3.61604e-06
5.93524e-06
-0.00010455
-4.54943e-05
-0.000145027
-5.00945e-05
-9.33026e-05
-0.000147275
-0.00023758
0.000105191
-0.000155442
-0.000199295
0.000170558
-0.000210239
-7.27131e-05
0.0002071
-0.000226428
-4.66181e-05
5.7516e-05
-0.000229968
-3.45722e-05
5.77083e-05
5.73352e-05
5.8038e-05
6.16651e-05
6.06705e-05
-5.99104e-05
-4.90913e-06
6.1628e-05
-6.23404e-05
6.29777e-05
-5.95184e-05
-2.74686e-06
1.46594e-05
-6.33934e-05
6.33931e-05
-5.7023e-05
-1.589e-06
1.4506e-05
1.48022e-05
1.46447e-05
1.38634e-05
-6.33189e-05
6.27059e-05
-5.3984e-05
-8.24259e-07
1.37269e-05
1.3981e-05
1.38501e-05
1.31015e-05
-6.20028e-05
6.07189e-05
-5.07998e-05
-2.78543e-07
1.29622e-05
1.32166e-05
1.30819e-05
1.227e-05
-5.93775e-05
5.73593e-05
-4.73716e-05
3.79947e-07
1.21263e-05
1.23772e-05
1.22363e-05
1.14049e-05
-5.52127e-05
5.21655e-05
-4.37536e-05
1.30166e-06
1.12617e-05
1.14866e-05
1.1346e-05
1.05706e-05
-4.87111e-05
4.36486e-05
-3.98637e-05
2.77965e-06
1.04399e-05
1.06313e-05
1.05048e-05
9.72435e-06
-3.74357e-05
2.7334e-05
-3.48876e-05
6.38435e-06
9.72504e-06
9.57814e-06
9.57746e-06
3.73883e-05
-1.36211e-05
-1.75106e-06
-3.46453e-05
1.26292e-05
-9.39548e-05
-0.000157964
4.10951e-05
1.32239e-05
1.51463e-05
1.1816e-05
1.44205e-05
-9.81918e-05
-0.000170965
9.78608e-06
-7.24083e-05
-0.000163769
-1.32066e-05
1.02454e-05
-0.000122665
-6.45388e-05
-0.000157035
-7.3793e-05
-0.000109548
-0.000133531
-0.000269207
0.000106187
-0.000147219
-0.000223958
0.000176077
-0.000191713
-8.84169e-05
0.000213123
-0.00020515
-5.8323e-05
0.000234101
-0.000207948
-4.29978e-05
0.000242609
-0.000206105
-3.13296e-05
5.72166e-05
5.71076e-05
5.75757e-05
5.70264e-05
0.000243589
-0.000200742
-2.26889e-05
5.61081e-05
5.55464e-05
5.56761e-05
5.51209e-05
0.000239472
-0.000192376
-1.62623e-05
5.37523e-05
5.292e-05
5.33788e-05
5.27032e-05
0.000230977
-0.000181476
-1.1497e-05
5.08181e-05
4.99282e-05
5.07249e-05
4.9997e-05
0.00021795
-0.000168382
-7.43877e-06
4.75717e-05
4.66028e-05
4.77446e-05
4.69278e-05
0.000198559
-0.000153503
-2.22514e-06
4.40855e-05
4.30524e-05
4.44692e-05
4.35131e-05
0.000167326
-0.000137122
8.33992e-06
4.03873e-05
3.92744e-05
4.07334e-05
3.96202e-05
0.000114047
-0.00011784
2.72787e-05
3.66291e-05
3.54002e-05
3.64946e-05
3.53158e-05
1.43758e-05
-8.85287e-05
6.70631e-05
3.20636e-05
2.95294e-05
3.1119e-05
2.84252e-05
-7.69766e-05
-0.00011387
7.3605e-05
3.18345e-05
3.47918e-05
3.07453e-05
3.42455e-05
-0.000116881
-0.000150046
3.19858e-05
-0.000118855
-0.00016743
-1.56087e-06
-8.75784e-05
-0.000168236
-2.68088e-05
1.66256e-05
-0.000137009
-8.98599e-05
-0.00016384
-0.000107495
-0.000126302
-0.000100419
-0.000308084
0.00010162
-0.000119769
-0.000255373
0.0001749
-0.000154147
-0.000110845
0.000211958
-0.000167294
-7.49142e-05
0.000230041
-0.000171634
-5.43979e-05
0.000234881
-0.000171459
-3.94851e-05
0.000231475
-0.000168131
-2.92059e-05
0.000223113
-0.000161739
-2.22746e-05
0.000211403
-0.000152356
-1.74099e-05
0.000196464
-0.000140141
-1.33018e-05
0.000176174
-0.000125279
-7.93432e-06
0.000144327
-0.000108158
2.88252e-06
8.44528e-05
-8.45416e-05
2.65753e-05
-2.2919e-05
-5.02058e-05
6.9049e-05
-0.000104212
-9.44741e-05
6.18978e-05
-0.000137567
-0.000136431
1.97406e-05
-0.000137548
-0.000153789
-1.36598e-05
-0.000102704
-0.000159707
-4.33734e-05
2.58608e-05
-0.000141251
-0.000124323
-0.00015667
-0.000155754
-0.000146414
-3.98694e-05
-0.000350546
8.81566e-05
-6.2621e-05
-0.000291719
0.000162553
-8.22032e-05
-0.00014634
0.000197364
-9.69467e-05
-0.000105158
0.000209964
-0.000104484
-7.975e-05
0.000208917
-0.000107965
-6.24474e-05
0.000200642
-0.000108668
-5.11878e-05
0.000189177
-0.000106546
-4.37279e-05
0.00017638
-0.000101583
-3.79766e-05
0.00016223
-9.37442e-05
-3.22463e-05
0.000144269
-8.27186e-05
-2.4599e-05
0.000115099
-6.77678e-05
-1.12207e-05
5.78474e-05
-4.51611e-05
1.78715e-05
-3.8903e-05
-1.82678e-05
6.48125e-05
-0.00011046
-6.59411e-05
4.3024e-05
-0.000144239
-0.000101555
-1.09126e-06
-0.00014523
-0.000114533
-3.82641e-05
-0.000109858
-0.000121676
-7.34028e-05
3.73716e-05
-0.000117365
-0.000171116
-0.000118137
-0.000217924
-0.000137846
0.000155812
-0.000460013
6.71439e-05
0.000139614
-0.000407224
0.00012582
0.000148566
-0.000289445
0.000149691
0.00012753
-0.000248348
0.000151254
0.000109815
-0.000215861
0.000143411
9.29531e-05
-0.000193075
0.000132425
7.76003e-05
-0.000175282
0.000121478
6.38779e-05
-0.000159477
0.000111252
5.18358e-05
-0.000143193
0.000101264
4.16055e-05
-0.000125362
8.99575e-05
3.36666e-05
-0.000105079
7.35815e-05
2.97187e-05
-8.11105e-05
4.71021e-05
3.43999e-05
-5.30816e-05
-1.29217e-05
4.89777e-05
-7.22175e-06
-8.0342e-05
2.58064e-05
-2.4327e-05
-0.00012247
1.43573e-05
-7.37833e-05
-0.000133593
2.44722e-05
-0.000127879
-0.000107369
3.62801e-05
-0.00018418
3.26293e-05
3.08649e-05
-0.000288228
5.51999e-05
-0.000350008
-0.0001533
-0.000507551
4.39692e-05
-0.000458359
0.000104409
-0.000346134
0.000132377
-0.000299037
0.000137227
-0.000259178
0.000133087
-0.000231024
0.000126431
-0.000208949
0.000120723
-0.000189822
0.000116362
-0.000170344
0.000112136
-0.000148891
0.000105093
-0.000124027
8.83051e-05
-9.28922e-05
3.94234e-05
-4.63135e-05
-5.51442e-05
4.05254e-06
-0.000126788
-3.81243e-05
-0.000150674
-0.000106056
-0.000147848
-0.000160543
-0.000108064
-0.000227278
5.95628e-05
-0.00035087
-0.000419151
-2.71817e-05
-2.25643e-05
-0.000449026
1.45451e-05
-8.91764e-06
-0.000385775
2.7611e-05
-1.26487e-05
-0.00026822
3.91175e-05
-4.99105e-06
-0.000229236
4.2009e-05
-2.08431e-06
-0.00017093
4.78856e-05
4.18335e-07
-0.000130237
5.21818e-05
8.27452e-07
-8.708e-05
5.53532e-05
-1.8463e-06
-5.11529e-05
6.3461e-05
-1.21448e-05
-2.24671e-05
7.88025e-05
-3.54466e-05
-2.16599e-06
9.43258e-05
-6.61871e-05
9.97368e-06
0.000107912
-9.2019e-05
1.48698e-05
0.000119637
-0.000111106
1.53655e-05
0.000129102
-0.000125061
1.39807e-05
0.000136583
-0.000136383
1.26272e-05
0.000142553
-0.000147645
1.28355e-05
0.000146561
-0.000158994
1.48307e-05
0.000147538
-0.000167507
1.77482e-05
0.000143906
-0.000170105
2.01202e-05
-0.000160371
1.75136e-05
-1.05417e-05
2.12339e-05
-0.000378182
2.37773e-05
2.74423e-05
-0.000315482
2.7868e-05
3.55786e-05
-0.00020494
3.70522e-05
3.3964e-05
-0.000182044
3.88567e-05
2.28265e-05
-0.00012921
3.96383e-05
1.24584e-05
-8.93974e-05
4.26281e-05
-2.71456e-06
-5.40886e-05
5.33445e-05
-2.39899e-05
-2.02528e-05
7.24227e-05
-5.13308e-05
6.43243e-06
9.31614e-05
-8.0909e-05
2.129e-05
0.000110324
-0.000103739
2.67424e-05
0.000123685
-0.00011925
2.73552e-05
0.000133168
-0.000129376
2.56653e-05
0.000139373
-0.00013639
2.33112e-05
0.000143444
-0.000143281
2.1917e-05
0.000146471
-0.000152634
2.21265e-05
0.000147891
-0.000162863
2.35242e-05
0.000145991
-0.000169409
2.48516e-05
0.000138314
-0.00016843
2.52982e-05
-0.000153614
1.92537e-05
-1.46781e-05
3.62634e-05
-0.000256105
2.79601e-05
3.32179e-05
-0.000200176
3.66203e-05
4.49073e-05
-7.57804e-05
5.27408e-05
4.02331e-05
-6.64964e-05
6.25726e-05
2.14614e-05
-3.61561e-05
7.0787e-05
2.9275e-07
-7.15015e-06
7.89338e-05
-2.48912e-05
2.09048e-05
9.1636e-05
-5.61381e-05
3.83154e-05
0.000107366
-8.6519e-05
4.53718e-05
0.000121839
-0.000109776
4.48988e-05
0.000132407
-0.000125131
4.04034e-05
0.00013857
-0.000133535
3.42908e-05
0.000141284
-0.000137388
2.82731e-05
0.000142348
-0.000139892
2.37452e-05
0.000143245
-0.000144712
2.21757e-05
0.000144464
-0.000154512
2.34826e-05
0.000143979
-0.000164931
2.6159e-05
0.000139153
-0.000169563
2.77506e-05
0.00012639
-0.000163903
2.75553e-05
-0.000142302
1.94441e-05
-4.84116e-06
3.40211e-05
-0.000179312
3.92124e-05
8.26413e-06
-0.000123373
4.91927e-05
1.79525e-05
-6.66185e-06
5.81254e-05
2.16939e-05
4.80987e-06
6.94378e-05
-4.20411e-06
2.45958e-05
8.03321e-05
-2.98017e-05
4.71997e-05
9.58913e-05
-6.22106e-05
6.15859e-05
0.000114077
-9.30063e-05
6.5725e-05
0.000129113
-0.00011676
6.15192e-05
0.000137549
-0.000131603
5.2416e-05
0.00014016
-0.000138433
4.12092e-05
0.000139294
-0.00013949
3.07486e-05
0.000137425
-0.000137946
2.2776e-05
0.000136645
-0.000137599
1.8606e-05
0.000137614
-0.000142475
1.93321e-05
0.000139178
-0.000155401
2.41868e-05
0.000137304
-0.000166526
2.9127e-05
0.000129048
-0.000168383
3.08927e-05
0.00010954
-0.00015605
2.97508e-05
-0.000125574
1.98316e-05
5.23393e-07
5.67515e-06
-0.000100406
3.13413e-05
-3.22009e-05
-3.76363e-05
3.35051e-05
-2.01097e-05
5.07633e-05
4.71917e-05
-2.18805e-05
6.4272e-05
7.05008e-05
-5.42826e-05
8.02655e-05
9.44932e-05
-1.62876e-05
8.83487e-05
-1.88366e-05
-1.88478e-05
-2.06268e-05
0.000116438
-2.3736e-05
8.70232e-05
-2.65364e-05
-2.41508e-05
-2.56618e-05
0.000130926
-3.11521e-05
7.6782e-05
-3.32138e-05
-2.89107e-05
-3.00765e-05
0.000136555
-3.63677e-05
6.09409e-05
-3.75041e-05
-3.21059e-05
-3.23666e-05
0.000135938
-3.90411e-05
4.39224e-05
-3.93108e-05
-3.30038e-05
-3.25896e-05
0.000132219
-3.94675e-05
2.93373e-05
-3.90459e-05
-3.22578e-05
-3.15722e-05
0.000127933
-3.8303e-05
1.82518e-05
-3.75741e-05
-3.07678e-05
-3.01752e-05
0.000125636
-3.66344e-05
1.12898e-05
-3.6127e-05
-2.94678e-05
-2.91679e-05
0.000126707
-3.5679e-05
9.21306e-06
-3.56223e-05
-2.90768e-05
-2.93894e-05
0.000130262
-3.65011e-05
1.32877e-05
-3.76744e-05
-3.04551e-05
-3.1468e-05
0.000133157
-0.000156104
2.43518e-05
0.000129369
-0.000167594
3.18186e-05
0.000116407
-0.000165318
3.36721e-05
8.74437e-05
-0.000143517
3.13609e-05
-0.000101398
1.98436e-05
-1.74269e-05
-7.97357e-06
-4.38506e-05
-1.01913e-05
-3.82654e-05
-4.63942e-06
1.02205e-05
-5.8783e-05
8.08133e-05
5.01318e-05
-7.20281e-05
8.42495e-05
2.11167e-05
-9.05483e-05
8.47993e-05
2.10704e-05
1.82419e-05
1.79857e-05
-2.06001e-05
2.42808e-05
-2.09454e-05
2.20939e-05
-1.71981e-05
-2.83042e-05
3.04755e-05
-2.8037e-05
1.93278e-05
-1.19301e-05
-3.28155e-05
3.34396e-05
-3.49594e-05
1.51133e-05
-6.23421e-06
-3.39924e-05
3.33974e-05
-3.96117e-05
1.00733e-05
-2.9324e-06
-3.3204e-05
3.27121e-05
-4.14749e-05
5.8581e-06
-1.52802e-06
-3.25385e-05
3.22757e-05
-4.08748e-05
3.19827e-06
-1.08131e-06
-3.20714e-05
3.19023e-05
-3.87355e-05
1.68295e-06
-1.56891e-06
-3.17593e-05
3.19125e-05
-3.64577e-05
1.23908e-06
-3.52361e-06
-3.22892e-05
3.28742e-05
-3.52297e-05
2.48935e-06
-5.85707e-06
-3.35509e-05
3.38619e-05
-3.61502e-05
5.19513e-06
0.000128122
-0.000158987
2.58176e-05
-3.40684e-05
-3.36104e-05
-2.82277e-05
-2.84716e-05
0.000120962
-0.000168235
3.52168e-05
0.000100977
-0.000159544
3.67761e-05
5.81303e-05
-0.000123812
3.25485e-05
-6.78553e-05
1.94152e-05
-3.1914e-05
-2.41383e-06
-2.58832e-05
-1.42965e-05
-1.93335e-05
-2.92412e-05
1.74396e-05
-8.86142e-05
5.68653e-05
5.14456e-05
-0.000103472
4.97871e-05
1.96984e-05
-0.000112134
4.74204e-05
1.82413e-05
1.62651e-05
1.51885e-05
-1.1636e-05
2.57481e-05
2.20548e-05
-2.93339e-05
1.28654e-05
-2.50712e-06
7.96992e-06
-6.44231e-06
6.75546e-06
-8.41586e-06
2.6399e-06
-1.35833e-06
1.00052e-05
-7.88925e-06
8.0233e-06
-1.06673e-05
1.88636e-06
4.585e-07
-7.63093e-06
1.10346e-05
7.42217e-06
-1.16303e-05
3.45957e-07
6.70528e-07
-7.35528e-06
1.12233e-05
7.44281e-06
-1.1678e-05
-3.03281e-07
6.92177e-07
-7.76345e-06
1.08015e-05
7.85924e-06
-1.11104e-05
-4.79135e-07
6.88156e-07
-7.97656e-06
1.00063e-05
8.00276e-06
-1.01906e-05
-5.30019e-07
4.64073e-07
-7.91459e-06
9.23757e-06
7.87103e-06
-9.26696e-06
-3.91114e-07
-7.91867e-06
-5.20879e-07
8.73836e-06
-8.64843e-06
3.97413e-07
7.95221e-06
-4.68429e-06
3.54521e-05
-8.17813e-06
3.33834e-05
-3.51029e-05
3.31524e-06
-8.21773e-06
-7.93367e-06
-8.03411e-06
0.000125171
-0.000163681
3.12093e-05
-3.363e-05
-3.40186e-05
-2.88104e-05
-2.93244e-05
0.00011182
-0.000167253
4.04117e-05
8.10081e-05
-0.00014949
4.09277e-05
1.69711e-05
-9.02322e-05
3.26843e-05
-3.0168e-05
1.87617e-05
-1.64636e-05
-1.48082e-05
-4.45755e-05
5.04129e-06
-1.96815e-05
-5.30293e-05
2.03619e-05
-0.000104991
1.41514e-05
4.06923e-05
-0.000115199
5.33574e-06
1.49701e-05
-0.000122706
1.05404e-05
1.41723e-05
1.23928e-05
1.22148e-05
-4.1192e-06
3.09921e-05
1.63067e-05
-3.24784e-05
4.26895e-06
-1.13029e-06
9.21122e-06
-4.91879e-06
5.34464e-06
-9.42014e-06
9.13363e-07
3.76259e-06
-3.24616e-06
2.73763e-06
-3.90597e-06
6.5191e-07
-1.48345e-06
4.45265e-06
1.37739e-06
-3.76727e-06
-5.79301e-07
-1.50162e-06
4.19786e-06
1.46932e-06
-3.5503e-06
-6.15256e-07
-1.69939e-06
3.60774e-06
1.98248e-06
-3.30308e-06
-5.87762e-07
-1.91209e-06
3.58567e-06
1.8079e-06
-2.92353e-06
-5.5795e-07
-1.85749e-06
3.01294e-06
1.87647e-06
-2.53806e-06
-4.93873e-07
-1.99252e-06
4.81525e-07
2.05925e-06
-2.28327e-06
-7.44178e-08
1.80943e-06
-8.85627e-06
-2.21564e-06
3.51674e-05
3.48932e-05
-3.57519e-05
2.30235e-06
-8.93358e-06
-8.27952e-06
-8.326e-06
0.000122511
-0.000167219
3.96123e-05
-3.4518e-05
-3.49097e-05
-2.99893e-05
-3.0727e-05
9.97786e-05
-0.000161883
4.75763e-05
5.2051e-05
-0.000130711
4.60172e-05
-2.54197e-05
-4.8601e-05
3.00384e-05
-5.29004e-06
1.86818e-05
-1.58035e-05
-3.44788e-05
-7.54853e-05
7.48527e-06
-3.24639e-05
-6.52613e-05
2.0115e-05
-0.000116819
-8.9389e-06
3.89853e-05
-0.000122872
-1.61432e-05
1.34897e-05
-0.000130357
-7.73364e-06
1.38329e-05
1.20619e-05
1.25071e-05
-2.87003e-07
3.33029e-05
1.46293e-05
-3.42186e-05
6.30922e-08
-4.84831e-07
9.57482e-06
-4.30946e-06
4.63945e-06
-9.59822e-06
1.78251e-07
3.77616e-06
-3.4611e-06
2.33633e-06
-3.60687e-06
9.55475e-07
3.24862e-06
-1.24072e-06
1.22283e-06
-3.24268e-06
1.19527e-08
2.96017e-06
-1.47913e-06
1.52792e-06
-2.94857e-06
-6.03916e-08
2.58876e-06
-1.74616e-06
1.7552e-06
-2.54918e-06
-4.86168e-08
2.13353e-06
-1.78724e-06
1.7939e-06
-2.0879e-06
-5.22874e-08
1.88782e-06
-1.9069e-06
1.93831e-06
-1.86587e-06
-5.3367e-08
-2.9996e-06
1.03763e-06
2.4223e-06
-2.45644e-06
-2.53572e-07
2.24969e-06
-9.40556e-06
-2.06394e-06
3.67386e-05
3.64904e-05
-3.77116e-05
3.20747e-06
-9.54094e-06