/*--------------------------------*- C++ -*----------------------------------*\
| =========                 |                                                 |
| \\      /  F ield         | OpenFOAM: The Open Source CFD Toolbox           |
|  \\    /   O peration     | Version:  2412                                  |
|   \\  /    A nd           | Website:  www.openfoam.com                      |
|    \\/     M anipulation  |                                                 |
\*---------------------------------------------------------------------------*/
FoamFile
{
    version     2.0;
    format      ascii;
    arch        "LSB;label=32;scalar=64";
    class       volVectorField;
    location    "5/air";
    object      U;
}
// * * * * * * * * * * * * * * * * * * * * * * * * * * * * * * * * * * * * * //

dimensions      [0 1 -1 0 0 0 0];

internalField   nonuniform List<vector> 
36920
(
(-7.60537 -7.5118 -10.7192)
(2.35617 -6.34712 -9.40288)
(2.81633 -6.86332 -6.16864)
(3.58651 -5.91134 -5.11035)
(3.87166 -4.78707 -4.09679)
(3.88107 -3.63886 -3.28807)
(3.87465 -2.62445 -2.5443)
(3.81025 -1.75625 -1.93407)
(3.70803 -1.07389 -1.47056)
(3.63308 -0.649551 -1.11399)
(3.59923 -0.465482 -0.763144)
(3.86995 -0.768125 -0.403584)
(4.42796 -1.58456 -0.108384)
(5.05165 -2.65015 0.0960201)
(5.59639 -3.77016 0.245078)
(5.98741 -4.82751 0.362137)
(6.18228 -5.72444 0.453705)
(6.11234 -6.34476 0.507425)
(5.90393 -6.61849 0.496375)
(5.1359 -6.33433 0.388108)
(-6.05676 2.87182 -9.26496)
(3.01639 3.48671 -7.96548)
(2.9585 3.73433 -5.15086)
(3.40382 3.64721 -4.29108)
(3.49977 3.31514 -3.42386)
(3.28766 2.85648 -2.6586)
(2.97271 2.32322 -2.02916)
(2.7069 1.7652 -1.51114)
(2.47879 1.18704 -1.19556)
(2.42039 0.636277 -1.002)
(3.22137 -0.552398 -0.4764)
(4.22745 -1.91913 0.00215262)
(5.11777 -3.16801 0.293506)
(5.79316 -4.25896 0.455809)
(6.23874 -5.21507 0.554776)
(6.45154 -6.03772 0.620438)
(6.43505 -6.65801 0.656005)
(6.1244 -6.96615 0.641782)
(5.71918 -6.87531 0.541504)
(4.57526 -6.31797 0.357063)
(-6.45825 3.48779 -6.11944)
(3.06058 3.61024 -5.22652)
(3.19522 3.97865 -2.73206)
(4.06242 3.84948 -2.01315)
(4.38299 3.3277 -1.54613)
(4.44603 2.72526 -1.15666)
(4.30899 2.02319 -0.849811)
(4.03842 1.22537 -0.507467)
(4.04704 0.296975 -0.0849455)
(4.67819 -1.10685 0.400509)
(5.3516 -2.44092 0.610805)
(5.91198 -3.53815 0.655439)
(6.33565 -4.44745 0.650626)
(6.61644 -5.24944 0.653233)
(6.74319 -6.00104 0.683173)
(6.67932 -6.65595 0.718437)
(6.40835 -7.08284 0.728607)
(5.83099 -7.14774 0.66969)
(5.21669 -6.75305 0.487208)
(3.7317 -5.96948 0.270895)
(-5.25695 4.53265 -4.51163)
(3.05636 4.49167 -3.82214)
(3.11474 5.03209 -1.76744)
(4.15773 4.85329 -1.12945)
(4.45473 3.9839 -0.694018)
(4.45651 2.94063 -0.263282)
(4.40173 1.91276 0.158096)
(4.70032 0.379812 0.695061)
(5.37058 -1.45415 0.988788)
(5.95659 -2.90764 0.952989)
(6.38922 -3.97635 0.813502)
(6.68871 -4.7778 0.691885)
(6.88105 -5.43838 0.639423)
(6.95641 -6.06404 0.656205)
(6.8962 -6.69591 0.720491)
(6.62357 -7.21022 0.770233)
(6.13076 -7.4186 0.76809)
(5.29794 -7.18793 0.655129)
(4.48291 -6.41462 0.363389)
(2.72723 -5.42989 0.167486)
(-4.16429 4.17764 -3.19349)
(2.82012 3.58273 -2.68349)
(2.28922 4.25644 -1.11821)
(3.24761 3.97132 -0.334178)
(3.53629 2.9864 0.370774)
(4.00541 1.52626 1.12529)
(4.77241 -0.801959 1.58702)
(5.64381 -2.75216 1.45417)
(6.26524 -3.94004 1.0955)
(6.64006 -4.68763 0.79229)
(6.87832 -5.22315 0.607199)
(7.03724 -5.67348 0.533059)
(7.11911 -6.12429 0.554413)
(7.06762 -6.63617 0.63509)
(6.85432 -7.19741 0.744013)
(6.355 -7.5866 0.797804)
(5.64207 -7.55724 0.775611)
(4.56557 -6.99732 0.58498)
(3.55898 -5.78964 0.148184)
(1.66766 -4.73032 0.0648174)
(-3.85767 3.17125 -1.83563)
(1.31553 2.41124 -1.48897)
(0.557471 3.15467 0.650146)
(2.38657 1.76594 1.4356)
(3.44426 -0.931811 1.81404)
(3.99547 -1.57928 1.4248)
(4.96659 -3.42941 0.7766)
(5.93647 -4.69475 0.415812)
(6.72636 -5.46013 0.303581)
(7.30273 -6.01591 0.313918)
(7.71437 -6.49962 0.349808)
(7.99092 -6.95532 0.397998)
(8.11005 -7.42215 0.447822)
(8.00166 -7.9319 0.454537)
(7.60699 -8.3883 0.435577)
(5.85609 -7.85633 0.774522)
(4.95209 -7.52062 0.746673)
(3.67525 -6.58415 0.446973)
(2.49448 -4.89313 -0.169119)
(0.724429 -3.98134 -0.040267)
(-4.21347 0.570973 0.0348174)
(-0.12021 -0.200827 0.220527)
(0.118701 -2.08387 1.30704)
(2.7122 -3.87519 1.07673)
(3.93939 -4.82111 0.807852)
(4.55494 -5.05493 0.588202)
(5.45348 -5.87743 0.245372)
(6.31062 -6.2066 0.117517)
(7.225 -6.42776 0.23961)
(7.72778 -6.69845 0.312051)
(8.0512 -7.03889 0.307059)
(8.22213 -7.39331 0.281033)
(8.15391 -7.76847 0.247464)
(7.76632 -8.20099 0.208925)
(7.24714 -8.79296 0.24388)
(5.26591 -7.88922 0.725354)
(4.1403 -7.2841 0.708715)
(2.69547 -5.95286 0.238455)
(1.36385 -3.78635 -0.556396)
(0.118276 -3.3187 -0.242493)
(-3.97632 -2.50618 -0.875669)
(1.04321 -2.06498 -1.03145)
(1.60211 -4.16512 -0.343058)
(3.24679 -5.42694 -0.136334)
(4.21827 -6.26435 -0.0961136)
(4.70326 -6.59906 0.000524406)
(5.451 -7.16697 0.0231685)
(7.0633 -7.93815 0.274814)
(7.83464 -8.07828 0.703663)
(8.16557 -8.28017 0.672024)
(8.39188 -8.5176 0.624559)
(8.44625 -8.7531 0.525444)
(8.23715 -8.88749 0.414101)
(7.52913 -8.7526 0.360358)
(6.77058 -8.92067 0.288289)
(4.67473 -7.77231 0.757051)
(3.23928 -6.8788 0.688288)
(1.6461 -5.14085 -0.0336676)
(0.290571 -2.5948 -0.87786)
(-0.0443024 -2.88518 -0.500475)
(-4.03418 -3.49424 -2.04968)
(1.50723 -2.98387 -1.99717)
(2.10616 -5.46748 -0.974946)
(3.65785 -6.64768 -0.593862)
(4.5978 -7.30985 -0.446484)
(5.02474 -7.56417 -0.23182)
(5.68783 -7.99064 -0.0985804)
(7.42434 -8.51637 -0.02165)
(8.29884 -8.74563 0.485655)
(8.55073 -8.92958 0.493427)
(8.66412 -9.11653 0.399745)
(8.59948 -9.26022 0.220136)
(8.36301 -9.27194 0.210323)
(7.51584 -9.06231 0.428346)
(6.38024 -8.78486 0.272632)
(4.00772 -7.48858 0.872579)
(2.18007 -6.30195 0.647527)
(0.538357 -4.21704 -0.306225)
(-0.529267 -1.54104 -1.03623)
(0.160484 -2.88146 -0.663531)
(-4.71487 -4.3257 -2.85334)
(1.92532 -3.77803 -2.67847)
(2.54907 -6.27769 -1.3249)
(4.12308 -7.30704 -0.840153)
(5.03998 -7.85168 -0.629601)
(5.45663 -8.10771 -0.372166)
(6.09915 -8.46335 -0.167551)
(7.87321 -8.8324 -0.030666)
(8.72466 -8.9986 0.510311)
(8.87032 -9.1593 0.51207)
(8.84919 -9.27861 0.265144)
(8.61636 -9.35608 0.196615)
(8.32136 -9.23505 0.334996)
(7.38019 -8.93972 0.499124)
(5.95554 -8.43461 0.302853)
(3.14447 -7.04553 1.03946)
(0.932605 -5.61905 0.513159)
(-0.432357 -3.4027 -0.484412)
(-0.753551 -1.33004 -1.01305)
(0.498606 -3.12119 -0.845547)
(-5.69651 -4.83743 -3.65954)
(2.28606 -4.37702 -3.37054)
(3.00897 -6.83959 -1.62175)
(4.66716 -7.77319 -1.01264)
(5.58213 -8.2156 -0.744883)
(5.99551 -8.46019 -0.467569)
(6.60626 -8.76273 -0.212513)
(8.34272 -9.0664 -0.0397077)
(9.10041 -9.20137 0.554342)
(9.07934 -9.36127 0.530846)
(8.86514 -9.44896 0.251539)
(8.5455 -9.33069 0.395249)
(8.21525 -9.0224 0.466502)
(7.18464 -8.60437 0.574825)
(5.37782 -7.96631 0.382781)
(1.9953 -6.46264 1.18552)
(-0.367127 -4.996 0.239065)
(-0.894426 -3.4964 -0.426528)
(-0.901566 -1.49846 -1.00376)
(0.848302 -3.46595 -1.12853)
(-6.87173 -5.17004 -4.50611)
(2.60707 -4.83048 -4.08347)
(3.47409 -7.22956 -1.90399)
(5.24387 -8.08135 -1.15821)
(6.16363 -8.42479 -0.838103)
(6.57393 -8.65655 -0.543223)
(7.13187 -8.91595 -0.246493)
(8.75649 -9.17181 -0.0329647)
(9.31281 -9.37546 0.59473)
(9.09645 -9.49674 0.585021)
(8.79764 -9.40156 0.559434)
(8.45597 -9.10562 0.528119)
(8.0564 -8.69657 0.500948)
(6.92336 -8.19677 0.622352)
(4.64713 -7.37048 0.483193)
(0.536603 -5.82501 1.16751)
(-1.3128 -4.89203 -0.0301659)
(-1.33417 -3.90594 -0.549944)
(-1.18504 -2.0124 -1.12197)
(1.22906 -3.87803 -1.43313)
(-8.16902 -5.34267 -5.39819)
(2.88109 -5.15453 -4.81142)
(3.91545 -7.4693 -2.18416)
(5.81134 -8.24369 -1.29953)
(6.7425 -8.49463 -0.931668)
(7.15595 -8.70354 -0.617659)
(7.64445 -8.89615 -0.275453)
(8.93451 -9.15074 -0.012778)
(9.23763 -9.51016 0.566893)
(8.99296 -9.48438 0.564085)
(8.69653 -9.16528 0.511813)
(8.31652 -8.71574 0.471048)
(7.84507 -8.2203 0.456061)
(6.60617 -7.62348 0.617349)
(3.70806 -6.64463 0.647863)
(-0.958837 -5.39001 0.847713)
(-2.02863 -5.18852 -0.239143)
(-1.82308 -4.42434 -0.806376)
(-1.47008 -2.64635 -1.44807)
(1.71748 -4.32529 -1.80747)
(-9.53142 -5.3615 -6.30678)
(3.08678 -5.35321 -5.52953)
(4.29323 -7.55158 -2.46643)
(6.32306 -8.24609 -1.45222)
(7.276 -8.42156 -1.04015)
(7.72181 -8.61324 -0.701806)
(8.18831 -8.64868 -0.302014)
(8.63219 -8.43429 -0.254748)
(8.97037 -8.44636 -0.261352)
(8.86403 -8.14618 -0.252072)
(8.56252 -7.70075 -0.215818)
(8.08687 -7.19331 -0.178645)
(7.43678 -6.73789 -0.121659)
(6.09374 -6.4774 0.176564)
(2.48862 -5.75012 0.934649)
(-2.03826 -5.35802 0.359815)
(-2.83599 -5.55644 -0.515392)
(-2.3282 -4.97953 -1.0906)
(-1.88643 -3.30216 -1.92217)
(2.38616 -4.80442 -2.30452)
(-10.9072 -5.2327 -7.21292)
(3.18913 -5.42828 -6.2309)
(4.56361 -7.4459 -2.76915)
(6.72112 -8.0508 -1.64284)
(7.67354 -8.17668 -1.18305)
(8.12491 -8.34305 -0.808534)
(8.64037 -8.30868 -0.503479)
(8.73623 -7.94035 -0.366986)
(8.70191 -7.54027 -0.274011)
(8.47152 -7.12005 -0.204135)
(8.05583 -6.65713 -0.135793)
(7.40864 -6.16901 -0.0411171)
(6.38454 -5.67744 0.126341)
(4.51085 -5.13353 0.561267)
(0.67562 -4.92425 1.20354)
(-2.92391 -5.45729 -0.0935616)
(-3.67355 -5.86317 -0.843464)
(-2.83591 -5.50406 -1.39157)
(-2.41256 -3.97842 -2.54999)
(3.28201 -5.29082 -3.00285)
(-12.2443 -4.91759 -8.15351)
(3.15036 -5.32373 -6.96879)
(4.68684 -7.07679 -3.14187)
(6.94823 -7.58844 -1.91986)
(7.86898 -7.68506 -1.40742)
(8.29886 -7.61503 -1.09938)
(8.43394 -7.41214 -0.902535)
(8.3654 -7.09881 -0.774848)
(8.141 -6.71634 -0.690813)
(7.77098 -6.26878 -0.620252)
(7.24101 -5.77565 -0.517625)
(6.42299 -5.22957 -0.316659)
(5.05481 -4.62453 0.191257)
(3.07105 -3.69809 1.56036)
(-2.00428 -4.31083 1.26858)
(-3.59459 -5.41641 -0.56001)
(-4.46335 -5.98999 -1.22648)
(-3.37799 -5.8807 -1.80033)
(-3.02781 -4.6236 -3.36764)
(4.45641 -5.7012 -3.99764)
(-13.4215 -4.3007 -9.3082)
(2.90689 -4.88687 -7.8982)
(4.60025 -6.23452 -3.6921)
(6.93709 -6.66348 -2.38723)
(7.80064 -6.76409 -1.81668)
(8.11222 -6.70884 -1.47098)
(8.09924 -6.54237 -1.25653)
(7.87284 -6.27683 -1.12705)
(7.51297 -5.91803 -1.04089)
(7.05265 -5.47068 -0.957931)
(6.47114 -4.9466 -0.828702)
(5.63339 -4.37182 -0.580309)
(4.36686 -3.66271 0.0785833)
(1.63798 -2.61789 1.60129)
(-3.12549 -3.74035 0.588343)
(-4.40185 -5.09683 -1.07567)
(-5.10147 -5.71272 -1.66736)
(-3.92731 -5.83832 -2.39178)
(-3.6438 -4.97905 -4.44154)
(5.90248 -5.71755 -5.39431)
(-14.5533 -2.28518 -10.6859)
(2.35232 -2.97752 -9.1561)
(4.17663 -3.9241 -4.85089)
(6.51052 -4.38862 -3.55681)
(7.21217 -4.58388 -2.93404)
(7.32406 -4.63133 -2.53519)
(7.11465 -4.57642 -2.27036)
(6.74232 -4.41809 -2.08481)
(6.30758 -4.15579 -1.92537)
(5.84223 -3.793 -1.74786)
(5.30972 -3.3259 -1.50575)
(4.55809 -2.74863 -1.12563)
(3.50153 -1.83574 -0.286987)
(0.611661 -0.579178 1.3793)
(-3.24651 -2.43931 -0.127631)
(-4.68335 -3.89439 -1.7536)
(-5.30092 -4.44433 -2.45372)
(-4.19482 -4.69983 -3.48604)
(-3.95238 -4.36163 -6.05036)
(7.27312 -4.66328 -7.39062)
(-13.3481 -0.676532 -14.6596)
(1.7806 -1.62371 -13.0918)
(3.16469 -2.15576 -9.10204)
(5.07029 -2.76672 -7.69864)
(5.33045 -3.12571 -6.71369)
(5.15798 -3.33229 -5.99694)
(4.78508 -3.43508 -5.44571)
(4.38113 -3.43592 -4.97489)
(4.00904 -3.33393 -4.50729)
(3.66341 -3.12397 -3.99902)
(3.29889 -2.7925 -3.41434)
(2.87543 -2.30005 -2.70265)
(2.16431 -1.62739 -1.75955)
(1.21194 -0.907165 -0.0580025)
(-2.13282 -2.51306 -1.47097)
(-3.68032 -3.6223 -3.19498)
(-4.7531 -3.99389 -4.61214)
(-3.99703 -4.26269 -6.33276)
(-3.91457 -4.21446 -9.43611)
(6.95172 -3.88469 -11.3587)
(-13.5256 13.5542 -16.0826)
(0.826746 13.3042 -14.6114)
(2.43612 14.4891 -10.568)
(4.39057 13.3417 -9.03612)
(4.76047 12.2223 -7.82572)
(4.72328 11.0368 -6.94461)
(4.4941 9.87951 -6.26881)
(4.25649 8.75443 -5.70399)
(4.07732 7.65807 -5.15039)
(3.93512 6.59496 -4.54871)
(3.76742 5.59123 -3.84922)
(3.37655 4.74205 -2.96222)
(2.82736 4.41232 -1.52668)
(-0.0463906 4.75903 -0.281337)
(-3.91051 4.62861 -2.2332)
(-5.01868 4.90844 -3.97474)
(-5.42901 6.16233 -5.53526)
(-4.30657 7.50735 -7.59974)
(-3.56055 7.11317 -11.3882)
(8.85133 8.8344 -13.4643)
(-2.74851 -2.65831 -13.7888)
(0.492131 -2.01534 -11.8676)
(0.59439 -2.57607 -7.84602)
(1.2487 -1.99724 -6.78296)
(1.39432 -1.45706 -5.11029)
(1.52779 -0.820244 -3.91216)
(1.74445 -0.320093 -2.6832)
(1.89511 0.00548017 -1.65769)
(1.97062 0.17259 -0.790363)
(2.41865 -0.197615 -0.0926241)
(2.98655 -1.25303 0.413818)
(3.50873 -2.32008 0.614531)
(3.94922 -3.17213 0.613504)
(4.30957 -3.8331 0.544874)
(4.59448 -4.36829 0.494409)
(4.82171 -4.85461 0.49586)
(5.00594 -5.31346 0.546724)
(5.08243 -5.67137 0.613397)
(5.11925 -5.85882 0.660032)
(4.73066 -5.61331 0.556831)
(-1.90812 0.73972 -11.6535)
(0.962971 1.17951 -9.78477)
(0.77438 1.44572 -6.05398)
(1.1703 1.50573 -5.45486)
(1.3078 1.22858 -4.02301)
(1.39597 0.81333 -2.89999)
(1.38619 0.343139 -1.92546)
(1.5821 -0.169417 -0.779084)
(2.12851 -1.07242 0.200028)
(2.88313 -2.26248 0.747581)
(3.54308 -3.19305 0.902142)
(4.06721 -3.85333 0.906397)
(4.45566 -4.31144 0.851236)
(4.71656 -4.63513 0.790929)
(4.88486 -4.9149 0.770483)
(5.00431 -5.23862 0.788785)
(5.09997 -5.58844 0.821697)
(5.07469 -5.83858 0.835089)
(5.04022 -5.8679 0.809455)
(4.34368 -5.45066 0.603667)
(-2.35577 0.849677 -7.50953)
(1.10125 0.867565 -5.91537)
(0.940374 1.20188 -1.75132)
(1.61215 1.02951 -1.39175)
(2.00697 0.516292 -0.613672)
(2.27817 0.161371 0.249114)
(2.56452 -0.49109 1.22442)
(2.92795 -1.40753 1.66803)
(3.43243 -2.39598 1.74121)
(3.98502 -3.26871 1.60249)
(4.42416 -3.94036 1.37129)
(4.70263 -4.37923 1.12681)
(4.83869 -4.63141 0.9284)
(4.88865 -4.79324 0.819865)
(4.91721 -4.98503 0.820363)
(4.96162 -5.30079 0.873879)
(5.00657 -5.65178 0.924075)
(4.88829 -5.85016 0.925242)
(4.77552 -5.75109 0.862158)
(3.73291 -5.13829 0.603741)
(-1.76369 1.50319 -5.28607)
(1.31619 1.28453 -3.76538)
(1.52597 1.71752 -0.129943)
(1.8388 1.56446 0.695811)
(2.17141 0.8114 1.26103)
(2.57289 -0.159418 1.98213)
(3.02509 -1.31763 2.36391)
(3.6408 -2.46644 2.36746)
(4.24443 -3.47763 2.09921)
(4.6458 -4.19849 1.70119)
(4.82256 -4.61009 1.29938)
(4.83294 -4.77549 0.968408)
(4.76032 -4.80283 0.75889)
(4.70148 -4.82298 0.713791)
(4.71211 -4.97335 0.818779)
(4.7822 -5.34466 0.946272)
(4.81898 -5.71794 1.02054)
(4.60138 -5.84026 1.00559)
(4.38996 -5.55049 0.89472)
(2.91856 -4.66634 0.606225)
(-1.47882 0.879658 -2.96162)
(1.48225 -0.668878 -0.746469)
(0.825296 -0.412075 1.95683)
(1.39685 0.0232595 2.45394)
(1.97073 -1.04273 3.01789)
(2.84679 -1.72829 3.2366)
(3.69144 -2.76393 3.08269)
(4.34473 -3.76307 2.60747)
(4.67201 -4.45565 1.96353)
(4.72935 -4.81995 1.36546)
(4.63592 -4.9247 0.906916)
(4.47808 -4.85539 0.601489)
(4.33419 -4.73136 0.469647)
(4.31073 -4.68468 0.555201)
(4.41581 -4.8559 0.796447)
(4.57895 -5.36013 0.999075)
(4.59997 -5.76118 1.09163)
(4.25359 -5.7729 1.06139)
(3.8966 -5.21225 0.889021)
(1.86152 -3.99209 0.601279)
(-1.57101 -0.445875 -0.308676)
(0.168415 -1.54108 1.18215)
(-0.749809 -0.900229 3.26921)
(1.38207 -1.43301 3.31461)
(2.23115 -2.56696 3.19014)
(3.12318 -2.56377 3.18429)
(4.07826 -3.56103 2.69238)
(4.60671 -4.56546 1.9671)
(4.65034 -5.25421 1.10065)
(4.5331 -5.59941 0.467737)
(4.4639 -5.61494 0.139635)
(4.40693 -5.39044 -0.0122188)
(4.37455 -5.10115 0.0073749)
(4.47324 -4.94131 0.338354)
(4.63794 -5.05752 0.787197)
(4.4629 -5.42265 1.01391)
(4.3855 -5.7989 1.14491)
(3.86742 -5.63639 1.10697)
(3.25043 -4.6775 0.838915)
(0.48806 -3.0841 0.56917)
(-2.17923 -0.0941733 0.638287)
(-0.282541 -0.999842 0.189775)
(-0.537609 -2.9937 2.45718)
(1.60762 -3.55333 2.28288)
(2.10079 -3.81932 2.02261)
(2.92146 -3.99653 1.92213)
(3.65671 -4.56597 1.53785)
(4.43772 -5.68605 0.942658)
(4.11768 -6.25398 -0.170714)
(4.05728 -6.33632 -0.448079)
(4.29331 -6.06203 -0.51352)
(4.3932 -5.58183 -0.533923)
(4.34374 -5.08233 -0.475603)
(4.33274 -4.76633 0.0743064)
(4.53434 -4.84616 0.539623)
(4.45715 -5.54853 1.02352)
(4.1759 -5.80491 1.23333)
(3.4517 -5.37753 1.16931)
(2.27485 -3.82623 0.730892)
(-1.24258 -1.55913 0.418317)
(-1.80582 -0.0886706 -0.692642)
(0.500196 -0.391327 -1.34145)
(-0.0678847 -3.33635 1.12296)
(1.33763 -3.77588 0.985774)
(1.61142 -4.05527 0.910058)
(2.18458 -4.40155 0.760828)
(2.81417 -5.15651 0.650975)
(5.1161 -8.06091 1.67691)
(2.96974 -7.72876 -0.128687)
(3.39703 -7.30528 -0.348066)
(3.89937 -6.8016 -0.359308)
(4.10155 -6.06627 -0.379727)
(4.14155 -5.30207 -0.357237)
(3.77106 -3.87501 -0.351842)
(4.75399 -4.87588 0.150823)
(4.48203 -5.72357 1.20567)
(3.91144 -5.71474 1.41692)
(2.97747 -4.88931 1.26099)
(0.643025 -2.42625 0.516358)
(-2.48092 -0.446347 0.2678)
(-1.84153 -0.936093 -2.09633)
(0.589824 -0.937606 -1.97137)
(0.0146019 -3.86351 0.321042)
(1.25551 -4.09172 0.189859)
(1.55088 -4.35936 0.244401)
(1.9309 -4.65853 0.140018)
(2.44092 -5.274 0.276803)
(5.25108 -7.87634 2.61071)
(2.70421 -7.15375 0.202645)
(3.31656 -6.5139 -0.0359225)
(3.8626 -5.66659 -0.0459302)
(3.94792 -4.65417 -0.0822407)
(4.23592 -4.13442 -0.0741268)
(5.32757 -4.21397 -1.00089)
(5.02006 -5.13924 0.189603)
(4.41193 -5.80162 1.53006)
(3.53626 -5.44359 1.64803)
(2.33863 -4.09374 1.35414)
(-0.92595 -0.965191 0.278046)
(-2.74368 0.0607953 0.170529)
(-2.0114 -1.47661 -3.27419)
(0.633255 -1.35151 -2.78854)
(0.136111 -4.21238 -0.237433)
(1.42339 -4.37268 -0.24983)
(1.80352 -4.61428 -0.138673)
(2.14149 -4.89898 -0.189361)
(2.58366 -5.36927 0.0704323)
(5.51332 -8.05655 2.81364)
(2.86319 -7.10793 0.158699)
(3.79682 -6.34014 -0.0261818)
(3.89485 -4.36244 -0.300524)
(4.0747 -3.97306 -0.11951)
(4.9437 -3.93679 -0.0896235)
(5.67921 -4.22076 -1.36708)
(5.28059 -5.33097 0.446161)
(4.1534 -5.68266 1.93079)
(3.02043 -4.97166 1.86819)
(1.4162 -2.98789 1.37886)
(-1.86326 0.084234 0.087183)
(-2.49505 0.036097 0.117119)
(-2.46636 -1.87615 -4.51729)
(0.701859 -1.75511 -3.78422)
(0.303988 -4.4801 -0.669308)
(1.687 -4.61074 -0.521463)
(2.13637 -4.79937 -0.356022)
(2.47379 -5.07157 -0.356265)
(2.84972 -5.4267 -0.0270139)
(5.96341 -8.18688 3.13814)
(3.31087 -6.96554 0.0925284)
(4.16074 -5.91256 0.0293745)
(4.94485 -3.92063 -0.207961)
(5.99652 -3.78799 -0.0494971)
(5.91092 -4.09364 -1.08287)
(5.19962 -5.30835 0.764093)
(3.64743 -5.34688 2.35946)
(2.35515 -4.35252 2.03605)
(0.416183 -1.92018 1.28906)
(-1.46128 0.213952 0.0778447)
(-1.59161 -0.353315 0.0474278)
(-3.10099 -2.13641 -5.84348)
(0.743514 -2.06517 -4.87951)
(0.488474 -4.64833 -1.10405)
(2.0116 -4.77212 -0.775585)
(2.51544 -4.89927 -0.549364)
(2.86396 -5.15699 -0.496619)
(3.21339 -5.44638 -0.100763)
(6.47858 -8.05512 3.23786)
(4.20398 -6.51989 0.00989506)
(5.47432 -5.09791 -0.0818601)
(6.25665 -3.97584 -0.0214862)
(6.62311 -3.50788 -0.0485888)
(6.71345 -3.02528 -0.047368)
(6.70782 -3.20149 -0.720033)
(4.69437 -5.34165 1.38299)
(2.92858 -4.82359 2.73146)
(1.51091 -3.68687 2.08831)
(-0.511409 -1.05568 1.05739)
(-1.25057 -0.214578 -0.241358)
(-1.09894 -0.928651 -0.20619)
(-3.85195 -2.27839 -7.26116)
(0.748228 -2.29417 -6.0367)
(0.670374 -4.70241 -1.58265)
(2.368 -4.82526 -1.06676)
(2.92065 -4.88859 -0.769863)
(3.29138 -5.11279 -0.661647)
(3.60902 -5.30333 -0.207579)
(7.01706 -7.50791 3.3638)
(5.85553 -5.2564 0.0116341)
(6.93793 -3.75578 0.095016)
(7.30325 -3.03083 0.203597)
(7.40948 -2.64762 0.243047)
(7.26482 -2.38334 0.24459)
(6.56559 -2.68945 -0.369182)
(4.09823 -5.46134 2.31457)
(2.17496 -4.19885 2.91573)
(0.553507 -3.03945 1.94515)
(-0.8288 -0.875542 0.931774)
(-0.620163 -0.888492 -0.717399)
(-0.739647 -1.39315 -0.626364)
(-4.66413 -2.29875 -8.71479)
(0.713481 -2.42494 -7.19758)
(0.826102 -4.61622 -2.11759)
(2.72483 -4.74051 -1.41947)
(3.32861 -4.74874 -1.03976)
(3.75934 -4.91907 -0.877537)
(4.10058 -4.90753 -0.483155)
(5.65826 -5.7119 3.07936)
(7.78899 -6.14314 4.85571)
(8.20115 -5.9452 4.7932)
(8.25354 -5.71125 4.69441)
(8.04305 -5.49902 4.68559)
(7.55567 -5.30655 4.6086)
(7.04026 -5.63499 2.17696)
(3.28239 -4.88924 3.1642)
(1.57396 -3.63436 2.85665)
(-0.281391 -2.58294 1.6752)
(-0.71002 -1.43548 0.77804)
(-0.357769 -1.30419 -1.3579)
(-0.434597 -1.6977 -1.29182)
(-5.48325 -2.19512 -10.1508)
(0.624845 -2.44371 -8.32029)
(0.931813 -4.34322 -2.7436)
(3.03773 -4.46716 -1.86882)
(3.69541 -4.44685 -1.3771)
(4.21708 -4.58002 -1.07048)
(4.65189 -4.34424 -0.800454)
(4.99846 -3.92099 -0.435944)
(5.25181 -3.54812 -0.156654)
(5.36777 -3.21454 0.0456503)
(5.39737 -2.95184 0.253379)
(5.28224 -2.84667 0.561338)
(4.92167 -3.02623 1.08086)
(3.98855 -3.50243 2.04607)
(2.47847 -3.89493 3.61252)
(1.11464 -3.18019 2.67516)
(-0.770369 -2.41434 1.39717)
(-0.509168 -2.0106 0.336679)
(-0.439554 -1.57351 -2.12331)
(-0.0639571 -1.93864 -2.33556)
(-6.25517 -1.90735 -11.5651)
(0.485305 -2.26238 -9.44218)
(0.982952 -3.81657 -3.55738)
(3.25157 -3.9329 -2.47742)
(3.89669 -3.8985 -1.79908)
(4.41386 -3.77564 -1.23066)
(4.69972 -3.51086 -0.783389)
(4.84937 -3.21144 -0.441431)
(4.8964 -2.89541 -0.178536)
(4.84766 -2.57114 0.0476601)
(4.68721 -2.25005 0.333411)
(4.47949 -2.07041 0.822823)
(4.00266 -2.13483 1.55148)
(3.57185 -2.2688 2.79653)
(1.83679 -2.48555 3.42986)
(0.8981 -2.7063 2.52395)
(-1.09427 -2.3245 1.06641)
(-0.462314 -2.27592 -0.296484)
(-0.804246 -1.68904 -3.16203)
(0.518998 -2.0636 -3.82614)
(-6.74018 -1.58645 -13.3187)
(0.312887 -2.08042 -10.9047)
(0.975909 -3.17131 -4.71774)
(3.34589 -3.26536 -3.29387)
(3.9696 -3.22726 -2.29702)
(4.44536 -3.11003 -1.52936)
(4.66925 -2.92151 -0.976522)
(4.73363 -2.69234 -0.586167)
(4.69669 -2.43552 -0.305514)
(4.57254 -2.15795 -0.0786367)
(4.35921 -1.87316 0.192854)
(4.0712 -1.62627 0.725343)
(3.65984 -1.63076 1.58084)
(3.01243 -1.57028 2.85802)
(1.26329 -1.75664 3.28832)
(0.421361 -2.29317 2.23239)
(-1.506 -2.39792 0.548255)
(-0.807357 -2.2839 -0.99082)
(-1.33295 -1.74737 -4.65606)
(1.333 -2.08954 -6.00649)
(-7.33597 -0.0738968 -15.1327)
(-0.144609 -0.417267 -12.4421)
(0.77289 -0.682074 -6.23948)
(3.26114 -0.902667 -4.43798)
(3.8184 -0.978546 -3.13747)
(4.21664 -1.03806 -2.24242)
(4.34388 -1.06933 -1.66072)
(4.30705 -1.04494 -1.27715)
(4.17981 -0.962061 -0.993044)
(3.98471 -0.819988 -0.730185)
(3.72298 -0.610603 -0.395658)
(3.38904 -0.334323 0.218971)
(3.02183 -0.0956309 1.34333)
(2.4579 0.314264 2.7516)
(1.43764 -0.67834 2.72962)
(0.819497 -1.68677 1.61985)
(-1.41064 -1.84743 -0.553216)
(-1.0448 -1.67269 -2.20694)
(-1.40673 -1.31059 -6.56981)
(2.25442 -1.40448 -8.66302)
(-5.75467 0.665049 -19.096)
(-0.0938531 0.153993 -16.9022)
(0.475124 0.202761 -12.3352)
(2.11315 -0.289487 -10.5938)
(2.18658 -0.536116 -9.10655)
(2.23339 -0.772466 -8.10322)
(2.09699 -0.966746 -7.31731)
(1.92527 -1.0924 -6.60918)
(1.74423 -1.15194 -5.87096)
(1.55155 -1.14173 -5.06865)
(1.33568 -1.05294 -4.17669)
(1.16611 -0.876904 -3.16541)
(0.856379 -0.585141 -2.12601)
(1.07169 -0.234278 -0.534945)
(1.30885 -1.35558 -0.390401)
(0.0722791 -1.76442 -2.16689)
(-1.30448 -1.60156 -4.72395)
(-1.07355 -1.67163 -7.21331)
(-1.33169 -1.46084 -11.5128)
(1.96691 -1.15134 -14.1589)
(-5.56596 5.58607 -21.0289)
(-0.625318 5.74948 -19.0183)
(0.0912822 7.33897 -14.9256)
(1.55028 6.7715 -12.9269)
(1.7258 6.35913 -11.1604)
(1.854 5.69704 -9.94541)
(1.83033 4.99867 -8.97885)
(1.78404 4.29164 -8.12315)
(1.73243 3.60515 -7.23583)
(1.66056 2.96273 -6.25809)
(1.53816 2.3916 -5.14126)
(1.34459 1.97378 -3.78269)
(0.974736 1.74688 -1.92795)
(1.02691 1.98721 0.478343)
(0.0692848 1.60325 -0.633358)
(-1.31413 1.2925 -3.75316)
(-1.81047 1.72579 -6.21318)
(-1.16517 2.426 -9.12358)
(-0.954019 2.0748 -14.196)
(3.00436 2.93715 -17.1145)
(-1.21468 -1.18294 -16.5231)
(0.0394968 -0.88586 -14.1519)
(0.0948695 -1.47946 -10.1267)
(0.577705 -1.09549 -8.63362)
(0.565624 -1.02405 -6.3777)
(0.758557 -0.849537 -4.83987)
(1.12262 -0.895702 -3.16324)
(1.54821 -1.23778 -1.78513)
(1.98001 -1.76085 -0.72869)
(2.4089 -2.31967 -0.0430921)
(2.81005 -2.78566 0.32295)
(3.1553 -3.20454 0.474826)
(3.39162 -3.52376 0.498814)
(3.51215 -3.72223 0.45175)
(3.55684 -3.83904 0.389669)
(3.60836 -3.98356 0.380417)
(3.7434 -4.22753 0.458629)
(3.90391 -4.51818 0.591738)
(4.08933 -4.77371 0.706756)
(4.03761 -4.73123 0.636705)
(-0.864169 0.148318 -13.8479)
(0.225738 0.350142 -11.4659)
(0.15235 0.195318 -7.60042)
(0.556361 0.355216 -6.72614)
(0.637568 -0.0455444 -4.59576)
(1.12935 -0.640931 -3.0449)
(1.56707 -1.40293 -1.66338)
(1.97511 -2.09095 -0.541639)
(2.42302 -2.63707 0.282564)
(2.87987 -3.07275 0.773323)
(3.26827 -3.43612 0.983612)
(3.52165 -3.666 1.01286)
(3.628 -3.75066 0.940646)
(3.61687 -3.71685 0.827927)
(3.54535 -3.65463 0.739518)
(3.52753 -3.75154 0.72398)
(3.66257 -4.06053 0.779693)
(3.83649 -4.43468 0.856574)
(4.04456 -4.69458 0.917107)
(3.80658 -4.57565 0.729204)
(-1.36223 0.14902 -9.62178)
(0.050863 0.0605027 -7.39868)
(-0.13309 -0.312405 -3.03596)
(1.24471 -0.43476 -2.84924)
(1.61839 -1.16154 -1.64796)
(2.00069 -1.77076 -0.645429)
(2.3341 -2.13456 0.366247)
(2.72938 -2.54731 1.14118)
(3.14116 -3.02246 1.5248)
(3.4833 -3.42377 1.58706)
(3.6761 -3.6632 1.46205)
(3.69717 -3.72675 1.2469)
(3.57985 -3.64711 1.00856)
(3.39233 -3.47981 0.797168)
(3.22091 -3.36182 0.684244)
(3.23883 -3.55721 0.718274)
(3.48392 -4.01452 0.848694)
(3.70402 -4.46175 0.962)
(3.92278 -4.68715 1.02125)
(3.46944 -4.4407 0.756341)
(-1.22035 0.645025 -6.70362)
(0.0241563 0.423468 -4.43325)
(0.0027977 -0.602116 -0.217246)
(0.994867 -0.4699 -0.27911)
(1.47785 -1.14791 0.616033)
(2.05972 -1.64207 1.50363)
(2.58805 -2.27522 2.10493)
(3.12475 -2.917 2.31891)
(3.52971 -3.39968 2.20498)
(3.70393 -3.64714 1.88969)
(3.64659 -3.67428 1.49636)
(3.41471 -3.53415 1.10882)
(3.10404 -3.29626 0.780829)
(2.82059 -3.02119 0.544575)
(2.68268 -2.91638 0.489859)
(2.92305 -3.36508 0.693924)
(3.34182 -4.04235 0.955849)
(3.57974 -4.53699 1.10184)
(3.76304 -4.6571 1.14585)
(3.0249 -4.22546 0.795098)
(-1.22133 0.162205 -3.73703)
(0.265961 -0.838744 -1.68253)
(-0.0958781 -1.81808 1.82357)
(1.04677 -1.30508 2.25038)
(1.52728 -2.03198 2.78408)
(2.31007 -2.47288 3.07187)
(2.94969 -2.96064 3.04699)
(3.39712 -3.37598 2.68887)
(3.55171 -3.57761 2.14257)
(3.41701 -3.54968 1.55602)
(3.08096 -3.34971 1.02821)
(2.65853 -3.05164 0.598227)
(2.28044 -2.72848 0.284098)
(2.03103 -2.3915 0.0882155)
(2.09974 -2.40186 0.133656)
(2.75402 -3.32794 0.65848)
(3.30528 -4.1986 1.07161)
(3.49105 -4.64891 1.24628)
(3.56586 -4.566 1.26471)
(2.47121 -3.91083 0.820819)
(-1.6304 -0.206011 -2.54331)
(0.362121 -0.640291 -1.42403)
(-0.689587 -2.04317 2.6477)
(1.21605 -2.01353 2.73603)
(1.58448 -2.5739 2.81453)
(2.25331 -2.87962 2.70702)
(2.7967 -3.17955 2.67591)
(3.16424 -3.4944 2.11986)
(3.19254 -3.54905 1.44242)
(2.92697 -3.38157 0.777868)
(2.54721 -3.09209 0.254016)
(2.19443 -2.79032 -0.0887574)
(1.94049 -2.52911 -0.264581)
(1.85001 -2.34869 -0.296209)
(1.94692 -2.21097 -0.0811864)
(2.86414 -3.5494 0.763685)
(3.37879 -4.43816 1.25705)
(3.42211 -4.72898 1.42516)
(3.29471 -4.34344 1.3818)
(1.8003 -3.47396 0.847999)
(-1.69443 0.441953 -2.26835)
(0.54602 0.432492 -2.03963)
(-0.477049 -2.67371 1.65865)
(1.23991 -2.58813 1.28111)
(1.29574 -2.72213 1.34557)
(1.84297 -2.94674 1.63335)
(2.22224 -3.10608 1.25432)
(2.3822 -3.17699 0.754802)
(2.34387 -3.03761 0.2628)
(2.18357 -2.86546 -0.115348)
(2.06688 -2.72273 -0.305198)
(1.98982 -2.57416 -0.380336)
(1.94217 -2.40388 -0.392145)
(2.00356 -2.26714 -0.314273)
(2.35657 -2.55649 0.0345448)
(3.18833 -3.99095 1.09115)
(3.48586 -4.67427 1.52624)
(3.32825 -4.69617 1.63787)
(2.89356 -3.92686 1.47294)
(1.05447 -2.89935 0.937204)
(-1.58684 0.366642 -2.20488)
(0.566697 0.115264 -2.11515)
(-0.375516 -2.44828 -0.0429157)
(0.923825 -2.04432 -0.564735)
(0.90565 -2.40658 -0.125013)
(1.37073 -2.62692 0.268398)
(1.711 -2.86185 0.245129)
(2.06029 -3.09246 0.0870394)
(2.1842 -3.06607 -0.106067)
(2.18118 -2.99346 -0.247462)
(2.17557 -2.87177 -0.324603)
(2.17124 -2.7044 -0.358111)
(2.19783 -2.52379 -0.356686)
(2.28356 -2.39307 -0.30339)
(2.65707 -2.85083 0.0783495)
(3.45099 -4.37776 1.45238)
(3.53272 -4.7912 1.82461)
(3.16402 -4.46766 1.85139)
(2.34771 -3.31005 1.49923)
(0.418958 -2.29343 0.995059)
(-1.36057 -0.226831 -2.9265)
(0.315785 -0.346032 -2.34728)
(-0.48007 -2.56694 -0.853699)
(0.812948 -2.11037 -1.20833)
(0.860255 -2.45168 -0.721562)
(1.28664 -2.63609 -0.373357)
(1.67462 -2.91653 -0.15895)
(2.10057 -3.14042 -0.0789761)
(2.33526 -3.1444 -0.148353)
(2.35729 -3.07478 -0.262693)
(2.37928 -2.91538 -0.319372)
(2.40036 -2.73498 -0.331056)
(2.49866 -2.60437 -0.346334)
(2.6159 -2.60469 -0.270763)
(3.02842 -3.33016 0.372376)
(3.6486 -4.66096 1.89489)
(3.50351 -4.73843 2.12287)
(2.89898 -4.02295 1.99156)
(1.80942 -2.64642 1.46728)
(0.163339 -1.87956 0.806127)
(-1.27132 -0.615989 -4.25103)
(0.195096 -0.665947 -3.24145)
(-0.456083 -2.74467 -1.4098)
(0.869286 -2.31098 -1.55993)
(1.02987 -2.63489 -1.01673)
(1.43513 -2.82754 -0.687666)
(1.84833 -3.07019 -0.330897)
(2.30971 -3.23557 -0.152633)
(2.55602 -3.20149 -0.201243)
(2.64637 -3.24246 -0.311193)
(2.78443 -3.14842 -0.396118)
(2.83693 -3.00579 -0.393386)
(2.81556 -2.73219 -0.324381)
(2.96134 -2.89945 -0.120472)
(3.42432 -3.83757 0.837588)
(3.72886 -4.74143 2.35928)
(3.36216 -4.48064 2.36561)
(2.50384 -3.41026 1.9884)
(1.38809 -2.09666 1.35628)
(0.199319 -1.74499 0.483443)
(-1.43181 -0.889177 -5.80566)
(0.171834 -0.913659 -4.49334)
(-0.373442 -2.91034 -2.00976)
(1.03794 -2.54583 -1.9292)
(1.27234 -2.8178 -1.29974)
(1.67042 -3.01756 -0.921356)
(2.10037 -3.21434 -0.45917)
(2.57641 -3.31537 -0.223485)
(2.79464 -3.25098 -0.255237)
(2.87222 -3.27804 -0.319566)
(3.04273 -3.2038 -0.364914)
(3.10343 -3.08039 -0.374045)
(3.1219 -2.91353 -0.226854)
(3.29646 -3.24207 0.194434)
(3.75449 -4.24334 1.45557)
(3.65053 -4.57886 2.78105)
(3.08684 -4.04271 2.49026)
(2.05224 -2.7995 1.7882)
(1.22182 -1.80341 1.01274)
(0.325718 -1.7461 0.145268)
(-1.7511 -1.06546 -7.51459)
(0.139947 -1.10179 -5.92347)
(-0.271133 -2.99072 -2.70787)
(1.26766 -2.72789 -2.35827)
(1.55019 -2.95133 -1.61314)
(1.9547 -3.1578 -1.15557)
(2.38707 -3.314 -0.598997)
(2.84513 -3.37008 -0.317519)
(3.0309 -3.3227 -0.312023)
(3.09829 -3.29174 -0.338722)
(3.20404 -3.18805 -0.294432)
(3.28113 -3.10748 -0.251802)
(3.38892 -3.12749 -0.0153482)
(3.60942 -3.54354 0.65296)
(3.90801 -4.37297 2.1571)
(3.41156 -4.17639 3.07494)
(2.67246 -3.49093 2.43857)
(1.67608 -2.35697 1.43025)