/*--------------------------------*- C++ -*----------------------------------*\
| =========                 |                                                 |
| \\      /  F ield         | OpenFOAM: The Open Source CFD Toolbox           |
|  \\    /   O peration     | Version:  2412                                  |
|   \\  /    A nd           | Website:  www.openfoam.com                      |
|    \\/     M anipulation  |                                                 |
\*---------------------------------------------------------------------------*/
FoamFile
{
    version     2.0;
    format      ascii;
    arch        "LSB;label=32;scalar=64";
    class       volScalarField;
    location    "80/heater";
    object      T;
}
// * * * * * * * * * * * * * * * * * * * * * * * * * * * * * * * * * * * * * //

dimensions      [0 0 0 1 0 0 0];

internalField   nonuniform List<scalar> 
80
(
327.46316
326.76168
325.40076
323.47934
331.30579
330.45399
328.78865
326.41842
339.41043
338.2639
335.96167
332.57437
352.58143
351.09145
347.89317
342.71469
483.35219
484.11841
484.15062
483.49715
454.21889
455.16088
455.15922
454.3132
428.55983
429.29106
429.0935
428.15879
406.14095
406.44316
405.75976
404.47966
387.04513
386.64016
384.89293
382.34813
371.75676
370.30087
366.66892
359.35481
483.35218
484.1184
484.15061
483.49715
454.21887
455.16087
455.15921
454.3132
428.5598
429.29104
429.09349
428.15879
406.14092
406.44314
405.75976
404.47967
387.04511
386.64015
384.89293
382.34815
371.75678
370.30088
366.66893
359.35482
352.58143
351.09146
347.89318
342.71469
339.41043
338.2639
335.96168
332.57438
331.30578
330.45399
328.78866
326.41844
327.46311
326.76167
325.40078
323.4794
)
;

boundaryField
{
    minY
    {
        type            fixedValue;
        value           uniform 500;
    }
    minZ
    {
        type            zeroGradient;
    }
    maxZ
    {
        type            zeroGradient;
    }
    heater_to_topAir
    {
        type            compressible::turbulentTemperatureRadCoupledMixed;
        refValue        nonuniform List<scalar> 
40
(
301.61048
302.97597
304.15061
305.12111
301.54127
302.86711
304.0137
304.96037
301.89506
303.5143
304.89944
306.01928
302.52284
304.68145
306.53044
308.00278
303.42322
306.37383
308.9121
310.90221
303.42322
306.37384
308.9121
310.90221
302.52284
304.68145
306.53044
308.00278
301.89506
303.5143
304.89944
306.01928
301.54127
302.86711
304.0137
304.96037
301.61048
302.97596
304.15061
305.12111
)
;
        refGradient     uniform 0;
        valueFraction   uniform 0.00032132529;
        source          uniform 0;
        logInterval     -1;
        writePrecision  8;
        updateHeader    1;
        writeToFile     0;
        useUserTime     1;
        kappaMethod     solidThermo;
        value           nonuniform List<scalar> 
40
(
327.44539
326.74469
325.38479
323.46462
331.28685
330.43585
328.77161
326.40275
339.3892
338.24365
335.94277
332.55717
352.5566
351.06784
347.87129
342.6951
371.72684
370.27236
366.64242
359.33132
371.72685
370.27237
366.64243
359.33133
352.5566
351.06785
347.8713
342.69511
339.38921
338.24365
335.94278
332.55718
331.28684
330.43585
328.77163
326.40277
327.44535
326.74468
325.38481
323.46467
)
;
    }
    heater_to_rightSolid
    {
        type            compressible::turbulentTemperatureRadCoupledMixed;
        refValue        nonuniform List<scalar> 10(321.14894 323.54332 328.3854 335.62737 344.09202 344.09201 335.62736 328.38542 323.54335 321.14899);
        refGradient     uniform 0;
        valueFraction   uniform 0.49999997;
        source          uniform 0;
        logInterval     -1;
        writePrecision  8;
        updateHeader    1;
        writeToFile     0;
        useUserTime     1;
        kappaMethod     solidThermo;
        value           nonuniform List<scalar> 10(322.30973 324.97648 330.47555 339.16681 351.71945 351.71945 339.16681 330.47556 324.97651 322.30978);
    }
    heater_to_leftSolid
    {
        type            compressible::turbulentTemperatureRadCoupledMixed;
        refValue        nonuniform List<scalar> 10(300.05725 300.07109 300.10327 300.15987 300.23196 300.23196 300.15987 300.10327 300.07109 300.05725);
        refGradient     uniform 0;
        valueFraction   uniform 2.0832464e-05;
        source          uniform 0;
        logInterval     -1;
        thicknessLayers List<scalar> 1(0.001);
        kappaLayers     List<scalar> 1(0.0005);
        writePrecision  8;
        updateHeader    1;
        writeToFile     0;
        useUserTime     1;
        kappaMethod     solidThermo;
        value           nonuniform List<scalar> 10(327.45313 331.29576 339.40044 352.57159 371.7473 371.74731 352.5716 339.40044 331.29575 327.45308);
    }
    heater_to_bottomWater
    {
        type            compressible::turbulentTemperatureRadCoupledMixed;
        refValue        nonuniform List<scalar> 
92
(
301.02531
301.74066
302.21208
302.46951
300.99527
301.69522
302.21443
302.56963
301.94193
302.88862
303.49118
303.88113
309.78544
313.1599
316.36912
318.39279
304.90007
307.15882
309.49892
311.74561
303.40502
305.00151
306.64966
308.25855
303.31822
304.79632
306.29926
307.69749
305.59736
305.59736
308.2265
308.2265
310.41471
310.41471
311.59747
311.59747
321.937
341.86313
311.29857
335.85284
308.16296
327.78182
307.86152
320.94879
309.94636
320.23449
321.937
309.78507
313.15969
316.36905
341.86329
318.39282
311.29856
304.90001
307.15878
309.49889
335.85291
311.74562
308.16295
303.40498
305.00148
306.64964
327.78188
308.25855
307.86151
303.31806
304.7962
306.2992
320.94893
307.69749
309.94635
305.59686
308.22624
310.41462
320.23476
311.59754
305.59686
308.22624
310.41462
311.59754
301.94175
302.88852
303.49113
303.88116
300.99523
301.69519
302.21442
302.56966
301.02529
301.74065
302.21207
302.46956
)
;
        refGradient     uniform 0;
        valueFraction   nonuniform List<scalar> 
92
(
0.0075140686
0.0075140686
0.0075140686
0.0075140686
0.0075140686
0.0075140686
0.0075140686
0.0075140686
0.0075140686
0.0075140686
0.0075140686
0.0075140686
0.0075140686
0.0075140686
0.0075140686
0.0075140686
0.0075140686
0.0075140686
0.0075140686
0.0075140686
0.0075140686
0.0075140686
0.0075140686
0.0075140686
0.0075140686
0.0075140686
0.0075140686
0.0075140686
0.0075140686
0.0075140686
0.0075140686
0.0075140686
0.0075140686
0.0075140686
0.0075140686
0.0075140686
0.0075140679
0.0075140679
0.0075140679
0.0075140679
0.0075140679
0.0075140679
0.0075140679
0.0075140679
0.0075140679
0.0075140679
0.0075140679
0.0075140686
0.0075140686
0.0075140686
0.0075140679
0.0075140686
0.0075140679
0.0075140686
0.0075140686
0.0075140686
0.0075140679
0.0075140686
0.0075140679
0.0075140686
0.0075140686
0.0075140686
0.0075140679
0.0075140686
0.0075140679
0.0075140686
0.0075140686
0.0075140686
0.0075140679
0.0075140686
0.0075140679
0.0075140686
0.0075140686
0.0075140686
0.0075140679
0.0075140686
0.0075140686
0.0075140686
0.0075140686
0.0075140686
0.0075140686
0.0075140686
0.0075140686
0.0075140686
0.0075140686
0.0075140686
0.0075140686
0.0075140686
0.0075140686
0.0075140686
0.0075140686
0.0075140686
)
;
        source          uniform 0;
        logInterval     -1;
        writePrecision  8;
        updateHeader    1;
        writeToFile     0;
        useUserTime     1;
        kappaMethod     solidThermo;
        value           nonuniform List<scalar> 
92
(
327.25511
326.56439
325.21745
323.31271
331.06873
330.22868
328.57996
326.2305
339.11978
337.98907
335.70883
332.35016
482.04706
482.83286
482.88893
482.25555
453.09416
454.04601
454.06191
453.2391
427.61501
428.35269
428.16897
427.25335
405.3625
405.67349
405.0065
403.74651
352.2197
386.42612
350.76073
386.0439
347.60303
384.32623
342.4725
381.80944
482.13837
482.43191
453.14224
453.42024
427.65077
427.40004
405.39664
403.84608
386.45879
381.87434
482.13836
482.04705
482.83285
482.88893
482.43191
482.25555
453.14222
453.09414
454.046
454.0619
453.42024
453.23909
427.65074
427.61499
428.35268
428.16897
427.40005
427.25335
405.39661
405.36247
405.67348
405.00649
403.84609
403.74652
386.45877
386.42609
386.04389
384.32623
381.87435
381.80945
352.21971
350.76073
347.60303
342.4725
339.11979
337.98907
335.70884
332.35017
331.06872
330.22868
328.57997
326.23053
327.25507
326.56438
325.21747
323.31277
)
;
    }
}


// ************************************************************************* //
