/*--------------------------------*- C++ -*----------------------------------*\
| =========                 |                                                 |
| \\      /  F ield         | OpenFOAM: The Open Source CFD Toolbox           |
|  \\    /   O peration     | Version:  2412                                  |
|   \\  /    A nd           | Website:  www.openfoam.com                      |
|    \\/     M anipulation  |                                                 |
\*---------------------------------------------------------------------------*/
FoamFile
{
    version     2.0;
    format      ascii;
    arch        "LSB;label=32;scalar=64";
    class       volScalarField;
    location    "60/bottomWater";
    object      p;
}
// * * * * * * * * * * * * * * * * * * * * * * * * * * * * * * * * * * * * * //

dimensions      [1 -1 -2 0 0 0 0];

internalField   nonuniform List<scalar> 
1460
(
353.16344
353.16309
353.16293
353.16279
353.16267
353.16255
353.16244
353.16233
353.16222
353.1621
353.16198
353.16184
353.16169
353.16151
353.16134
353.16117
353.16102
353.16089
353.16078
353.16069
353.16061
353.16053
353.16046
353.1604
353.16033
353.16027
353.16021
353.16015
353.16009
353.16002
274.6832
274.68301
274.68287
274.68276
274.68265
274.68253
274.68243
274.68232
274.68221
274.68209
274.68197
274.68184
274.68169
274.68152
274.68134
274.68118
274.68102
274.68089
274.68078
274.68068
274.6806
274.68053
274.68046
274.6804
274.68033
274.68027
274.68021
274.68014
274.68008
274.68002
196.20323
196.20304
196.2029
196.20278
196.20267
196.20255
196.20244
196.20233
196.20222
196.2021
196.20197
196.20184
196.20169
196.20152
196.20135
196.20118
196.20103
196.2009
196.20078
196.20069
196.20061
196.20053
196.20047
196.2004
196.20033
196.20027
196.20021
196.20014
196.20008
196.20002
117.7232
117.72301
117.72287
117.72276
117.72265
117.72253
117.72243
117.72232
117.72221
117.72209
117.72197
117.72184
117.72169
117.72152
117.72134
117.72118
117.72102
117.72089
117.72078
117.72068
117.7206
117.72053
117.72046
117.7204
117.72033
117.72027
117.72021
117.72014
117.72008
117.72002
39.24344
39.243089
39.242926
39.242795
39.242671
39.242553
39.242441
39.24233
39.242218
39.242101
39.241977
39.241841
39.241688
39.241513
39.241337
39.241172
39.241023
39.240892
39.240781
39.240688
39.240607
39.240533
39.240464
39.240398
39.240335
39.240272
39.240209
39.240148
39.240087
39.240025
353.16323
353.163
353.16287
353.16276
353.16265
353.16254
353.16244
353.16233
353.16223
353.16211
353.16199
353.16184
353.16166
353.16143
353.16125
353.1611
353.16096
353.16084
353.16074
353.16066
353.16059
353.16052
353.16046
353.16039
353.16033
353.16027
353.16021
353.16015
353.16009
353.16002
274.68299
274.68293
274.68283
274.68273
274.68263
274.68253
274.68243
274.68232
274.68222
274.68211
274.68199
274.68184
274.68166
274.68142
274.68124
274.68109
274.68095
274.68083
274.68073
274.68066
274.68059
274.68052
274.68046
274.68039
274.68033
274.68027
274.68021
274.68015
274.68008
274.68002
196.20303
196.20296
196.20286
196.20276
196.20265
196.20255
196.20244
196.20234
196.20223
196.20212
196.20199
196.20184
196.20166
196.20142
196.20124
196.20109
196.20096
196.20084
196.20074
196.20066
196.20059
196.20052
196.20046
196.2004
196.20033
196.20027
196.20021
196.20015
196.20008
196.20001
117.72299
117.72293
117.72283
117.72273
117.72263
117.72253
117.72243
117.72232
117.72222
117.72211
117.72199
117.72184
117.72166
117.72142
117.72124
117.72109
117.72095
117.72083
117.72073
117.72066
117.72059
117.72052
117.72046
117.72039
117.72033
117.72027
117.72021
117.72015
117.72008
117.72002
39.243231
39.243
39.242867
39.242756
39.242647
39.24254
39.242436
39.242333
39.242228
39.242114
39.241987
39.241837
39.241657
39.24143
39.241249
39.241098
39.240961
39.240838
39.240739
39.240658
39.240587
39.240521
39.240457
39.240395
39.240333
39.240272
39.24021
39.240149
39.240087
39.240024
353.16322
353.163
353.16287
353.16277
353.16267
353.16257
353.16248
353.16239
353.1623
353.1622
353.16209
353.16196
353.16179
353.16147
353.16124
353.16105
353.16088
353.16073
353.16065
353.1606
353.16055
353.1605
353.16045
353.1604
353.16034
353.16028
353.16022
353.16016
353.1601
353.16003
274.68298
274.68292
274.68284
274.68275
274.68265
274.68256
274.68247
274.68238
274.6823
274.6822
274.6821
274.68198
274.6818
274.68147
274.68122
274.68102
274.68085
274.6807
274.68063
274.68059
274.68055
274.6805
274.68045
274.6804
274.68034
274.68028
274.68022
274.68016
274.68009
274.68003
196.20302
196.20296
196.20287
196.20277
196.20268
196.20258
196.20249
196.2024
196.20231
196.20222
196.20211
196.20198
196.20181
196.20148
196.20123
196.20103
196.20085
196.2007
196.20063
196.20059
196.20055
196.20051
196.20046
196.2004
196.20034
196.20028
196.20022
196.20016
196.20009
196.20002
117.72298
117.72292
117.72284
117.72275
117.72265
117.72256
117.72247
117.72238
117.7223
117.7222
117.7221
117.72198
117.7218
117.72147
117.72122
117.72102
117.72085
117.7207
117.72063
117.72059
117.72055
117.7205
117.72045
117.7204
117.72034
117.72028
117.72022
117.72016
117.72009
117.72003
39.243221
39.242999
39.242873
39.242771
39.24267
39.242573
39.242479
39.242388
39.242298
39.242202
39.242094
39.24196
39.241787
39.241474
39.241237
39.241046
39.240879
39.240732
39.240654
39.240602
39.240554
39.240504
39.240452
39.240397
39.24034
39.240281
39.24022
39.240158
39.240095
39.240031
353.16318
353.16297
353.16285
353.16276
353.16267
353.16258
353.16249
353.16242
353.16234
353.16226
353.16216
353.16199
353.16166
353.16085
353.16095
353.16085
353.16071
353.16052
353.16054
353.16053
353.16051
353.16048
353.16044
353.16039
353.16034
353.16029
353.16023
353.16017
353.1601
353.16004
274.68294
274.68289
274.68282
274.68274
274.68265
274.68257
274.68249
274.68241
274.68234
274.68227
274.68218
274.68201
274.6816
274.68059
274.68082
274.6808
274.68066
274.68047
274.6805
274.68051
274.6805
274.68048
274.68044
274.6804
274.68035
274.68029
274.68023
274.68017
274.68011
274.68004
196.20298
196.20293
196.20285
196.20276
196.20267
196.20259
196.2025
196.20243
196.20235
196.20228
196.20218
196.20201
196.20158
196.20055
196.20081
196.2008
196.20066
196.20049
196.20051
196.20052
196.20051
196.20048
196.20045
196.2004
196.20035
196.20029
196.20023
196.20017
196.20011
196.20004
117.72294
117.72289
117.72282
117.72274
117.72265
117.72257
117.72249
117.72241
117.72234
117.72227
117.72218
117.72201
117.7216
117.72059
117.72082
117.7208
117.72066
117.72047
117.7205
117.72051
117.7205
117.72048
117.72044
117.7204
117.72035
117.72029
117.72023
117.72017
117.72011
117.72004
39.243183
39.242969
39.242853
39.242758
39.242666
39.242578
39.242495
39.242416
39.242339
39.242257
39.242156
39.241989
39.241658
39.240848
39.240953
39.240851
39.240713
39.240524
39.240536
39.240529
39.240511
39.240481
39.240441
39.240394
39.240342
39.240285
39.240227
39.240166
39.240103
39.240039
353.16318
353.16297
353.16286
353.16277
353.16268
353.1626
353.16253
353.16248
353.16244
353.16243
353.16245
353.16251
353.16265
353.16019
353.16042
353.16045
353.1605
353.16049
353.16046
353.16042
353.16037
353.16031
353.16025
353.16018
353.16012
353.16005
274.68294
274.68289
274.68282
274.68275
274.68267
274.68259
274.68253
274.68248
274.68245
274.68246
274.68252
274.68265
274.68294
274.68006
274.68038
274.68044
274.6805
274.68051
274.68048
274.68044
274.68038
274.68032
274.68026
274.68019
274.68012
274.68006
196.20298
196.20293
196.20285
196.20277
196.20269
196.20261
196.20255
196.20249
196.20246
196.20247
196.20255
196.20269
196.20304
196.20005
196.20039
196.20045
196.20051
196.20051
196.20048
196.20044
196.20038
196.20032
196.20026
196.20019
196.20013
196.20006
117.72294
117.72289
117.72282
117.72275
117.72267
117.72259
117.72253
117.72248
117.72245
117.72246
117.72252
117.72265
117.72294
117.72006
117.72038
117.72044
117.7205
117.72051
117.72048
117.72044
117.72038
117.72032
117.72026
117.72019
117.72012
117.72006
39.243183
39.242971
39.242858
39.242768
39.242682
39.242603
39.242534
39.242479
39.242441
39.242426
39.242449
39.242512
39.242646
39.240194
39.240415
39.240454
39.240496
39.240489
39.24046
39.240417
39.240366
39.240308
39.240247
39.240183
39.240116
39.240051
353.16318
353.16297
353.16286
353.16277
353.16268
353.1626
353.16253
353.16248
353.16244
353.16243
353.16245
353.16251
353.16265
353.16019
353.16042
353.16045
353.1605
353.16049
353.16046
353.16042
353.16037
353.16031
353.16025
353.16018
353.16012
353.16005
274.68294
274.68289
274.68282
274.68275
274.68267
274.68259
274.68253
274.68248
274.68245
274.68246
274.68252
274.68265
274.68294
274.68006
274.68038
274.68044
274.6805
274.68051
274.68048
274.68044
274.68038
274.68032
274.68026
274.68019
274.68012
274.68006
196.20298
196.20293
196.20285
196.20277
196.20269
196.20261
196.20255
196.20249
196.20246
196.20247
196.20255
196.20269
196.20304
196.20005
196.20039
196.20045
196.20051
196.20051
196.20048
196.20044
196.20038
196.20032
196.20026
196.20019
196.20013
196.20006
117.72294
117.72289
117.72282
117.72275
117.72267
117.72259
117.72253
117.72248
117.72245
117.72246
117.72252
117.72265
117.72294
117.72006
117.72038
117.72044
117.7205
117.72051
117.72048
117.72044
117.72038
117.72032
117.72026
117.72019
117.72012
117.72006
39.243183
39.242971
39.242858
39.242768
39.242682
39.242603
39.242534
39.242479
39.242441
39.242426
39.242449
39.242512
39.242646
39.240194
39.240415
39.240454
39.240496
39.240489
39.24046
39.240417
39.240366
39.240308
39.240247
39.240183
39.240116
39.240051
353.16318
353.16297
353.16285
353.16276
353.16267
353.16258
353.16249
353.16242
353.16234
353.16226
353.16216
353.16199
353.16166
353.16085
353.16095
353.16085
353.16071
353.16052
353.16054
353.16053
353.16051
353.16048
353.16044
353.16039
353.16034
353.16029
353.16023
353.16017
353.1601
353.16004
274.68294
274.68289
274.68282
274.68274
274.68265
274.68257
274.68249
274.68241
274.68234
274.68227
274.68218
274.68201
274.6816
274.68059
274.68082
274.6808
274.68066
274.68047
274.6805
274.68051
274.6805
274.68048
274.68044
274.6804
274.68035
274.68029
274.68023
274.68017
274.68011
274.68004
196.20298
196.20293
196.20285
196.20276
196.20267
196.20259
196.2025
196.20243
196.20235
196.20228
196.20218
196.20201
196.20158
196.20055
196.20081
196.2008
196.20066
196.20049
196.20051
196.20052
196.20051
196.20048
196.20045
196.2004
196.20035
196.20029
196.20023
196.20017
196.20011
196.20004
117.72294
117.72289
117.72282
117.72274
117.72265
117.72257
117.72249
117.72241
117.72234
117.72227
117.72218
117.72201
117.7216
117.72059
117.72082
117.7208
117.72066
117.72047
117.7205
117.72051
117.7205
117.72048
117.72044
117.7204
117.72035
117.72029
117.72023
117.72017
117.72011
117.72004
39.243183
39.242969
39.242853
39.242758
39.242666
39.242578
39.242495
39.242416
39.242339
39.242257
39.242156
39.241989
39.241658
39.240848
39.240953
39.240851
39.240713
39.240524
39.240536
39.240529
39.240511
39.240481
39.240441
39.240394
39.240342
39.240285
39.240227
39.240166
39.240103
39.240039
353.16322
353.163
353.16287
353.16277
353.16267
353.16257
353.16248
353.16239
353.1623
353.1622
353.16209
353.16196
353.16179
353.16147
353.16124
353.16105
353.16088
353.16073
353.16065
353.1606
353.16055
353.1605
353.16045
353.1604
353.16034
353.16028
353.16022
353.16016
353.1601
353.16003
274.68298
274.68292
274.68284
274.68275
274.68265
274.68256
274.68247
274.68238
274.6823
274.6822
274.6821
274.68198
274.6818
274.68147
274.68122
274.68102
274.68085
274.6807
274.68063
274.68059
274.68055
274.6805
274.68045
274.6804
274.68034
274.68028
274.68022
274.68016
274.68009
274.68003
196.20302
196.20296
196.20287
196.20277
196.20268
196.20258
196.20249
196.2024
196.20231
196.20222
196.20211
196.20198
196.20181
196.20148
196.20123
196.20103
196.20085
196.2007
196.20063
196.20059
196.20055
196.20051
196.20046
196.2004
196.20034
196.20028
196.20022
196.20016
196.20009
196.20002
117.72298
117.72292
117.72284
117.72275
117.72265
117.72256
117.72247
117.72238
117.7223
117.7222
117.7221
117.72198
117.7218
117.72147
117.72122
117.72102
117.72085
117.7207
117.72063
117.72059
117.72055
117.7205
117.72045
117.7204
117.72034
117.72028
117.72022
117.72016
117.72009
117.72003
39.243221
39.242999
39.242873
39.242771
39.24267
39.242573
39.242479
39.242388
39.242298
39.242202
39.242094
39.24196
39.241787
39.241474
39.241237
39.241046
39.240879
39.240732
39.240654
39.240602
39.240554
39.240504
39.240452
39.240397
39.24034
39.240281
39.24022
39.240158
39.240095
39.240031
353.16323
353.163
353.16287
353.16276
353.16265
353.16254
353.16244
353.16233
353.16223
353.16211
353.16199
353.16184
353.16166
353.16143
353.16125
353.1611
353.16096
353.16084
353.16074
353.16066
353.16059
353.16052
353.16046
353.16039
353.16033
353.16027
353.16021
353.16015
353.16009
353.16002
274.68299
274.68293
274.68283
274.68273
274.68263
274.68253
274.68243
274.68232
274.68222
274.68211
274.68199
274.68184
274.68166
274.68142
274.68124
274.68109
274.68095
274.68083
274.68073
274.68066
274.68059
274.68052
274.68046
274.68039
274.68033
274.68027
274.68021
274.68015
274.68008
274.68002
196.20303
196.20296
196.20286
196.20276
196.20265
196.20255
196.20244
196.20234
196.20223
196.20212
196.20199
196.20184
196.20166
196.20142
196.20124
196.20109
196.20096
196.20084
196.20074
196.20066
196.20059
196.20052
196.20046
196.2004
196.20033
196.20027
196.20021
196.20015
196.20008
196.20001
117.72299
117.72293
117.72283
117.72273
117.72263
117.72253
117.72243
117.72232
117.72222
117.72211
117.72199
117.72184
117.72166
117.72142
117.72124
117.72109
117.72095
117.72083
117.72073
117.72066
117.72059
117.72052
117.72046
117.72039
117.72033
117.72027
117.72021
117.72015
117.72008
117.72002
39.243231
39.243
39.242867
39.242756
39.242647
39.24254
39.242436
39.242333
39.242228
39.242114
39.241987
39.241837
39.241657
39.24143
39.241249
39.241098
39.240961
39.240838
39.240739
39.240658
39.240587
39.240521
39.240457
39.240395
39.240333
39.240272
39.24021
39.240149
39.240087
39.240024
353.16344
353.16309
353.16293
353.16279
353.16267
353.16255
353.16244
353.16233
353.16222
353.1621
353.16198
353.16184
353.16169
353.16151
353.16134
353.16117
353.16102
353.16089
353.16078
353.16069
353.16061
353.16053
353.16046
353.1604
353.16033
353.16027
353.16021
353.16015
353.16009
353.16002
274.6832
274.68301
274.68287
274.68276
274.68265
274.68253
274.68243
274.68232
274.68221
274.68209
274.68197
274.68184
274.68169
274.68152
274.68134
274.68118
274.68102
274.68089
274.68078
274.68068
274.6806
274.68053
274.68046
274.6804
274.68033
274.68027
274.68021
274.68014
274.68008
274.68002
196.20323
196.20304
196.2029
196.20278
196.20267
196.20255
196.20244
196.20233
196.20222
196.2021
196.20197
196.20184
196.20169
196.20152
196.20135
196.20118
196.20103
196.2009
196.20078
196.20069
196.20061
196.20053
196.20047
196.2004
196.20033
196.20027
196.20021
196.20014
196.20008
196.20002
117.7232
117.72301
117.72287
117.72276
117.72265
117.72253
117.72243
117.72232
117.72221
117.72209
117.72197
117.72184
117.72169
117.72152
117.72134
117.72118
117.72102
117.72089
117.72078
117.72068
117.7206
117.72053
117.72046
117.7204
117.72033
117.72027
117.72021
117.72014
117.72008
117.72002
39.24344
39.243089
39.242926
39.242795
39.242671
39.242553
39.242441
39.24233
39.242218
39.242101
39.241977
39.241841
39.241688
39.241513
39.241337
39.241172
39.241023
39.240892
39.240781
39.240688
39.240607
39.240533
39.240464
39.240398
39.240335
39.240272
39.240209
39.240148
39.240087
39.240025
)
;

boundaryField
{
    minX
    {
        type            calculated;
        value           nonuniform List<scalar> 
50
(
353.16344
274.6832
196.20323
117.7232
39.24344
353.16323
274.68299
196.20303
117.72299
39.243231
353.16322
274.68298
196.20302
117.72298
39.243221
353.16318
274.68294
196.20298
117.72294
39.243183
353.16318
274.68294
196.20298
117.72294
39.243183
353.16318
274.68294
196.20298
117.72294
39.243183
353.16318
274.68294
196.20298
117.72294
39.243183
353.16322
274.68298
196.20302
117.72298
39.243221
353.16323
274.68299
196.20303
117.72299
39.243231
353.16344
274.6832
196.20323
117.7232
39.24344
)
;
    }
    maxX
    {
        type            calculated;
        value           nonuniform List<scalar> 
50
(
353.16
274.68
196.2
117.72
39.24
353.16
274.68
196.2
117.72
39.24
353.16
274.68
196.2
117.72
39.24
353.16
274.68
196.2
117.72
39.24
353.16
274.68
196.2
117.72
39.24
353.16
274.68
196.2
117.72
39.24
353.16
274.68
196.2
117.72
39.24
353.16
274.68
196.2
117.72
39.24
353.16
274.68
196.2
117.72
39.24
353.16
274.68
196.2
117.72
39.24
)
;
    }
    minY
    {
        type            calculated;
        value           nonuniform List<scalar> 
292
(
392.40344
392.40323
392.40322
392.40318
392.40318
392.40318
392.40318
392.40322
392.40323
392.40344
392.40309
392.403
392.403
392.40297
392.40297
392.40297
392.40297
392.403
392.403
392.40309
392.40293
392.40287
392.40287
392.40285
392.40286
392.40286
392.40285
392.40287
392.40287
392.40293
392.40279
392.40276
392.40277
392.40276
392.40277
392.40277
392.40276
392.40277
392.40276
392.40279
392.40267
392.40265
392.40267
392.40267
392.40268
392.40268
392.40267
392.40267
392.40265
392.40267
392.40255
392.40254
392.40257
392.40258
392.4026
392.4026
392.40258
392.40257
392.40254
392.40255
392.40244
392.40244
392.40248
392.40249
392.40253
392.40253
392.40249
392.40248
392.40244
392.40244
392.40233
392.40233
392.40239
392.40242
392.40248
392.40248
392.40242
392.40239
392.40233
392.40233
392.40222
392.40223
392.4023
392.40234
392.40244
392.40244
392.40234
392.4023
392.40223
392.40222
392.4021
392.40211
392.4022
392.40226
392.40243
392.40243
392.40226
392.4022
392.40211
392.4021
392.40198
392.40199
392.40209
392.40216
392.40245
392.40245
392.40216
392.40209
392.40199
392.40198
392.40184
392.40184
392.40196
392.40199
392.40251
392.40251
392.40199
392.40196
392.40184
392.40184
392.40169
392.40166
392.40179
392.40166
392.40265
392.40265
392.40166
392.40179
392.40166
392.40169
392.40151
392.40143
392.40147
392.40085
392.40085
392.40147
392.40143
392.40151
392.40134
392.40125
392.40124
392.40095
392.40095
392.40124
392.40125
392.40134
392.40117
392.4011
392.40105
392.40085
392.40085
392.40105
392.4011
392.40117
392.40102
392.40096
392.40088
392.40071
392.40071
392.40088
392.40096
392.40102
392.40089
392.40084
392.40073
392.40052
392.40019
392.40019
392.40052
392.40073
392.40084
392.40089
392.40078
392.40074
392.40065
392.40054
392.40042
392.40042
392.40054
392.40065
392.40074
392.40078
392.40069
392.40066
392.4006
392.40053
392.40045
392.40045
392.40053
392.4006
392.40066
392.40069
392.40061
392.40059
392.40055
392.40051
392.4005
392.4005
392.40051
392.40055
392.40059
392.40061
392.40053
392.40052
392.4005
392.40048
392.40049
392.40049
392.40048
392.4005
392.40052
392.40053
392.40046
392.40046
392.40045
392.40044
392.40046
392.40046
392.40044
392.40045
392.40046
392.40046
392.4004
392.40039
392.4004
392.40039
392.40042
392.40042
392.40039
392.4004
392.40039
392.4004
392.40033
392.40033
392.40034
392.40034
392.40037
392.40037
392.40034
392.40034
392.40033
392.40033
392.40027
392.40027
392.40028
392.40029
392.40031
392.40031
392.40029
392.40028
392.40027
392.40027
392.40021
392.40021
392.40022
392.40023
392.40025
392.40025
392.40023
392.40022
392.40021
392.40021
392.40015
392.40015
392.40016
392.40017
392.40018
392.40018
392.40017
392.40016
392.40015
392.40015
392.40009
392.40009
392.4001
392.4001
392.40012
392.40012
392.4001
392.4001
392.40009
392.40009
392.40002
392.40002
392.40003
392.40004
392.40005
392.40005
392.40004
392.40003
392.40002
392.40002
)
;
    }
    minZ
    {
        type            calculated;
        value           nonuniform List<scalar> 
150
(
353.16344
274.6832
196.20323
117.7232
39.24344
353.16309
274.68301
196.20304
117.72301
39.243089
353.16293
274.68287
196.2029
117.72287
39.242926
353.16279
274.68276
196.20278
117.72276
39.242795
353.16267
274.68265
196.20267
117.72265
39.242671
353.16255
274.68253
196.20255
117.72253
39.242553
353.16244
274.68243
196.20244
117.72243
39.242441
353.16233
274.68232
196.20233
117.72232
39.24233
353.16222
274.68221
196.20222
117.72221
39.242218
353.1621
274.68209
196.2021
117.72209
39.242101
353.16198
274.68197
196.20197
117.72197
39.241977
353.16184
274.68184
196.20184
117.72184
39.241841
353.16169
274.68169
196.20169
117.72169
39.241688
353.16151
274.68152
196.20152
117.72152
39.241513
353.16134
274.68134
196.20135
117.72134
39.241337
353.16117
274.68118
196.20118
117.72118
39.241172
353.16102
274.68102
196.20103
117.72102
39.241023
353.16089
274.68089
196.2009
117.72089
39.240892
353.16078
274.68078
196.20078
117.72078
39.240781
353.16069
274.68068
196.20069
117.72068
39.240688
353.16061
274.6806
196.20061
117.7206
39.240607
353.16053
274.68053
196.20053
117.72053
39.240533
353.16046
274.68046
196.20047
117.72046
39.240464
353.1604
274.6804
196.2004
117.7204
39.240398
353.16033
274.68033
196.20033
117.72033
39.240335
353.16027
274.68027
196.20027
117.72027
39.240272
353.16021
274.68021
196.20021
117.72021
39.240209
353.16015
274.68014
196.20014
117.72014
39.240148
353.16009
274.68008
196.20008
117.72008
39.240087
353.16002
274.68002
196.20002
117.72002
39.240025
)
;
    }
    maxZ
    {
        type            calculated;
        value           nonuniform List<scalar> 
150
(
353.16344
274.6832
196.20323
117.7232
39.24344
353.16309
274.68301
196.20304
117.72301
39.243089
353.16293
274.68287
196.2029
117.72287
39.242926
353.16279
274.68276
196.20278
117.72276
39.242795
353.16267
274.68265
196.20267
117.72265
39.242671
353.16255
274.68253
196.20255
117.72253
39.242553
353.16244
274.68243
196.20244
117.72243
39.242441
353.16233
274.68232
196.20233
117.72232
39.24233
353.16222
274.68221
196.20222
117.72221
39.242218
353.1621
274.68209
196.2021
117.72209
39.242101
353.16198
274.68197
196.20197
117.72197
39.241977
353.16184
274.68184
196.20184
117.72184
39.241841
353.16169
274.68169
196.20169
117.72169
39.241688
353.16151
274.68152
196.20152
117.72152
39.241513
353.16134
274.68134
196.20135
117.72134
39.241337
353.16117
274.68118
196.20118
117.72118
39.241172
353.16102
274.68102
196.20103
117.72102
39.241023
353.16089
274.68089
196.2009
117.72089
39.240892
353.16078
274.68078
196.20078
117.72078
39.240781
353.16069
274.68068
196.20069
117.72068
39.240688
353.16061
274.6806
196.20061
117.7206
39.240607
353.16053
274.68053
196.20053
117.72053
39.240533
353.16046
274.68046
196.20047
117.72046
39.240464
353.1604
274.6804
196.2004
117.7204
39.240398
353.16033
274.68033
196.20033
117.72033
39.240335
353.16027
274.68027
196.20027
117.72027
39.240272
353.16021
274.68021
196.20021
117.72021
39.240209
353.16015
274.68014
196.20014
117.72014
39.240148
353.16009
274.68008
196.20008
117.72008
39.240087
353.16002
274.68002
196.20002
117.72002
39.240025
)
;
    }
    bottomWater_to_rightSolid
    {
        type            calculated;
        value           nonuniform List<scalar> 
130
(
0.00089213026
0.00078135024
0.00068788072
0.00060650404
0.00053286857
0.00046413101
0.00039843983
0.00033456157
0.00027170567
0.00020948766
0.00014780833
8.6530206e-05
2.4831988e-05
0.00083800621
0.00073885587
0.00065831471
0.00058729777
0.00052103432
0.00045726843
0.00039486541
0.00033314947
0.0002717046
0.00021029649
0.00014878588
8.6949981e-05
2.4180677e-05
0.00073181404
0.00065449283
0.00060221202
0.00055409223
0.00050434995
0.000451959
0.00039705097
0.00033989203
0.00028074836
0.00022007251
0.00015825405
9.5074896e-05
3.0527674e-05
0.00052438657
0.00053607182
0.00052907485
0.00051127844
0.00048134846
0.00044145394
0.00039437385
0.00034178841
0.0002854498
0.00022672661
0.00016581083
0.00010289991
3.9038011e-05
0.00019374535
0.00041515527
0.00045405615
0.0004956763
0.00048908795
0.00045970166
0.00041703501
0.00036563773
0.00030839308
0.00024707797
0.00018263919
0.00011590377
5.1231328e-05
0.00019374525
0.00041515517
0.00045405607
0.00049567622
0.00048908788
0.0004597016
0.00041703497
0.00036563768
0.00030839305
0.00024707795
0.00018263917
0.00011590375
5.1231307e-05
0.0005243865
0.00053607174
0.00052907477
0.00051127836
0.00048134838
0.00044145387
0.00039437378
0.00034178836
0.00028544976
0.00022672658
0.00016581081
0.00010289989
3.9037986e-05
0.00073181394
0.00065449273
0.00060221192
0.00055409215
0.00050434987
0.00045195894
0.00039705091
0.00033989198
0.00028074832
0.00022007249
0.00015825404
9.5074889e-05
3.0527651e-05
0.00083800611
0.00073885576
0.00065831462
0.00058729768
0.00052103424
0.00045726837
0.00039486535
0.00033314943
0.00027170458
0.00021029648
0.00014878588
8.6949978e-05
2.418065e-05
0.00089213014
0.00078135013
0.00068788061
0.00060650394
0.00053286849
0.00046413093
0.00039843976
0.00033456153
0.00027170564
0.00020948764
0.00014780832
8.6530199e-05
2.4831964e-05
)
;
    }
    bottomWater_to_leftSolid
    {
        type            calculated;
        value           nonuniform List<scalar> 
130
(
0.0034404127
0.0030891871
0.0029258189
0.0027945898
0.0026705188
0.0025532279
0.002440916
0.0023301028
0.002217772
0.0021013323
0.0019771023
0.00184066
0.0016877528
0.0032313524
0.0030000033
0.002866734
0.0027561913
0.0026469964
0.0025399671
0.0024358225
0.0023330142
0.0022276484
0.0021144458
0.0019871692
0.0018374413
0.0016571879
0.0032214027
0.0029994419
0.0028734277
0.0027705867
0.0026700492
0.002572812
0.0024793672
0.0023883849
0.0022975167
0.002202206
0.0020943858
0.0019603679
0.0017866457
0.0031829835
0.0029694477
0.002852712
0.0027584985
0.002666352
0.0025779512
0.002494949
0.0024163263
0.0023393515
0.002257188
0.0021559871
0.0019888653
0.0016581244
0.003182569
0.0029708216
0.002857539
0.0027679848
0.0026824257
0.0026032376
0.0025344395
0.0024790559
0.0024408508
0.0024262097
0.0024488112
0.002511671
0.0026457433
0.003182569
0.0029708216
0.002857539
0.0027679848
0.0026824257
0.0026032376
0.0025344395
0.0024790559
0.0024408508
0.0024262097
0.0024488112
0.002511671
0.0026457433
0.0031829835
0.0029694477
0.002852712
0.0027584985
0.002666352
0.0025779512
0.002494949
0.0024163263
0.0023393515
0.002257188
0.002155987
0.0019888652
0.0016581243
0.0032214027
0.0029994419
0.0028734277
0.0027705867
0.0026700492
0.002572812
0.0024793672
0.0023883849
0.0022975167
0.002202206
0.0020943858
0.0019603679
0.0017866457
0.0032313524
0.0030000033
0.002866734
0.0027561913
0.0026469964
0.0025399671
0.0024358226
0.0023330142
0.0022276485
0.0021144458
0.0019871692
0.0018374413
0.0016571878
0.0034404127
0.0030891871
0.0029258189
0.0027945898
0.0026705188
0.0025532279
0.002440916
0.0023301028
0.002217772
0.0021013323
0.0019771022
0.00184066
0.0016877527
)
;
    }
    bottomWater_to_heater
    {
        type            calculated;
        value           nonuniform List<scalar> 
92
(
0.0015131745
0.001337433
0.0011722123
0.001022967
0.0014302699
0.001248757
0.0010976029
0.00096098799
0.001473873
0.0012369863
0.0010460044
0.00087867696
353.16085
353.16095
353.16085
353.16071
274.68059
274.68082
274.6808
274.68066
196.20055
196.20081
196.2008
196.20066
117.72059
117.72082
117.7208
117.72066
0.00084807887
39.240848
0.00095337201
39.240953
0.00085096536
39.240851
0.00071324709
39.240713
353.16265
353.16019
274.68294
274.68006
196.20304
196.20005
117.72294
117.72006
39.242646
39.240194
353.16265
353.16085
353.16095
353.16085
353.16019
353.16071
274.68294
274.68059
274.68082
274.6808
274.68006
274.68066
196.20304
196.20055
196.20081
196.2008
196.20005
196.20066
117.72294
117.72059
117.72082
117.7208
117.72006
117.72066
39.242646
39.240848
39.240953
39.240851
39.240194
39.240713
0.00084807877
0.00095337189
0.00085096525
0.00071324698
0.0014738729
0.0012369862
0.0010460043
0.00087867685
0.0014302698
0.0012487569
0.0010976028
0.00096098789
0.0015131744
0.0013374329
0.0011722122
0.0010229669
)
;
    }
}


// ************************************************************************* //
