/*--------------------------------*- C++ -*----------------------------------*\
| =========                 |                                                 |
| \\      /  F ield         | OpenFOAM: The Open Source CFD Toolbox           |
|  \\    /   O peration     | Version:  2412                                  |
|   \\  /    A nd           | Website:  www.openfoam.com                      |
|    \\/     M anipulation  |                                                 |
\*---------------------------------------------------------------------------*/
FoamFile
{
    version     2.0;
    format      ascii;
    arch        "LSB;label=32;scalar=64";
    class       volScalarField;
    location    "60/bottomWater";
    object      p_rgh;
}
// * * * * * * * * * * * * * * * * * * * * * * * * * * * * * * * * * * * * * //

dimensions      [1 -1 -2 0 0 0 0];

internalField   nonuniform List<scalar> 
1460
(
0.0034404127
0.0030891871
0.0029258189
0.0027945898
0.0026705188
0.0025532279
0.002440916
0.0023301028
0.002217772
0.0021013323
0.0019771023
0.00184066
0.0016877528
0.0015131745
0.001337433
0.0011722123
0.001022967
0.00089213026
0.00078135024
0.00068788072
0.00060650404
0.00053286857
0.00046413101
0.00039843984
0.00033456159
0.00027170569
0.00020948767
0.00014780834
8.6530211e-05
2.483199e-05
0.0031962782
0.0030064127
0.0028719617
0.0027575272
0.0026451837
0.0025348956
0.0024269453
0.0023191333
0.0022083921
0.0020927531
0.0019704357
0.0018371716
0.0016879955
0.0015171437
0.0013425942
0.0011767302
0.0010244994
0.0008905966
0.00077830441
0.00068461102
0.00060348357
0.00053000547
0.00046120435
0.00039528437
0.00033113314
0.00026812671
0.00020587727
0.00014415409
8.255571e-05
1.9376394e-05
0.0032323613
0.0030427361
0.0029024678
0.0027830366
0.002666497
0.0025523361
0.0024408644
0.0023300251
0.0022164449
0.0020977196
0.0019731014
0.0018384417
0.0016888867
0.0015187952
0.0013455312
0.0011813264
0.0010299167
0.000895522
0.00078315026
0.00068950795
0.00060822638
0.00053441881
0.00046520811
0.00039882601
0.000334124
0.00027042333
0.00020737721
0.0001447096
8.2147953e-05
1.7455007e-05
0.0031962782
0.0030064127
0.0028719617
0.0027575272
0.0026451837
0.0025348956
0.0024269453
0.0023191333
0.0022083921
0.0020927531
0.0019704357
0.0018371716
0.0016879955
0.0015171437
0.0013425942
0.0011767302
0.0010244994
0.0008905966
0.00077830442
0.00068461102
0.00060348357
0.00053000547
0.00046120434
0.00039528436
0.00033113313
0.0002681267
0.00020587725
0.00014415407
8.2555704e-05
1.9376391e-05
0.0034404127
0.0030891871
0.0029258189
0.0027945898
0.0026705188
0.0025532279
0.002440916
0.0023301028
0.002217772
0.0021013323
0.0019771023
0.00184066
0.0016877528
0.0015131745
0.001337433
0.0011722123
0.001022967
0.00089213026
0.00078135024
0.00068788072
0.00060650404
0.00053286857
0.00046413101
0.00039843983
0.00033456157
0.00027170567
0.00020948766
0.00014780833
8.6530206e-05
2.4831988e-05
0.0032313524
0.0030000033
0.002866734
0.0027561913
0.0026469964
0.0025399671
0.0024358225
0.0023330141
0.0022276484
0.0021144458
0.0019871692
0.0018374413
0.0016571879
0.0014302699
0.001248757
0.0010976029
0.00096098799
0.00083800621
0.00073885586
0.00065831471
0.00058729777
0.00052103432
0.00045726844
0.00039486542
0.00033314949
0.00027170462
0.00021029652
0.0001487859
8.6949994e-05
2.4180683e-05
0.0029931266
0.0029254684
0.0028325105
0.0027334972
0.0026317739
0.0025291262
0.0024267584
0.002324574
0.0022208673
0.002110483
0.0019858077
0.0018379597
0.001655964
0.0014235036
0.0012379047
0.0010881731
0.00095367547
0.00083281535
0.0007345073
0.00065532373
0.00058570328
0.0005202132
0.00045669644
0.00039413017
0.00033209181
0.00027031682
0.0002085427
0.00014648887
8.3353593e-05
1.6667984e-05
0.0030273211
0.0029607337
0.0028624346
0.0027585333
0.0026532317
0.002547411
0.00244187
0.002336365
0.0022300276
0.0021178176
0.0019908984
0.0018405594
0.0016560424
0.0014225615
0.0012377909
0.0010898938
0.00095678302
0.00083715645
0.00073963169
0.00066055676
0.0005907257
0.00052485124
0.00046085712
0.00039773005
0.00033498786
0.00027237623
0.00020971588
0.00014665969
8.2242992e-05
1.3112068e-05
0.0029931266
0.0029254684
0.0028325105
0.0027334972
0.0026317739
0.0025291262
0.0024267584
0.002324574
0.0022208673
0.002110483
0.0019858077
0.0018379597
0.001655964
0.0014235036
0.0012379047
0.0010881731
0.00095367547
0.00083281535
0.00073450731
0.00065532374
0.00058570329
0.00052021321
0.00045669645
0.00039413018
0.0003320918
0.0002703168
0.00020854267
0.00014648885
8.335358e-05
1.666798e-05
0.0032313524
0.0030000033
0.002866734
0.0027561913
0.0026469964
0.0025399671
0.0024358225
0.0023330142
0.0022276484
0.0021144458
0.0019871692
0.0018374413
0.0016571879
0.0014302699
0.001248757
0.0010976029
0.00096098799
0.00083800621
0.00073885587
0.00065831471
0.00058729777
0.00052103432
0.00045726843
0.00039486541
0.00033314947
0.0002717046
0.00021029649
0.00014878588
8.6949981e-05
2.4180677e-05
0.0032214027
0.0029994419
0.0028734277
0.0027705867
0.0026700492
0.002572812
0.0024793672
0.0023883849
0.0022975167
0.002202206
0.0020943858
0.0019603679
0.0017866457
0.001473873
0.0012369863
0.0010460044
0.00087867695
0.00073181403
0.00065449282
0.00060221202
0.00055409224
0.00050434995
0.00045195901
0.00039705099
0.00033989205
0.00028074838
0.00022007254
0.00015825408
9.5074924e-05
3.0527689e-05
0.0029822737
0.0029234679
0.0028385283
0.0027473828
0.002654607
0.0025623828
0.0024721663
0.0023837057
0.0022955391
0.0022045694
0.0021036635
0.0019768116
0.0017978041
0.0014674893
0.0012162541
0.0010185599
0.00084809743
0.00070080034
0.00062895637
0.0005865852
0.00054577187
0.00050062581
0.00045096072
0.0003976073
0.00034129273
0.00028265903
0.00022195502
0.00015921718
9.4241858e-05
2.6099207e-05
0.0030172539
0.0029595448
0.0028693225
0.0027733691
0.0026772348
0.0025821872
0.0024894124
0.0023986472
0.002308231
0.0022153718
0.0021126631
0.0019848519
0.0018063254
0.0014763894
0.0012254163
0.0010253066
0.00084903834
0.00070091979
0.0006313839
0.00059103359
0.00055086891
0.00050563683
0.0004555522
0.00040160345
0.00034449958
0.00028485195
0.00022320317
0.00015951648
9.3386642e-05
2.302949e-05
0.0029822737
0.0029234679
0.0028385283
0.0027473828
0.002654607
0.0025623829
0.0024721663
0.0023837057
0.0022955392
0.0022045694
0.0021036635
0.0019768116
0.0017978041
0.0014674893
0.0012162541
0.0010185599
0.00084809744
0.00070080035
0.00062895638
0.00058658521
0.00054577188
0.00050062582
0.00045096073
0.0003976073
0.00034129272
0.00028265899
0.00022195494
0.00015921714
9.424184e-05
2.6099201e-05
0.0032214027
0.0029994419
0.0028734277
0.0027705867
0.0026700492
0.002572812
0.0024793672
0.0023883849
0.0022975167
0.002202206
0.0020943858
0.0019603679
0.0017866457
0.001473873
0.0012369863
0.0010460044
0.00087867696
0.00073181404
0.00065449283
0.00060221202
0.00055409223
0.00050434995
0.000451959
0.00039705097
0.00033989203
0.00028074836
0.00022007251
0.00015825405
9.5074896e-05
3.0527674e-05
0.0031829835
0.0029694477
0.002852712
0.0027584985
0.0026663519
0.0025779511
0.002494949
0.0024163262
0.0023393515
0.002257188
0.002155987
0.0019888652
0.0016581244
0.00084807887
0.00095337201
0.00085096536
0.00071324708
0.00052438655
0.0005360718
0.00052907483
0.00051127842
0.00048134845
0.00044145394
0.00039437386
0.00034178842
0.00028544982
0.00022672664
0.00016581086
0.00010289993
3.9038021e-05
0.0029448197
0.0028936913
0.0028185629
0.0027363568
0.0026519522
0.0025683822
0.0024882827
0.0024126454
0.0023404939
0.0022675045
0.0021777904
0.0020130927
0.0015974276
0.000588113
0.00082421034
0.00079614098
0.00065725378
0.0004705885
0.0004956353
0.00050763631
0.00050095516
0.0004774216
0.00044174914
0.00039751101
0.00034729276
0.00029232071
0.00023312248
0.00017089978
0.00010683375
4.2051296e-05
0.0029790063
0.002929014
0.002848787
0.0027618502
0.0026741407
0.0025877175
0.0025048546
0.002426653
0.0023518165
0.0022753877
0.0021812956
0.0020132066
0.0015751876
0.00055271483
0.00081470962
0.00080331604
0.00066442254
0.00048558447
0.00050639554
0.00051786488
0.00050989689
0.0004845266
0.00044702584
0.00040117489
0.0003492149
0.0002926844
0.00023297139
0.00017057849
0.00010638835
4.1359217e-05
0.0029448197
0.0028936913
0.0028185629
0.0027363568
0.0026519522
0.0025683822
0.0024882827
0.0024126454
0.0023404939
0.0022675045
0.0021777904
0.0020130927
0.0015974277
0.000588113
0.00082421034
0.00079614099
0.0006572538
0.00047058852
0.00049563533
0.00050763635
0.00050095519
0.00047742163
0.00044174916
0.00039751103
0.00034729276
0.00029232071
0.00023312246
0.00017089976
0.00010683374
4.2051293e-05
0.0031829835
0.0029694477
0.002852712
0.0027584985
0.002666352
0.0025779512
0.002494949
0.0024163263
0.0023393515
0.002257188
0.0021559871
0.0019888653
0.0016581244
0.00084807887
0.00095337201
0.00085096536
0.00071324709
0.00052438657
0.00053607182
0.00052907485
0.00051127844
0.00048134846
0.00044145394
0.00039437385
0.00034178841
0.0002854498
0.00022672661
0.00016581083
0.00010289991
3.9038011e-05
0.003182569
0.0029708216
0.002857539
0.0027679848
0.0026824257
0.0026032376
0.0025344395
0.0024790559
0.0024408508
0.0024262097
0.0024488112
0.0025116709
0.0026457432
0.00019374531
0.00041515525
0.00045405615
0.00049567631
0.00048908796
0.00045970168
0.00041703503
0.00036563775
0.0003083931
0.00024707799
0.0001826392
0.00011590377
5.1231328e-05
0.0029440397
0.0028944745
0.0028226449
0.0027450754
0.0026671844
0.0025931608
0.0025277744
0.0024770833
0.0024496826
0.0024587478
0.0025215658
0.0026472875
0.0029379689
5.5043035e-05
0.00037908244
0.00044230896
0.00049945639
0.00050553786
0.00047952022
0.00043597574
0.00038219634
0.00032208413
0.00025793699
0.00019131644
0.00012403673
6.1989825e-05
0.0029782887
0.0029298699
0.0028529638
0.0027707108
0.0026896658
0.0026131644
0.0025454822
0.0024930867
0.0024646663
0.0024741053
0.0025450768
0.0026932461
0.0030447338
5.1138414e-05
0.00038589158
0.00045087864
0.00050739679
0.00051208637
0.00048360642
0.00043856455
0.00038394006
0.00032335525
0.00025902624
0.0001924312
0.00012545252
6.4606834e-05
0.0029440397
0.0028944745
0.0028226449
0.0027450754
0.0026671844
0.0025931608
0.0025277744
0.0024770833
0.0024496827
0.0024587478
0.0025215659
0.0026472875
0.002937969
5.5043075e-05
0.00037908246
0.00044230897
0.00049945639
0.00050553785
0.0004795202
0.00043597572
0.00038219631
0.00032208411
0.00025793696
0.00019131642
0.00012403672
6.1989824e-05
0.003182569
0.0029708216
0.002857539
0.0027679848
0.0026824257
0.0026032376
0.0025344395
0.0024790559
0.0024408508
0.0024262097
0.0024488112
0.002511671
0.0026457433
0.00019374535
0.00041515527
0.00045405615
0.0004956763
0.00048908795
0.00045970166
0.00041703501
0.00036563773
0.00030839308
0.00024707797
0.00018263919
0.00011590377
5.1231328e-05
0.003182569
0.0029708216
0.002857539
0.0027679848
0.0026824257
0.0026032376
0.0025344395
0.0024790559
0.0024408508
0.0024262097
0.0024488112
0.002511671
0.0026457433
0.00019374526
0.00041515518
0.00045405608
0.00049567624
0.00048908791
0.00045970162
0.00041703497
0.00036563769
0.00030839304
0.00024707794
0.00018263916
0.00011590374
5.1231309e-05
0.0029440397
0.0028944745
0.0028226449
0.0027450754
0.0026671844
0.0025931608
0.0025277744
0.0024770833
0.0024496826
0.0024587478
0.0025215658
0.0026472875
0.0029379689
5.5042976e-05
0.00037908238
0.00044230889
0.00049945632
0.00050553779
0.00047952015
0.00043597568
0.00038219628
0.00032208408
0.00025793694
0.0001913164
0.00012403671
6.19898e-05
0.0029782887
0.0029298699
0.0028529638
0.0027707108
0.0026896658
0.0026131644
0.0025454822
0.0024930867
0.0024646663
0.0024741053
0.0025450768
0.0026932461
0.0030447338
5.1138329e-05
0.0003858915
0.00045087856
0.00050739671
0.00051208629
0.00048360635
0.00043856449
0.00038394
0.00032335521
0.0002590262
0.00019243117
0.0001254525
6.4606803e-05
0.0029440397
0.0028944745
0.0028226449
0.0027450754
0.0026671844
0.0025931608
0.0025277744
0.0024770833
0.0024496827
0.0024587478
0.0025215659
0.0026472875
0.002937969
5.5042963e-05
0.00037908236
0.00044230888
0.0004994563
0.00050553777
0.00047952013
0.00043597566
0.00038219626
0.00032208407
0.00025793693
0.0001913164
0.0001240367
6.1989793e-05
0.003182569
0.0029708216
0.002857539
0.0027679848
0.0026824257
0.0026032376
0.0025344395
0.0024790559
0.0024408508
0.0024262097
0.0024488112
0.002511671
0.0026457433
0.00019374525
0.00041515517
0.00045405607
0.00049567622
0.00048908788
0.0004597016
0.00041703497
0.00036563768
0.00030839305
0.00024707795
0.00018263917
0.00011590375
5.1231307e-05
0.0031829835
0.0029694477
0.002852712
0.0027584985
0.002666352
0.0025779512
0.002494949
0.0024163263
0.0023393515
0.002257188
0.002155987
0.0019888652
0.0016581243
0.00084807877
0.00095337189
0.00085096525
0.00071324699
0.00052438651
0.00053607176
0.00052907479
0.00051127838
0.00048134841
0.0004414539
0.00039437381
0.00034178838
0.00028544977
0.00022672659
0.00016581081
0.00010289989
3.9037989e-05
0.0029448197
0.0028936913
0.0028185629
0.0027363568
0.0026519522
0.0025683822
0.0024882827
0.0024126454
0.0023404939
0.0022675045
0.0021777904
0.0020130926
0.0015974275
0.00058811287
0.0008242102
0.00079614087
0.00065725369
0.00047058846
0.00049563527
0.00050763628
0.00050095512
0.00047742156
0.00044174909
0.00039751095
0.00034729269
0.00029232065
0.00023312242
0.00017089973
0.00010683371
4.2051251e-05
0.0029790063
0.0029290141
0.0028487871
0.0027618503
0.0026741408
0.0025877175
0.0025048546
0.002426653
0.0023518165
0.0022753877
0.0021812956
0.0020132065
0.0015751875
0.00055271466
0.00081470946
0.00080331591
0.00066442243
0.00048558441
0.00050639547
0.00051786481
0.00050989681
0.00048452652
0.00044702575
0.0004011748
0.00034921482
0.00029268432
0.00023297133
0.00017057844
0.00010638831
4.1359162e-05
0.0029448197
0.0028936913
0.0028185629
0.0027363568
0.0026519522
0.0025683822
0.0024882827
0.0024126454
0.0023404939
0.0022675045
0.0021777904
0.0020130926
0.0015974276
0.00058811287
0.0008242102
0.00079614086
0.00065725368
0.00047058845
0.00049563524
0.00050763625
0.00050095509
0.00047742153
0.00044174906
0.00039751094
0.00034729268
0.00029232064
0.00023312241
0.00017089973
0.00010683371
4.2051246e-05
0.0031829835
0.0029694477
0.002852712
0.0027584985
0.002666352
0.0025779512
0.002494949
0.0024163263
0.0023393515
0.002257188
0.002155987
0.0019888652
0.0016581243
0.00084807877
0.00095337189
0.00085096525
0.00071324698
0.0005243865
0.00053607174
0.00052907477
0.00051127836
0.00048134838
0.00044145387
0.00039437378
0.00034178836
0.00028544976
0.00022672658
0.00016581081
0.00010289989
3.9037986e-05
0.0032214027
0.0029994419
0.0028734277
0.0027705867
0.0026700492
0.002572812
0.0024793672
0.0023883849
0.0022975167
0.002202206
0.0020943858
0.0019603678
0.0017866457
0.0014738729
0.0012369861
0.0010460043
0.00087867685
0.00073181394
0.00065449273
0.00060221193
0.00055409216
0.00050434989
0.00045195895
0.00039705092
0.00033989199
0.00028074833
0.0002200725
0.00015825405
9.5074901e-05
3.052766e-05
0.0029822737
0.0029234679
0.0028385283
0.0027473828
0.002654607
0.0025623829
0.0024721663
0.0023837057
0.0022955392
0.0022045694
0.0021036635
0.0019768116
0.001797804
0.0014674892
0.001216254
0.0010185598
0.00084809733
0.00070080025
0.00062895628
0.00058658512
0.0005457718
0.00050062574
0.00045096066
0.00039760724
0.00034129267
0.00028265898
0.00022195496
0.00015921715
9.4241835e-05
2.6099162e-05
0.0030172539
0.0029595448
0.0028693225
0.0027733691
0.0026772348
0.0025821872
0.0024894124
0.0023986472
0.0023082311
0.0022153718
0.0021126631
0.0019848519
0.0018063253
0.0014763893
0.0012254161
0.0010253064
0.00084903822
0.00070091969
0.0006313838
0.00059103349
0.00055086882
0.00050563675
0.00045555213
0.00040160339
0.00034449953
0.00028485191
0.00022320315
0.00015951647
9.3386621e-05
2.3029436e-05
0.0029822737
0.0029234679
0.0028385283
0.0027473828
0.0026546071
0.0025623829
0.0024721663
0.0023837057
0.0022955392
0.0022045694
0.0021036635
0.0019768116
0.001797804
0.0014674892
0.001216254
0.0010185598
0.00084809732
0.00070080024
0.00062895627
0.00058658511
0.00054577179
0.00050062573
0.00045096065
0.00039760723
0.00034129266
0.00028265896
0.00022195494
0.00015921714
9.4241827e-05
2.6099157e-05
0.0032214027
0.0029994419
0.0028734277
0.0027705867
0.0026700492
0.002572812
0.0024793672
0.0023883849
0.0022975167
0.002202206
0.0020943858
0.0019603679
0.0017866457
0.0014738729
0.0012369862
0.0010460043
0.00087867685
0.00073181394
0.00065449273
0.00060221192
0.00055409215
0.00050434987
0.00045195894
0.00039705091
0.00033989198
0.00028074832
0.00022007249
0.00015825404
9.5074889e-05
3.0527651e-05
0.0032313524
0.0030000033
0.002866734
0.0027561913
0.0026469964
0.0025399671
0.0024358226
0.0023330142
0.0022276485
0.0021144458
0.0019871692
0.0018374413
0.0016571878
0.0014302698
0.0012487569
0.0010976028
0.00096098788
0.00083800611
0.00073885577
0.00065831462
0.00058729769
0.00052103425
0.00045726838
0.00039486536
0.00033314944
0.00027170459
0.0002102965
0.0001487859
8.694999e-05
2.4180657e-05
0.0029931266
0.0029254684
0.0028325105
0.0027334972
0.002631774
0.0025291262
0.0024267584
0.002324574
0.0022208674
0.002110483
0.0019858077
0.0018379597
0.0016559639
0.0014235035
0.0012379046
0.001088173
0.00095367537
0.00083281525
0.00073450721
0.00065532365
0.00058570321
0.00052021313
0.00045669639
0.00039413012
0.00033209176
0.00027031678
0.00020854268
0.00014648887
8.335359e-05
1.6667943e-05
0.0030273211
0.0029607337
0.0028624346
0.0027585333
0.0026532318
0.002547411
0.00244187
0.0023363651
0.0022300276
0.0021178177
0.0019908984
0.0018405594
0.0016560424
0.0014225614
0.0012377908
0.0010898937
0.00095678292
0.00083715634
0.00073963159
0.00066055667
0.00059072561
0.00052485117
0.00046085706
0.00039772999
0.00033498782
0.00027237621
0.00020971587
0.0001466597
8.2242988e-05
1.3112019e-05
0.0029931266
0.0029254684
0.0028325105
0.0027334972
0.002631774
0.0025291262
0.0024267584
0.002324574
0.0022208674
0.002110483
0.0019858077
0.0018379597
0.0016559639
0.0014235036
0.0012379046
0.001088173
0.00095367537
0.00083281525
0.00073450721
0.00065532364
0.0005857032
0.00052021313
0.00045669638
0.00039413012
0.00033209176
0.00027031678
0.00020854267
0.00014648885
8.335358e-05
1.6667938e-05
0.0032313524
0.0030000033
0.002866734
0.0027561913
0.0026469964
0.0025399671
0.0024358226
0.0023330142
0.0022276485
0.0021144458
0.0019871692
0.0018374413
0.0016571878
0.0014302698
0.0012487569
0.0010976028
0.00096098789
0.00083800611
0.00073885576
0.00065831462
0.00058729768
0.00052103424
0.00045726837
0.00039486535
0.00033314943
0.00027170458
0.00021029648
0.00014878588
8.6949978e-05
2.418065e-05
0.0034404127
0.0030891871
0.0029258189
0.0027945898
0.0026705188
0.0025532279
0.002440916
0.0023301028
0.002217772
0.0021013323
0.0019771022
0.00184066
0.0016877527
0.0015131744
0.0013374329
0.0011722122
0.0010229669
0.00089213014
0.00078135013
0.00068788062
0.00060650395
0.00053286849
0.00046413094
0.00039843977
0.00033456153
0.00027170564
0.00020948765
0.00014780833
8.6530209e-05
2.4831969e-05
0.0031962782
0.0030064127
0.0028719617
0.0027575272
0.0026451837
0.0025348956
0.0024269453
0.0023191333
0.0022083921
0.0020927531
0.0019704357
0.0018371716
0.0016879955
0.0015171436
0.0013425941
0.0011767301
0.0010244993
0.00089059648
0.00077830431
0.00068461092
0.00060348348
0.00053000539
0.00046120427
0.0003952843
0.00033113309
0.00026812667
0.00020587725
0.00014415408
8.2555708e-05
1.9376364e-05
0.0032323613
0.0030427361
0.0029024678
0.0027830367
0.002666497
0.0025523362
0.0024408645
0.0023300251
0.0022164449
0.0020977196
0.0019731014
0.0018384417
0.0016888866
0.0015187952
0.0013455311
0.0011813263
0.0010299166
0.00089552188
0.00078315015
0.00068950784
0.00060822629
0.00053441873
0.00046520803
0.00039882594
0.00033412395
0.0002704233
0.0002073772
0.00014470959
8.2147949e-05
1.7454974e-05
0.0031962782
0.0030064127
0.0028719617
0.0027575272
0.0026451837
0.0025348956
0.0024269453
0.0023191333
0.0022083921
0.0020927531
0.0019704357
0.0018371716
0.0016879955
0.0015171436
0.0013425941
0.0011767301
0.0010244993
0.00089059648
0.0007783043
0.00068461092
0.00060348347
0.00053000538
0.00046120427
0.00039528429
0.00033113309
0.00026812667
0.00020587723
0.00014415407
8.2555697e-05
1.9376359e-05
0.0034404127
0.0030891871
0.0029258189
0.0027945898
0.0026705188
0.0025532279
0.002440916
0.0023301028
0.002217772
0.0021013323
0.0019771022
0.00184066
0.0016877527
0.0015131744
0.0013374329
0.0011722122
0.0010229669
0.00089213014
0.00078135013
0.00068788061
0.00060650394
0.00053286849
0.00046413093
0.00039843976
0.00033456153
0.00027170564
0.00020948764
0.00014780832
8.6530199e-05
2.4831964e-05
)
;

boundaryField
{
    minX
    {
        type            zeroGradient;
    }
    maxX
    {
        type            fixedValue;
        value           uniform 0;
    }
    minY
    {
        type            fixedFluxPressure;
        gradient        uniform 0;
        value           nonuniform List<scalar> 
292
(
0.0034404127
0.0032313524
0.0032214027
0.0031829835
0.003182569
0.003182569
0.0031829835
0.0032214027
0.0032313524
0.0034404127
0.0030891871
0.0030000033
0.0029994419
0.0029694477
0.0029708216
0.0029708216
0.0029694477
0.0029994419
0.0030000033
0.0030891871
0.0029258189
0.002866734
0.0028734277
0.002852712
0.002857539
0.002857539
0.002852712
0.0028734277
0.002866734
0.0029258189
0.0027945898
0.0027561913
0.0027705867
0.0027584985
0.0027679848
0.0027679848
0.0027584985
0.0027705867
0.0027561913
0.0027945898
0.0026705188
0.0026469964
0.0026700492
0.0026663519
0.0026824257
0.0026824257
0.002666352
0.0026700492
0.0026469964
0.0026705188
0.0025532279
0.0025399671
0.002572812
0.0025779511
0.0026032376
0.0026032376
0.0025779512
0.002572812
0.0025399671
0.0025532279
0.002440916
0.0024358225
0.0024793672
0.002494949
0.0025344395
0.0025344395
0.002494949
0.0024793672
0.0024358226
0.002440916
0.0023301028
0.0023330141
0.0023883849
0.0024163262
0.0024790559
0.0024790559
0.0024163263
0.0023883849
0.0023330142
0.0023301028
0.002217772
0.0022276484
0.0022975167
0.0023393515
0.0024408508
0.0024408508
0.0023393515
0.0022975167
0.0022276485
0.002217772
0.0021013323
0.0021144458
0.002202206
0.002257188
0.0024262097
0.0024262097
0.002257188
0.002202206
0.0021144458
0.0021013323
0.0019771023
0.0019871692
0.0020943858
0.002155987
0.0024488112
0.0024488112
0.002155987
0.0020943858
0.0019871692
0.0019771022
0.00184066
0.0018374413
0.0019603679
0.0019888652
0.0025116709
0.002511671
0.0019888652
0.0019603678
0.0018374413
0.00184066
0.0016877528
0.0016571879
0.0017866457
0.0016581244
0.0026457432
0.0026457433
0.0016581243
0.0017866457
0.0016571878
0.0016877527
0.0015131745
0.0014302699
0.001473873
0.00084807887
0.00084807877
0.0014738729
0.0014302698
0.0015131744
0.001337433
0.001248757
0.0012369863
0.00095337201
0.00095337189
0.0012369861
0.0012487569
0.0013374329
0.0011722123
0.0010976029
0.0010460044
0.00085096536
0.00085096525
0.0010460043
0.0010976028
0.0011722122
0.001022967
0.00096098799
0.00087867695
0.00071324708
0.00071324699
0.00087867685
0.00096098788
0.0010229669
0.00089213026
0.00083800621
0.00073181403
0.00052438655
0.00019374531
0.00019374526
0.00052438651
0.00073181394
0.00083800611
0.00089213014
0.00078135024
0.00073885586
0.00065449282
0.0005360718
0.00041515525
0.00041515518
0.00053607176
0.00065449273
0.00073885577
0.00078135013
0.00068788072
0.00065831471
0.00060221202
0.00052907483
0.00045405615
0.00045405608
0.00052907479
0.00060221193
0.00065831462
0.00068788062
0.00060650404
0.00058729777
0.00055409224
0.00051127842
0.00049567631
0.00049567624
0.00051127838
0.00055409216
0.00058729769
0.00060650395
0.00053286857
0.00052103432
0.00050434995
0.00048134845
0.00048908796
0.00048908791
0.00048134841
0.00050434989
0.00052103425
0.00053286849
0.00046413101
0.00045726844
0.00045195901
0.00044145394
0.00045970168
0.00045970162
0.0004414539
0.00045195895
0.00045726838
0.00046413094
0.00039843984
0.00039486542
0.00039705099
0.00039437386
0.00041703503
0.00041703497
0.00039437381
0.00039705092
0.00039486536
0.00039843977
0.00033456159
0.00033314949
0.00033989205
0.00034178842
0.00036563775
0.00036563769
0.00034178838
0.00033989199
0.00033314944
0.00033456153
0.00027170569
0.00027170462
0.00028074838
0.00028544982
0.0003083931
0.00030839304
0.00028544977
0.00028074833
0.00027170459
0.00027170564
0.00020948767
0.00021029652
0.00022007254
0.00022672664
0.00024707799
0.00024707794
0.00022672659
0.0002200725
0.0002102965
0.00020948765
0.00014780834
0.0001487859
0.00015825408
0.00016581086
0.0001826392
0.00018263916
0.00016581081
0.00015825405
0.0001487859
0.00014780833
8.6530211e-05
8.6949994e-05
9.5074924e-05
0.00010289993
0.00011590377
0.00011590374
0.00010289989
9.5074901e-05
8.694999e-05
8.6530209e-05
2.483199e-05
2.4180683e-05
3.0527689e-05
3.9038021e-05
5.1231328e-05
5.1231309e-05
3.9037989e-05
3.052766e-05
2.4180657e-05
2.4831969e-05
)
;
    }
    minZ
    {
        type            fixedFluxPressure;
        gradient        uniform 0;
        value           nonuniform List<scalar> 
150
(
0.0034404127
0.0031962782
0.0032323613
0.0031962782
0.0034404127
0.0030891871
0.0030064127
0.0030427361
0.0030064127
0.0030891871
0.0029258189
0.0028719617
0.0029024678
0.0028719617
0.0029258189
0.0027945898
0.0027575272
0.0027830366
0.0027575272
0.0027945898
0.0026705188
0.0026451837
0.002666497
0.0026451837
0.0026705188
0.0025532279
0.0025348956
0.0025523361
0.0025348956
0.0025532279
0.002440916
0.0024269453
0.0024408644
0.0024269453
0.002440916
0.0023301028
0.0023191333
0.0023300251
0.0023191333
0.0023301028
0.002217772
0.0022083921
0.0022164449
0.0022083921
0.002217772
0.0021013323
0.0020927531
0.0020977196
0.0020927531
0.0021013323
0.0019771023
0.0019704357
0.0019731014
0.0019704357
0.0019771023
0.00184066
0.0018371716
0.0018384417
0.0018371716
0.00184066
0.0016877528
0.0016879955
0.0016888867
0.0016879955
0.0016877528
0.0015131745
0.0015171437
0.0015187952
0.0015171437
0.0015131745
0.001337433
0.0013425942
0.0013455312
0.0013425942
0.001337433
0.0011722123
0.0011767302
0.0011813264
0.0011767302
0.0011722123
0.001022967
0.0010244994
0.0010299167
0.0010244994
0.001022967
0.00089213026
0.0008905966
0.000895522
0.0008905966
0.00089213026
0.00078135024
0.00077830441
0.00078315026
0.00077830442
0.00078135024
0.00068788072
0.00068461102
0.00068950795
0.00068461102
0.00068788072
0.00060650404
0.00060348357
0.00060822638
0.00060348357
0.00060650404
0.00053286857
0.00053000547
0.00053441881
0.00053000547
0.00053286857
0.00046413101
0.00046120435
0.00046520811
0.00046120434
0.00046413101
0.00039843984
0.00039528437
0.00039882601
0.00039528436
0.00039843983
0.00033456159
0.00033113314
0.000334124
0.00033113313
0.00033456157
0.00027170569
0.00026812671
0.00027042333
0.0002681267
0.00027170567
0.00020948767
0.00020587727
0.00020737721
0.00020587725
0.00020948766
0.00014780834
0.00014415409
0.0001447096
0.00014415407
0.00014780833
8.6530211e-05
8.255571e-05
8.2147953e-05
8.2555704e-05
8.6530206e-05
2.483199e-05
1.9376394e-05
1.7455007e-05
1.9376391e-05
2.4831988e-05
)
;
    }
    maxZ
    {
        type            fixedFluxPressure;
        gradient        uniform 0;
        value           nonuniform List<scalar> 
150
(
0.0034404127
0.0031962782
0.0032323613
0.0031962782
0.0034404127
0.0030891871
0.0030064127
0.0030427361
0.0030064127
0.0030891871
0.0029258189
0.0028719617
0.0029024678
0.0028719617
0.0029258189
0.0027945898
0.0027575272
0.0027830367
0.0027575272
0.0027945898
0.0026705188
0.0026451837
0.002666497
0.0026451837
0.0026705188
0.0025532279
0.0025348956
0.0025523362
0.0025348956
0.0025532279
0.002440916
0.0024269453
0.0024408645
0.0024269453
0.002440916
0.0023301028
0.0023191333
0.0023300251
0.0023191333
0.0023301028
0.002217772
0.0022083921
0.0022164449
0.0022083921
0.002217772
0.0021013323
0.0020927531
0.0020977196
0.0020927531
0.0021013323
0.0019771022
0.0019704357
0.0019731014
0.0019704357
0.0019771022
0.00184066
0.0018371716
0.0018384417
0.0018371716
0.00184066
0.0016877527
0.0016879955
0.0016888866
0.0016879955
0.0016877527
0.0015131744
0.0015171436
0.0015187952
0.0015171436
0.0015131744
0.0013374329
0.0013425941
0.0013455311
0.0013425941
0.0013374329
0.0011722122
0.0011767301
0.0011813263
0.0011767301
0.0011722122
0.0010229669
0.0010244993
0.0010299166
0.0010244993
0.0010229669
0.00089213014
0.00089059648
0.00089552188
0.00089059648
0.00089213014
0.00078135013
0.00077830431
0.00078315015
0.0007783043
0.00078135013
0.00068788062
0.00068461092
0.00068950784
0.00068461092
0.00068788061
0.00060650395
0.00060348348
0.00060822629
0.00060348347
0.00060650394
0.00053286849
0.00053000539
0.00053441873
0.00053000538
0.00053286849
0.00046413094
0.00046120427
0.00046520803
0.00046120427
0.00046413093
0.00039843977
0.0003952843
0.00039882594
0.00039528429
0.00039843976
0.00033456153
0.00033113309
0.00033412395
0.00033113309
0.00033456153
0.00027170564
0.00026812667
0.0002704233
0.00026812667
0.00027170564
0.00020948765
0.00020587725
0.0002073772
0.00020587723
0.00020948764
0.00014780833
0.00014415408
0.00014470959
0.00014415407
0.00014780832
8.6530209e-05
8.2555708e-05
8.2147949e-05
8.2555697e-05
8.6530199e-05
2.4831969e-05
1.9376364e-05
1.7454974e-05
1.9376359e-05
2.4831964e-05
)
;
    }
    bottomWater_to_rightSolid
    {
        type            fixedFluxPressure;
        gradient        uniform 0;
        value           nonuniform List<scalar> 
130
(
0.00089213026
0.00078135024
0.00068788072
0.00060650404
0.00053286857
0.00046413101
0.00039843983
0.00033456157
0.00027170567
0.00020948766
0.00014780833
8.6530206e-05
2.4831988e-05
0.00083800621
0.00073885587
0.00065831471
0.00058729777
0.00052103432
0.00045726843
0.00039486541
0.00033314947
0.0002717046
0.00021029649
0.00014878588
8.6949981e-05
2.4180677e-05
0.00073181404
0.00065449283
0.00060221202
0.00055409223
0.00050434995
0.000451959
0.00039705097
0.00033989203
0.00028074836
0.00022007251
0.00015825405
9.5074896e-05
3.0527674e-05
0.00052438657
0.00053607182
0.00052907485
0.00051127844
0.00048134846
0.00044145394
0.00039437385
0.00034178841
0.0002854498
0.00022672661
0.00016581083
0.00010289991
3.9038011e-05
0.00019374535
0.00041515527
0.00045405615
0.0004956763
0.00048908795
0.00045970166
0.00041703501
0.00036563773
0.00030839308
0.00024707797