/*--------------------------------*- C++ -*----------------------------------*\
| =========                 |                                                 |
| \\      /  F ield         | OpenFOAM: The Open Source CFD Toolbox           |
|  \\    /   O peration     | Version:  2412                                  |
|   \\  /    A nd           | Website:  www.openfoam.com                      |
|    \\/     M anipulation  |                                                 |
\*---------------------------------------------------------------------------*/
FoamFile
{
    version     2.0;
    format      ascii;
    arch        "LSB;label=32;scalar=64";
    class       surfaceScalarField;
    location    "60/bottomWater";
    object      phi;
}
// * * * * * * * * * * * * * * * * * * * * * * * * * * * * * * * * * * * * * //

dimensions      [1 0 -1 0 0 0 0];

oriented        oriented;

internalField   nonuniform List<scalar> 
3858
(
7.3282955e-05
4.1436142e-06
2.5734313e-06
6.5944779e-05
4.2735925e-06
3.0645833e-06
5.9167548e-05
3.8080261e-06
2.9692045e-06
5.3436988e-05
3.1660086e-06
2.5645512e-06
4.8952521e-05
2.4997244e-06
1.9847427e-06
4.5724823e-05
1.9175245e-06
1.3101736e-06
4.3705901e-05
1.4562457e-06
5.626767e-07
4.2849012e-05
1.1152689e-06
-2.5838054e-07
4.3084997e-05
8.9105859e-07
-1.1270427e-06
4.4376265e-05
7.5164476e-07
-2.0429136e-06
4.6681174e-05
6.2094333e-07
-2.9258519e-06
4.9827332e-05
4.5268697e-07
-3.598845e-06
5.3260614e-05
2.2918507e-07
-3.6624672e-06
5.5304416e-05
2.461976e-09
-2.0462639e-06
5.5926268e-05
-2.0273049e-07
-4.1912196e-07
5.5291397e-05
-3.4492138e-07
9.7979282e-07
5.3542099e-05
-3.8064618e-07
2.129944e-06
5.0814296e-05
-3.4653336e-07
3.0743362e-06
4.7567638e-05
-2.9769255e-07
3.5443505e-06
4.4271776e-05
-2.6003751e-07
3.5558998e-06
4.1245139e-05
-2.3227963e-07
3.258917e-06
3.8646037e-05
-2.038691e-07
2.8029707e-06
3.6520882e-05
-1.6723603e-07
2.2923914e-06
3.4849172e-05
-1.1995117e-07
1.7916609e-06
3.3575735e-05
-6.4647998e-08
1.3380855e-06
3.2632997e-05
-8.3119851e-09
9.5104989e-07
3.1941624e-05
5.2065569e-08
6.3930672e-07
3.1424881e-05
1.0797267e-07
4.0877081e-07
3.1004404e-05
1.592863e-07
2.6119036e-07
2.4225353e-07
1.9901477e-07
7.963748e-05
1.6720082e-06
2.8341256e-06
7.8426684e-05
1.8620477e-06
3.6223407e-06
7.6832677e-05
1.7470602e-06
3.6549734e-06
7.5081627e-05
1.5096181e-06
3.40744e-06
7.339268e-05
1.2273606e-06
2.9613111e-06
7.1985836e-05
9.6035845e-07
2.3640099e-06
7.1071765e-05
7.348375e-07
1.6354792e-06
7.0875798e-05
5.5757445e-07
7.5366162e-07
7.1637565e-05
4.350634e-07
-3.0577138e-07
7.3525015e-05
3.6126126e-07
-1.497067e-06
7.6635035e-05
2.994206e-07
-2.788497e-06
8.0871101e-05
2.2456166e-07
-4.0079404e-06
8.5685748e-05
1.3059894e-07
-4.716061e-06
8.9365146e-05
2.5087083e-08
-3.7020231e-06
9.1489427e-05
-7.3299117e-08
-2.2537127e-06
9.2127875e-05
-1.5486845e-07
-8.2850052e-07
9.1397417e-05
-1.940314e-07
5.4384253e-07
8.9412719e-05
-1.8804334e-07
1.8262083e-06
8.6488586e-05
-1.6846334e-07
2.7949037e-06
8.3011708e-05
-1.525994e-07
3.3694397e-06
7.9305399e-05
-1.4250389e-07
3.6165339e-06
7.5608696e-05
-1.3344142e-07
3.6262752e-06
7.2099774e-05
-1.2024173e-07
3.4619275e-06
6.8902369e-05
-9.9456549e-08
3.1769106e-06
6.6093043e-05
-7.0197049e-08
2.8148751e-06
6.3705577e-05
-3.4307106e-08
2.4134612e-06
6.1744019e-05
4.9666685e-09
2.0086562e-06
6.0176665e-05
4.0759922e-08
1.6345671e-06
5.8935804e-05
7.9517287e-08
1.3206303e-06
1.3461068e-07
1.1207999e-06
8.0490795e-05
-1.6720082e-06
2.8532217e-06
8.053372e-05
-1.8620477e-06
3.6811703e-06
8.0271726e-05
-1.7470601e-06
3.7561146e-06
7.9735385e-05
-1.5096177e-06
3.5555759e-06
7.9037855e-05
-1.2273599e-06
3.1522512e-06
7.8367774e-05
-9.6035753e-07
2.5907962e-06
7.7944154e-05
-7.3483641e-07
1.8932946e-06
7.8015846e-05
-5.5757338e-07
1.0434551e-06
7.890435e-05
-4.3506253e-07
-1.8377678e-08
8.0822858e-05
-3.6126069e-07
-1.1959858e-06
8.3915878e-05
-2.9942034e-07
-2.4941796e-06
8.8105097e-05
-2.2456161e-07
-3.7400949e-06
9.2901265e-05
-1.3059899e-07
-4.5349704e-06
9.6700076e-05
-2.5087123e-08
-3.7486364e-06
9.9071625e-05
7.3299191e-08
-2.5181477e-06
0.00010000863
1.5486867e-07
-1.2467375e-06
9.9610588e-05
1.9403173e-07
9.9738202e-09
9.7973149e-05
1.8804363e-07
1.2613525e-06
9.5408422e-05
1.6846343e-07
2.2278005e-06
9.224458e-05
1.5259915e-07
2.858643e-06
8.8751126e-05
1.4250316e-07
3.2084468e-06
8.5134808e-05
1.3344021e-07
3.3494364e-06
8.1565408e-05
1.2024019e-07
3.3289188e-06
7.8180729e-05
9.9454996e-08
3.1857676e-06
7.5087423e-05
7.0195932e-08
2.9529122e-06
7.2361011e-05
3.430678e-08
2.6577986e-06
7.0042391e-05
-4.9661706e-09
2.3285524e-06
6.8127859e-05
-4.0758666e-08
1.9960511e-06
6.659224e-05
-7.9515611e-08
1.6946519e-06
-1.3460889e-07
1.4936003e-06
7.963748e-05
-4.1436142e-06
2.8341256e-06
7.8426684e-05
-4.2735924e-06
3.6223407e-06
7.6832677e-05
-3.808026e-06
3.6549733e-06
7.5081628e-05
-3.1660084e-06
3.40744e-06
7.3392681e-05
-2.4997241e-06
2.9613111e-06
7.1985838e-05
-1.9175241e-06
2.3640099e-06
7.1071767e-05
-1.4562452e-06
1.6354792e-06
7.08758e-05
-1.1152684e-06
7.5366166e-07
7.1637567e-05
-8.9105817e-07
-3.0577131e-07
7.3525018e-05
-7.5164449e-07
-1.4970669e-06
7.6635038e-05
-6.2094321e-07
-2.7884968e-06
8.0871103e-05
-4.5268695e-07
-4.0079401e-06
8.568575e-05
-2.2918509e-07
-4.7160606e-06
8.9365147e-05
-2.4619511e-09
-3.7020227e-06
9.1489428e-05
2.0273062e-07
-2.2537123e-06
9.2127876e-05
3.449216e-07
-8.2850013e-07
9.1397418e-05
3.8064642e-07
5.4384289e-07
8.9412719e-05
3.4653357e-07
1.8262085e-06
8.6488586e-05
2.9769266e-07
2.7949039e-06
8.3011708e-05
2.6003742e-07
3.3694397e-06
7.9305399e-05
2.3227931e-07
3.6165337e-06
7.5608695e-05
2.0386857e-07
3.6262747e-06
7.2099773e-05
1.6723537e-07
3.4619268e-06
6.8902368e-05
1.1995051e-07
3.17691e-06
6.6093042e-05
6.4647532e-08
2.8148748e-06
6.3705575e-05
8.3118832e-09
2.4134613e-06
6.1744018e-05
-5.2065217e-08
2.0086567e-06
6.0176663e-05
-1.0797191e-07
1.6345679e-06
5.8935801e-05
-1.5928532e-07
1.3206312e-06
-2.4225252e-07
1.1208008e-06
7.3282955e-05
2.5734313e-06
6.5944779e-05
3.0645833e-06
5.9167548e-05
2.9692045e-06
5.3436989e-05
2.5645512e-06
4.8952522e-05
1.9847427e-06
4.5724824e-05
1.3101736e-06
4.3705902e-05
5.6267675e-07
4.2849014e-05
-2.5838046e-07
4.3084999e-05
-1.1270426e-06
4.4376268e-05
-2.0429135e-06
4.6681176e-05
-2.9258517e-06
4.9827334e-05
-3.5988447e-06
5.3260616e-05
-3.6624669e-06
5.5304417e-05
-2.0462635e-06
5.5926269e-05
-4.1912157e-07
5.5291398e-05
9.7979322e-07
5.35421e-05
2.1299443e-06
5.0814297e-05
3.0743365e-06
4.7567639e-05
3.5443506e-06
4.4271777e-05
3.5558998e-06
4.1245139e-05
3.2589169e-06
3.8646037e-05
2.8029705e-06
3.6520881e-05
2.2923912e-06
3.4849171e-05
1.7916607e-06
3.3575733e-05
1.3380854e-06
3.2632995e-05
9.5105023e-07
3.1941622e-05
6.3930753e-07
3.1424878e-05
4.0877196e-07
3.1004401e-05
2.6119161e-07
1.9901591e-07
7.6667728e-05
4.374888e-06
1.5308148e-06
7.2867679e-05
4.7264819e-06
2.138151e-06
6.9359153e-05
4.2356439e-06
2.2420865e-06
6.6289903e-05
3.6556157e-06
1.9781856e-06
6.378567e-05
3.0597957e-06
1.4291796e-06
6.1929542e-05
2.5123578e-06
6.5394446e-07
6.0776002e-05
2.0571215e-06
-3.4090525e-07
6.0426125e-05
1.6912228e-06
-1.5997265e-06
6.1037105e-05
1.3604641e-06
-3.0984862e-06
6.2842574e-05
1.026189e-06
-4.8745718e-06
6.6155046e-05
6.8767612e-07
-6.9260005e-06
7.1186918e-05
3.5727872e-07
-8.9879952e-06
7.7251937e-05
1.2270958e-07
-9.8501959e-06
7.9676699e-05
1.803032e-07
-4.6513287e-06
8.0302927e-05
2.9384321e-07
-1.3391936e-06
7.9714338e-05
3.5719386e-07
1.2111884e-06
7.7990517e-05
3.7609958e-07
3.4776651e-06
7.482912e-05
3.7003774e-07
5.8656951e-06
7.1015554e-05
3.4726473e-07
7.0106521e-06
6.7162962e-05
3.0110042e-07
7.1073917e-06
6.3614349e-05
2.364109e-07
6.5711189e-06
6.054747e-05
1.676339e-07
5.7022159e-06
5.8009331e-05
1.0530905e-07
4.7252218e-06
5.5979365e-05
5.7580196e-08
3.7640468e-06
5.4399594e-05
2.8149155e-08
2.8897068e-06
5.3195996e-05
1.8855487e-08
2.1357921e-06
5.2290231e-05
3.1301231e-08
1.5137706e-06
5.1602889e-05
6.6941119e-08
1.0291724e-06
5.1045707e-05
1.3214991e-07
6.8622226e-07
2.7837219e-07
4.7624784e-07
8.3693907e-05
1.7872627e-06
1.7278443e-06
8.7412259e-05
2.0676321e-06
2.5628383e-06
9.0547282e-05
1.9387502e-06
2.8168435e-06
9.3162236e-05
1.730546e-06
2.7175559e-06
9.5371267e-05
1.4907978e-06
2.3212785e-06
9.734313e-05
1.2551764e-06
1.6493279e-06
9.928401e-05
1.0492491e-06
7.0247163e-07
0.00010142722
8.7909848e-07
-5.7742234e-07
0.00010403238
7.2241037e-07
-2.2728784e-06
0.00010741396
5.6029832e-07
-4.4127574e-06
0.00011198676
3.9544785e-07
-7.0690728e-06
0.00011819731
2.291564e-07
-1.0090361e-05
0.00012582771
1.0146012e-07
-1.2325213e-05
0.00013054367
8.2436679e-08
-8.320121e-06
0.00013378201
1.1587876e-07
-5.3140845e-06
0.00013584246
1.4048311e-07
-2.6722435e-06
0.00013650451
1.4775412e-07
1.1013662e-07
0.00013546963
1.4083647e-07
3.0902923e-06
0.00013320571
1.2992004e-07
5.2761744e-06
0.00013021599
1.1201644e-07
6.548235e-06
0.00012681004
8.595334e-08
7.1729466e-06
0.0001232209
5.6068004e-08
7.3269763e-06
0.00011962065
2.711606e-08
7.1403696e-06
0.00011612758
4.2184834e-09
6.7233516e-06
0.00011284043
-1.2959319e-08
6.1431243e-06
0.000109835
-1.7666724e-08
5.4554164e-06
0.00010716795
-8.4335891e-09
4.7154447e-06
0.00010487849
1.4323138e-08
3.9766476e-06
0.00010298924
5.7708284e-08
3.2843153e-06
1.43939e-07
2.6916109e-06
8.4675487e-05
-1.7872626e-06
1.7522599e-06
8.9870918e-05
-2.067632e-06
2.6210037e-06
9.4593624e-05
-1.93875e-06
2.9109091e-06
9.8753426e-05
-1.7305456e-06
2.8568655e-06
0.00010237524
-1.490797e-06
2.5120272e-06
0.00010558185
-1.2551752e-06
1.8945392e-06
0.00010857149
-1.0492475e-06
1.0021516e-06
0.0001115679
-8.7909676e-07
-1.9475889e-07
0.00011483271
-7.2240876e-07
-1.8383669e-06
0.00011866827
-5.6029709e-07
-3.9109511e-06
0.00012345952
-3.954472e-07
-6.4945303e-06
0.00012966472
-2.291564e-07
-9.4869806e-06
0.00013718441
-1.0146074e-07
-1.1851742e-05
0.00014198944
-8.2437721e-08
-8.3887916e-06
0.0001455504
-1.1588009e-07
-5.8473501e-06
0.00014817378
-1.4048465e-07
-3.5891521e-06
0.00014954546
-1.4775582e-07
-1.0661947e-06
0.00014930673
-1.4083833e-07
1.7817513e-06
0.00014786686
-1.2992216e-07
3.9275148e-06
0.00014562907
-1.1201899e-07
5.3204712e-06
0.00014283614
-8.5956529e-08
6.1732874e-06
0.00013967373
-5.6072054e-08
6.6239838e-06
0.0001362919
-2.7121073e-08
6.7649836e-06
0.00013280988
-4.2239064e-09
6.6762301e-06
0.00012933773
1.2951794e-08
6.3991538e-06
0.00012599068
1.7659783e-08
5.9695184e-06
0.00012287855
8.4275421e-09
5.4238222e-06
0.0001200994
-1.4327274e-08
4.8038592e-06
0.00011775284
-5.7711396e-08
4.1566257e-06
-1.4394127e-07
3.5477992e-06
8.3693907e-05
-4.374888e-06
1.7278443e-06
8.7412259e-05
-4.7264818e-06
2.5628383e-06
9.0547283e-05
-4.2356438e-06
2.8168435e-06
9.3162237e-05
-3.6556155e-06
2.7175559e-06
9.5371268e-05
-3.0597953e-06
2.3212785e-06
9.7343132e-05
-2.5123572e-06
1.6493279e-06
9.9284012e-05
-2.0571207e-06
7.0247164e-07
0.00010142722
-1.691222e-06
-5.7742227e-07
0.00010403238
-1.3604633e-06
-2.2728783e-06
0.00010741396
-1.0261884e-06
-4.4127571e-06
0.00011198677
-6.8767588e-07
-7.0690724e-06
0.00011819731
-3.5727881e-07
-1.009036e-05
0.00012582771
-1.2270996e-07
-1.2325212e-05
0.00013054368
-1.8030375e-07
-8.3201204e-06
0.00013378201
-2.9384385e-07
-5.3140839e-06
0.00013584246
-3.5719455e-07
-2.6722431e-06
0.00013650451
-3.7610029e-07
1.1013691e-07
0.00013546963
-3.7003848e-07
3.0902924e-06
0.0001332057
-3.4726555e-07
5.2761742e-06
0.00013021599
-3.011014e-07
6.5482345e-06
0.00012681004
-2.3641216e-07
7.1729457e-06
0.0001232209
-1.6763557e-07
7.326975e-06
0.00011962065
-1.0531124e-07
7.1403681e-06
0.00011612757
-5.7582965e-08
6.7233498e-06
0.00011284042
-2.8152501e-08
6.1431222e-06
0.00010983499
-1.885889e-08
5.4554143e-06
0.00010716793
-3.1304125e-08
4.7154428e-06
0.00010487847
-6.6943214e-08
3.976646e-06
0.00010298923
-1.3215128e-07
3.2843141e-06
-2.7837302e-07
2.6916101e-06
7.6667728e-05
1.5308148e-06
7.2867679e-05
2.138151e-06
6.9359153e-05
2.2420865e-06
6.6289903e-05
1.9781855e-06
6.3785671e-05
1.4291796e-06
6.1929543e-05
6.5394446e-07
6.0776004e-05
-3.409052e-07
6.0426128e-05
-1.5997263e-06
6.1037108e-05
-3.098486e-06
6.2842578e-05
-4.8745715e-06
6.615505e-05
-6.9260001e-06
7.1186922e-05
-8.9879947e-06
7.725194e-05
-9.8501953e-06
7.9676701e-05
-4.6513282e-06
8.0302929e-05
-1.3391931e-06
7.9714339e-05
1.2111887e-06
7.7990517e-05
3.4776653e-06
7.482912e-05
5.865695e-06
7.1015554e-05
7.0106516e-06
6.7162961e-05
7.1073909e-06
6.3614348e-05
6.5711178e-06
6.0547469e-05
5.7022145e-06
5.8009328e-05
4.7252202e-06
5.5979361e-05
3.7640451e-06
5.4399589e-05
2.8897051e-06
5.319599e-05
2.1357906e-06
5.2290223e-05
1.5137696e-06
5.160288e-05
1.0291721e-06
5.1045698e-05
6.8622243e-07
4.7624828e-07
7.6489759e-05
4.391153e-06
6.4990324e-07
7.2794989e-05
4.7808901e-06
1.0520307e-06
6.9570673e-05
4.3036467e-06
1.1627559e-06
6.6811666e-05
3.7345694e-06
1.0026233e-06
6.4520499e-05
3.1419993e-06
5.7834682e-07
6.271494e-05
2.5779481e-06
-1.1844498e-07
6.1379296e-05
2.066831e-06
-1.072092e-06
6.0572522e-05
1.6038144e-06
-2.396767e-06
6.0522337e-05
1.1601068e-06
-4.2084081e-06
6.1685408e-05
6.7039742e-07
-6.7080402e-06
6.4914977e-05
6.4049858e-08
-1.0219619e-05
7.1420961e-05
-6.52185e-07
-1.4841794e-05
8.1509817e-05
-1.101891e-06
-1.8837161e-05
8.5272377e-05
-4.7385287e-07
-7.9400359e-06
8.6340269e-05
1.2981096e-07
-2.5368965e-06
8.5919506e-05
6.7292188e-07
9.5902913e-07
8.3912345e-05
1.1324297e-06
4.3523965e-06
7.8636699e-05
1.5210676e-06
9.6202737e-06
7.3217605e-05
1.6605177e-06
1.0769228e-05
6.8388703e-05
1.5563744e-06
1.037992e-05
6.4520168e-05
1.3160528e-06
9.1236015e-06
6.1603731e-05
1.0225734e-06
7.5960792e-06
5.9499293e-05
7.2593867e-07
6.1037217e-06
5.8044774e-05
4.5388844e-07
4.764677e-06
5.7087307e-05
2.2164586e-07
3.6255274e-06
5.6488669e-05
4.4004994e-08
2.6904259e-06
5.6127888e-05
-6.6559789e-08
1.9411113e-06
5.5898147e-05
-1.0273819e-07
1.3616518e-06
5.5717968e-05
-6.6292525e-08
9.3269321e-07
4.8678692e-08
6.2404423e-07
8.3577994e-05
1.7952818e-06
7.4572195e-07
8.7542996e-05
2.0946926e-06
1.2840335e-06
9.1171813e-05
1.9726123e-06
1.5190609e-06
9.4375258e-05
1.7695513e-06
1.4791291e-06
9.7140359e-05
1.5313019e-06
1.1668749e-06
9.9524879e-05
1.2878291e-06
5.5492683e-07
0.00010163887
1.0553981e-06
-4.0008884e-07
0.0001036007
8.3611397e-07
-1.7715539e-06
0.00010562333
6.2196069e-07
-3.7573584e-06
0.00010813217
3.8638574e-07
-6.6375822e-06
0.00011187685
9.5615463e-08
-1.0845325e-05
0.00011821708
-2.8909357e-07
-1.6793681e-05
0.00012885147
-5.8537654e-07
-2.3476115e-05
0.0001343668
-3.7278371e-07
-1.3936517e-05
0.00013771692
-6.4196774e-08
-8.4701994e-06
0.00014008797
1.9960843e-07
-4.569979e-06
0.00014117446
4.5447147e-07
-2.9840156e-07
0.00013873906
6.7085017e-07
6.3759167e-06
0.0001355175
7.867515e-07
9.3714986e-06
0.00013212499
7.8668142e-07
1.0710434e-05
0.0001289039
7.091746e-07
1.1000915e-05
0.00012600166
5.8845265e-07
1.0663336e-05
0.0001234161
4.4926573e-07
1.0002608e-05
0.00012110969
3.0887827e-07
9.1747705e-06
0.00011903725
1.8024036e-07
8.2569671e-06
0.00011716829
7.3320171e-08
7.295066e-06
0.00011549408
-2.8608392e-09
6.3259504e-06
0.00011403665
-4.1784106e-08
5.373132e-06
0.00011284151
-3.7243786e-08
4.4503996e-06
1.7276621e-08
3.582422e-06
8.4580509e-05
-1.7952818e-06
7.6231423e-07
9.006695e-05
-2.0946925e-06
1.3239478e-06
9.5337956e-05
-1.9726121e-06
1.5851273e-06
0.00010015476
-1.7695508e-06
1.5791623e-06
0.00010441933
-1.5313011e-06
1.3100615e-06
0.00010813733
-1.2878279e-06
7.5219175e-07
0.0001114052
-1.0553965e-06
-1.5492395e-07
0.0001143319
-8.3611227e-07
-1.4492241e-06
0.00011708062
-6.2195918e-07
-3.3431721e-06
0.0001200432
-3.8638475e-07
-6.1007569e-06
0.00012391725
-9.5615259e-08
-1.017735e-05
0.00012994353
2.8909284e-07
-1.6091445e-05
0.0001400913
5.8537497e-07
-2.3170267e-05
0.00014542285
3.7278162e-07
-1.4465905e-05
0.00014899891
6.4194195e-08
-9.5518087e-06
0.00015187948
-1.9961093e-07
-6.0704953e-06
0.00015371039
-4.5447435e-07
-1.9881615e-06
0.00015246169
-6.7085349e-07
4.3721544e-06
0.00015045342
-7.867554e-07
7.5092894e-06
0.00014814402
-7.8668609e-07
9.2032417e-06
0.00014577473
-7.0918024e-07
9.960928e-06
0.00014346542
-5.8845943e-07
1.011021e-05
0.00014121348
-4.4927373e-07
9.9154655e-06
0.00013900351
-3.0888735e-07
9.5039666e-06
0.00013682563
-1.8025002e-07
8.9375162e-06
0.0001346908
-7.3329696e-08
8.2509993e-06
0.000132641
2.8510764e-09
7.4679124e-06
0.00013074963
4.1776475e-08
6.6116712e-06
0.00012913341
3.7237592e-08
5.6983663e-06
-1.7282148e-08
4.7585803e-06
8.3577994e-05
-4.391153e-06
7.4572195e-07
8.7542996e-05
-4.7808901e-06
1.2840335e-06
9.1171813e-05
-4.3036466e-06
1.5190609e-06
9.4375258e-05
-3.7345692e-06
1.479129e-06
9.714036e-05
-3.1419989e-06
1.1668749e-06
9.952488e-05
-2.5779475e-06
5.5492681e-07
0.00010163887
-2.0668302e-06
-4.0008883e-07
0.00010360071
-1.6038136e-06
-1.7715538e-06
0.00010562333
-1.1601061e-06
-3.7573582e-06
0.00010813217
-6.7039703e-07
-6.6375818e-06
0.00011187686
-6.4049934e-08
-1.0845325e-05
0.00011821709
6.5218443e-07
-1.679368e-05
0.00012885147
1.1018902e-06
-2.3476114e-05
0.0001343668
4.7385192e-07
-1.3936517e-05
0.00013771692
-1.2981206e-07
-8.4701992e-06
0.00014008797
-6.72923e-07
-4.5699789e-06
0.00014117446
-1.1324309e-06
-2.984016e-07
0.00013873906
-1.521069e-06
6.3759163e-06
0.0001355175
-1.6605192e-06
9.3714976e-06
0.00013212499
-1.5563762e-06
1.0710432e-05
0.0001289039
-1.316055e-06
1.1000913e-05
0.00012600166
-1.0225761e-06
1.0663333e-05
0.00012341609
-7.2594203e-07
1.0002604e-05
0.00012110968
-4.538926e-07
9.1747655e-06
0.00011903724
-2.2165079e-07
8.2569615e-06
0.00011716827
-4.4010149e-08
7.2950598e-06
0.00011549407
6.6554858e-08
6.325944e-06
0.00011403663
1.027344e-07
5.3731261e-06
0.0001128415
6.6289828e-08
4.4503944e-06
-4.8680847e-08
3.5824175e-06
7.6489759e-05
6.4990324e-07
7.2794989e-05
1.0520307e-06
6.9570673e-05
1.1627558e-06
6.6811666e-05
1.0026232e-06
6.45205e-05
5.7834679e-07
6.2714942e-05
-1.18445e-07
6.1379298e-05
-1.072092e-06
6.0572525e-05
-2.3967669e-06
6.0522341e-05
-4.2084078e-06
6.1685412e-05
-6.7080399e-06
6.4914981e-05
-1.0219618e-05
7.1420964e-05
-1.4841793e-05
8.1509819e-05
-1.883716e-05
8.5272379e-05
-7.9400357e-06
8.634027e-05
-2.5368963e-06
8.5919506e-05
9.5902913e-07
8.3912344e-05
4.3523963e-06
7.8636698e-05
9.6202729e-06
7.3217604e-05
1.0769226e-05
6.8388701e-05
1.0379917e-05
6.4520166e-05
9.1235984e-06
6.1603729e-05
7.5960755e-06
5.9499289e-05
6.1037176e-06
5.8044769e-05
4.7646726e-06
5.7087301e-05
3.6255228e-06
5.648866e-05
2.6904214e-06
5.6127877e-05
1.9411071e-06
5.5898135e-05
1.3616483e-06
5.5717957e-05
9.3269049e-07
6.2404237e-07
7.600887e-05
4.3961554e-06
2.4487733e-07
7.1851998e-05
4.7996254e-06
4.0927819e-07
6.826769e-05
4.3142344e-06
4.3282915e-07
6.523007e-05
3.7299182e-06
3.1032502e-07
6.2652761e-05
3.1230406e-06
3.2615105e-08
6.045533e-05
2.548302e-06
-4.6931639e-07
5.8590808e-05
2.0302818e-06
-1.237851e-06
5.706771e-05
1.538799e-06
-2.4124685e-06
5.6095164e-05
9.9866451e-07
-4.2345267e-06
5.6282668e-05
2.7404087e-07
-7.1695852e-06
5.8939941e-05
-7.5839989e-07
-1.2118492e-05
6.6411764e-05
-2.1385867e-06
-2.017503e-05
7.809972e-05
-2.2925267e-06
-2.823259e-05
6.7822442e-05
2.3372419e-06
6.1832357e-05
3.4531883e-06
5.9578238e-05
3.2131483e-06
6.0638312e-05
3.2923228e-06
5.5523033e-05
3.6676351e-06
1.1067918e-05
5.1820924e-05
3.4861005e-06
1.0985236e-05
4.9378199e-05
2.9280692e-06
9.8945758e-06
4.8464934e-05
2.2497176e-06
7.7871483e-06
4.8478445e-05
1.5902098e-06
5.992359e-06
4.9051347e-05
9.974248e-07
4.5333943e-06
4.9958882e-05
4.884673e-07
3.3686748e-06
5.1033421e-05
9.3365293e-08
2.4576231e-06
5.2152819e-05
-1.9398169e-07
1.7650102e-06
5.3199972e-05
-3.5595485e-07
1.2499125e-06
5.4098634e-05
-4.1192263e-07
8.7491307e-07
5.4821615e-05
-3.9877211e-07
6.0848409e-07
-3.6718565e-07
4.0030149e-07
8.3061151e-05
1.7966768e-06
2.8404961e-07
8.6533886e-05
2.1044733e-06
5.0645052e-07
8.9799271e-05
1.9802311e-06
5.8767915e-07
9.2717921e-05
1.7709279e-06
5.1946895e-07
9.5195908e-05
1.5260325e-06
2.8589671e-07
9.7178812e-05
1.2768697e-06
-1.5654481e-07
9.8681644e-05
1.0396746e-06
-9.1231369e-07
9.975599e-05
8.0625327e-07
-2.1133541e-06
0.00010050892
5.4949223e-07
-4.0611169e-06
0.00010125118
2.1232264e-07
-7.3181216e-06
0.00010291372
-2.870858e-07
-1.2979178e-05
0.00010790928
-1.0377677e-06
-2.2890061e-05
0.00011946082
-1.4132265e-06
-3.5906953e-05
0.00010705276
8.0878542e-07
0.00010043809
1.5976503e-06
9.7499988e-05
1.5812753e-06
9.8875186e-05
1.6187232e-06
9.6107388e-05
1.7941355e-06
1.1017215e-05
9.5185475e-05
1.8041176e-06
1.1975394e-05
9.5144986e-05
1.5974973e-06
1.2081494e-05
9.6116398e-05
1.3012363e-06
1.0977984e-05
9.7605929e-05
9.851022e-07
9.7789134e-06
9.930246e-05
6.8118123e-07
8.6223205e-06
0.00010099762
4.0659894e-07
7.5614825e-06
0.00010257179
1.7514383e-07
6.6010153e-06
0.00010396333
-1.2249784e-08
5.7217942e-06
0.00010516112
-1.3420695e-07
4.9064092e-06
0.00010617825
-2.0078711e-07
4.1448729e-06
0.00010702517
-2.2252089e-07
3.4272282e-06
-2.1516698e-07
2.7322409e-06
8.4063694e-05
-1.7966768e-06
2.9197357e-07
8.9071183e-05
-2.1044732e-06
5.2540568e-07
9.3997212e-05
-1.9802308e-06
6.1956014e-07
9.8549646e-05
-1.7709275e-06
5.6858381e-07
0.00010255445
-1.5260317e-06
3.5731872e-07
0.00010590668
-1.2768685e-06
-4.6299592e-08
0.00010859648
-1.0396731e-06
-7.6537724e-07
0.00011066983
-8.062517e-07
-1.9100632e-06
0.00011220142
-5.4949093e-07
-3.7757777e-06
0.00011343923
-2.1232198e-07
-6.9139291e-06
0.0001151493
2.8708548e-07
-1.2461588e-05
0.00011940474
1.0377661e-06
-2.242242e-05
0.00012992725
1.4132241e-06
-3.6519222e-05
0.00011707891
-8.0878784e-07
0.00011072241
-1.5976529e-06
0.00010781447
-1.5812783e-06
0.00010906375
-1.6187268e-06
0.00010692708
-1.7941405e-06
1.0097107e-05
0.00010686516
-1.8041244e-06
1.117945e-05
0.00010769162
-1.597506e-06
1.157178e-05
0.00010940057
-1.3012465e-06
1.085447e-05
0.00011146594
-9.8511359e-07
1.0015053e-05
0.00011356087
-6.8119334e-07
9.1829054e-06
0.00011549881
-4.0661118e-07
8.3792383e-06
0.00011718447
-1.7515565e-07
7.6021525e-06
0.0001185714
1.2240021e-08
6.8395877e-06
0.00011968972
1.3419847e-07
6.0811884e-06
0.00012058077
2.007805e-07
5.3190493e-06
0.00012128846
2.2251593e-07
4.5456379e-06
2.1516315e-07
3.7446138e-06
8.3061151e-05
-4.3961554e-06
2.8404961e-07
8.6533886e-05
-4.7996253e-06
5.0645051e-07
8.9799271e-05
-4.3142343e-06
5.8767914e-07
9.2717922e-05
-3.729918e-06
5.1946892e-07
9.5195909e-05
-3.1230403e-06
2.8589667e-07
9.7178813e-05
-2.5483015e-06
-1.5654485e-07
9.8681646e-05
-2.030281e-06
-9.1231372e-07
9.9755993e-05
-1.5387983e-06
-2.1133541e-06
0.00010050892
-9.9866391e-07
-4.0611168e-06
0.00010125118
-2.7404068e-07
-7.3181213e-06
0.00010291372
7.5839952e-07
-1.2979178e-05
0.00010790928
2.1385857e-06
-2.289006e-05
0.00011946082
2.2925255e-06
-3.5906953e-05
0.00010705276
-2.337243e-06
0.0001004381
-3.4531894e-06
9.7499987e-05
-3.2131494e-06
9.8875183e-05
-3.2923242e-06
9.6107382e-05
-3.667637e-06
1.1017214e-05
9.5185467e-05
-3.486103e-06
1.1975392e-05
9.5144976e-05
-2.9280722e-06
1.208149e-05
9.6116386e-05
-2.2497211e-06
1.0977977e-05
9.7605914e-05
-1.5902137e-06
9.7789041e-06
9.9302444e-05
-9.9742911e-07
8.6223096e-06
0.0001009976
-4.8847206e-07
7.5614705e-06
0.00010257177
-9.3370167e-08
6.6010026e-06
0.00010396331
1.9397705e-07
5.7217816e-06
0.00010516111
3.5595118e-07
4.9063972e-06
0.00010617823
4.1191993e-07
4.144862e-06
0.00010702515
3.9877019e-07
3.427219e-06
3.6718425e-07
2.7322335e-06
7.600887e-05
2.4487733e-07
7.1851998e-05
4.0927818e-07
6.826769e-05
4.3282914e-07
6.523007e-05
3.1032499e-07
6.2652762e-05
3.2615066e-08
6.0455332e-05
-4.6931643e-07
5.859081e-05
-1.237851e-06
5.7067713e-05
-2.4124685e-06
5.6095168e-05
-4.2345265e-06
5.6282672e-05
-7.1695849e-06
5.8939945e-05
-1.2118491e-05
6.6411767e-05
-2.017503e-05
7.8099722e-05
-2.823259e-05
6.7822443e-05
6.1832357e-05
5.9578237e-05
6.0638309e-05
5.5523029e-05
1.1067917e-05
5.1820919e-05
1.0985233e-05
4.9378194e-05
9.8945706e-06
4.8464929e-05
7.7871416e-06
4.847844e-05
5.9923512e-06
4.9051342e-05
4.533386e-06
4.9958877e-05
3.3686663e-06
5.1033414e-05
2.4576148e-06
5.2152811e-05
1.7650023e-06
5.3199964e-05
1.2499053e-06
5.4098625e-05
8.7490705e-07
5.4821606e-05
6.0847952e-07
4.0029838e-07
7.5841696e-05
4.4031815e-06
-3.5012954e-14
7.1435633e-05
4.8153412e-06
-3.7917357e-14
6.7532565e-05
4.3358971e-06
8.5520771e-14
6.4089904e-05
3.7529852e-06
4.2730069e-13
6.0979209e-05
3.1433093e-06
9.9331272e-13
5.7959891e-05
2.5499996e-06
1.64671e-12
5.4730508e-05
1.9915304e-06
2.1516514e-12
5.0917992e-05
1.4000446e-06
2.2670434e-12
4.6101514e-05
5.8195006e-07
1.8767423e-12
3.9671941e-05
-7.40013e-07
1.0715449e-12
3.0655375e-05
-3.1019265e-06
1.5295334e-13
1.7424839e-05
-6.9444932e-06
-6.1933739e-13
-1.0807751e-05
-7.6311265e-13
5.2969415e-06
5.7709743e-06
2.001482e-12
1.2195729e-05
4.0864449e-06
3.2280224e-12
1.9464709e-05
2.6255928e-06
3.410352e-12
2.596889e-05
1.2829635e-06
3.120046e-12
3.1747306e-05
2.1394051e-07
2.7025776e-12
3.6795465e-05
-5.1476673e-07
2.2842283e-12
4.1119294e-05
-9.5515556e-07
1.714505e-12
4.4754928e-05
-1.1780126e-06
1.0712824e-12
4.7762673e-05
-1.242735e-06
4.2306811e-13
5.0210017e-05
-1.1974314e-06
-3.0487232e-13
5.2177718e-05
-1.092787e-06
-1.1888137e-12
5.3765481e-05
-9.7927605e-07
-2.2153987e-12
-9.7421736e-07
-3.1262529e-12
8.2887569e-05
1.7996617e-06
-3.4511917e-14
8.6096768e-05
2.1125934e-06
-1.5266872e-14
8.9028281e-05
1.9920629e-06
1.7922585e-13
9.1516932e-05
1.7838029e-06
6.5631167e-13
9.340948e-05
1.5366562e-06
1.4705188e-12
9.4525865e-05
1.2770675e-06
2.5428007e-12
9.4586325e-05
1.0187524e-06
3.6592585e-12
9.3136674e-05
7.363375e-07
4.5345025e-12
8.930261e-05
3.5489247e-07
4.8449084e-12
8.1540939e-05
-2.9646804e-07
4.3217652e-12
6.6930955e-05
-1.4711241e-06
2.8808435e-12
4.066702e-05
-3.5706202e-06
9.4594829e-13
-6.0476832e-06
-4.2389347e-13
1.3725784e-05
3.0624017e-06
2.8145156e-12
2.7480054e-05
2.3075652e-06
4.1324171e-12
4.0646271e-05
1.5408667e-06
4.0175671e-12
5.2027479e-05
8.7973661e-07
3.2250442e-12
6.1714308e-05
3.0602289e-07
2.0733567e-12
6.9934624e-05
-1.1276366e-07
6.9249784e-13
7.6933965e-05
-3.9301258e-07
-6.1538744e-13
8.2922893e-05
-5.6592415e-07
-1.8295083e-12
8.8054911e-05
-6.5295505e-07
-3.0494357e-12
9.2437706e-05
-6.7381348e-07
-4.21794e-12
9.6140222e-05
-6.5042449e-07
-5.3651997e-12
9.9198978e-05
-6.1079761e-07
-6.5314282e-12
-5.9988884e-07
-7.5570165e-12
8.3891297e-05
-1.7996617e-06
-3.4055341e-14
8.8641889e-05
-2.1125934e-06
-8.3097499e-15
9.3245575e-05
-1.9920627e-06
2.0256456e-13
9.7381764e-05
-1.7838025e-06
7.0214296e-13
0.00010081239
-1.5366554e-06
1.5536601e-12
0.00010332022
-1.2770664e-06
2.6994369e-12
0.00010459235
-1.0187511e-06
3.9442358e-12
0.00010415495
-7.3633614e-07
5.0439295e-12
0.00010108895
-3.548915e-07
5.6413049e-12
9.3582082e-05
2.9646815e-07
5.3833028e-12
7.8178243e-05
1.4711228e-06
4.0467808e-12
4.8614584e-05
3.570617e-06
1.9068549e-12
6.0476791e-06
6.4584285e-14
1.6221914e-05
-3.0624085e-06
2.8936763e-12
3.2016499e-05
-2.3075719e-06
2.7238378e-12
4.6670016e-05
-1.5408715e-06
9.8945966e-13
5.9283964e-05
-8.7973963e-07
-1.2564691e-12
6.9911067e-05
-3.0602411e-07
-3.6657358e-12
7.8868451e-05
1.1276399e-07
-6.0378199e-12
8.6461671e-05
3.9301417e-07
-8.164264e-12
9.2931983e-05
5.6592674e-07
-9.9187853e-12
9.8465668e-05
6.5295837e-07
-1.125309e-11
0.00010319924
6.7381723e-07
-1.2177016e-11
0.00010721745
6.504283e-07
-1.2741498e-11
0.0001105415
6.1080112e-07
-1.304886e-11
5.9989182e-07
-1.3072943e-11
8.2887569e-05
-4.4031815e-06
-3.5998972e-14
8.6096768e-05
-4.8153412e-06
-2.1293074e-14
8.9028281e-05
-4.335897e-06
1.6153583e-13
9.1516932e-05
-3.752985e-06
6.2021493e-13
9.3409481e-05
-3.1433089e-06
1.411894e-12
9.4525866e-05
-2.5499991e-06
2.4670854e-12
9.4586327e-05
-1.9915297e-06
3.5840867e-12
9.3136677e-05
-1.4000439e-06
4.4858237e-12
8.9302613e-05
-5.8194964e-07
4.8483495e-12
8.1540943e-05
7.4001289e-07
4.3933292e-12
6.6930959e-05
3.1019257e-06
3.0175498e-12
4.0667023e-05
6.9444917e-06
1.1219604e-12
1.0807749e-05
-2.5581915e-13
1.3725779e-05
-5.7709766e-06
2.5944709e-12
2.7480045e-05
-4.0864469e-06
1.0736748e-12
4.0646259e-05
-2.6255939e-06
-1.9322036e-12
5.2027465e-05
-1.2829637e-06
-5.168753e-12
6.1714293e-05
-2.1393998e-07
-8.2786953e-12
6.993461e-05
5.1476768e-07
-1.0959308e-11
7.6933951e-05
9.5515666e-07
-1.3064532e-11
8.2922881e-05
1.1780138e-06
-1.4508435e-11
8.80549e-05
1.2427362e-06
-1.5270947e-11
9.2437698e-05
1.1974327e-06
-1.5430758e-11
9.6140215e-05
1.0927883e-06
-1.5098383e-11
9.9198972e-05
9.7927716e-07
-1.4450001e-11
9.7421837e-07
-1.3581673e-11
7.5841696e-05
-3.6103755e-14
7.1435633e-05
-4.3317302e-14
6.7532565e-05
6.7739088e-14
6.4089904e-05
3.8906758e-13
6.097921e-05
9.3102964e-13
5.7959893e-05
1.5712335e-12
5.473051e-05
2.0897961e-12
5.0917995e-05
2.2525524e-12
4.6101517e-05
1.9349732e-12
3.9671944e-05
1.2036449e-12
3.0655378e-05
3.1917186e-13
1.742484e-05
-4.5005034e-13
-6.3992679e-13
5.2969382e-06
1.7835147e-12
1.2195724e-05
3.2989417e-13
1.9464702e-05
-1.9558177e-12
2.5968884e-05
-3.8696586e-12
3.1747301e-05
-5.2805571e-12
3.679546e-05
-6.1676077e-12
4.111929e-05
-6.6200269e-12
4.4754925e-05
-6.7343377e-12
4.7762671e-05
-6.5989583e-12
5.0210015e-05
-6.2709827e-12
5.2177716e-05
-5.8301016e-12
5.3765478e-05
-5.3938742e-12
-4.9658814e-12
7.5841696e-05
4.4031815e-06
-2.448774e-07
7.1435633e-05
4.8153412e-06
-4.0927826e-07
6.7532565e-05
4.3358971e-06
-4.3282899e-07
6.4089904e-05
3.7529852e-06
-3.1032424e-07
6.0979209e-05
3.1433093e-06
-3.2613415e-08
5.7959892e-05
2.5499996e-06
4.6931953e-07
5.4730509e-05
1.9915304e-06
1.237855e-06
5.0917993e-05
1.4000446e-06
2.4124729e-06
4.6101515e-05
5.8195017e-07
4.2345304e-06
3.9671941e-05
-7.4001279e-07
7.1695874e-06
3.0655375e-05
-3.1019262e-06
1.2118492e-05
1.7424838e-05
-6.9444931e-06
2.0175029e-05
-1.0807751e-05
2.8232589e-05
5.2969408e-06
5.7709768e-06
-1.1067916e-05
1.2195728e-05
4.0864485e-06
-1.0985233e-05
1.9464708e-05
2.6255969e-06
-9.894573e-06
2.5968889e-05
1.2829682e-06
-7.7871465e-06
3.1747304e-05
2.1394521e-07
-5.9923575e-06
3.6795462e-05
-5.1476196e-07
-4.5333936e-06
4.111929e-05
-9.551514e-07
-3.3686749e-06