/*--------------------------------*- C++ -*----------------------------------*\
| =========                 |                                                 |
| \\      /  F ield         | OpenFOAM: The Open Source CFD Toolbox           |
|  \\    /   O peration     | Version:  2412                                  |
|   \\  /    A nd           | Website:  www.openfoam.com                      |
|    \\/     M anipulation  |                                                 |
\*---------------------------------------------------------------------------*/
FoamFile
{
    version     2.0;
    format      ascii;
    arch        "LSB;label=32;scalar=64";
    class       volScalarField;
    location    "60/bottomWater";
    object      T;
}
// * * * * * * * * * * * * * * * * * * * * * * * * * * * * * * * * * * * * * //

dimensions      [0 0 0 1 0 0 0];

internalField   nonuniform List<scalar> 
1460
(
300
300
300
300
300
299.99999
299.99999
299.99999
299.99999
300
300.00003
300.00085
300.00966
300.01465
300.01317
300.01041
300.00796
300.00586
300.00413
300.00278
300.00178
300.00109
300.00064
300.00036
300.00019
300.0001
300.00005
300.00002
300.00001
300
300
300
300
300
300
300
300
299.99999
299.99999
299.99999
300
300.0002
300.00334
300.00789
300.01131
300.01215
300.01108
300.00968
300.00811
300.0065
300.00498
300.00363
300.00254
300.00169
300.00108
300.00066
300.00039
300.00022
300.00012
300.00007
300
300
300
300
300
300
300
300
300
300
300
300.00009
300.00171
300.00452
300.00724
300.00873
300.00847
300.00785
300.00695
300.00588
300.00475
300.00367
300.0027
300.00191
300.00129
300.00084
300.00052
300.00032
300.00019
300.00011
300
300
300.00001
300.00001
300.00001
300.00001
300.00002
300.00002
300.00002
300.00002
300.00003
300.00014
300.00217
300.01135
300.02177
300.0301
300.03539
300.03796
300.03779
300.03523
300.03092
300.02565
300.02018
300.01512
300.01086
300.00752
300.00512
300.00344
300.00232
300.00163
300.00003
300.00006
300.00008
300.00012
300.00017
300.00025
300.00035
300.00049
300.00067
300.00089
300.00114
300.00185
300.01762
300.62836
301.0076
301.20798
301.27162
301.23292
301.12156
300.96558
300.79143
300.62122
300.46992
300.34483
300.24703
300.1739
300.12128
300.08501
300.06151
300.04818
300
300
300
300
300
299.99999
299.99999
299.99999
299.99999
300.00001
300.00042
300.01071
300.14952
300.2216
300.22196
300.19046
300.15785
300.12613
300.09693
300.0715
300.05051
300.03411
300.022
300.01356
300.00798
300.0045
300.00243
300.00126
300.00063
300.0003
300
300
300
300
300
300
300
299.99999
299.99999
300
300.00006
300.00237
300.05133
300.10747
300.15351
300.17713
300.17062
300.15956
300.14471
300.12712
300.10796
300.08844
300.06971
300.05275
300.03826
300.02656
300.01764
300.01121
300.00682
300.004
300
300
300
300
300
300
300
300
300
300
300.00003
300.00113
300.02834
300.06362
300.0977
300.1222
300.12768
300.12221
300.11348
300.10213
300.08895
300.07482
300.06066
300.0473
300.0354
300.02538
300.01741
300.01143
300.00718
300.00434
300
300
300.00001
300.00001
300.00001
300.00002
300.00002
300.00002
300.00003
300.00004
300.00008
300.00138
300.0309
300.06875
300.1027
300.12413
300.1275
300.12674
300.12146
300.11184
300.09869
300.08332
300.06727
300.05196
300.03845
300.02732
300.01871
300.01241
300.00803
300.00517
300.00003
300.00006
300.00009
300.00013
300.00018
300.00027
300.00039
300.00055
300.00078
300.00107
300.00153
300.0049
300.05899
300.66884
301.09735
301.37005
301.50882
301.52639
301.44356
301.2875
301.08904
300.87782
300.67765
300.50376
300.36278
300.25476
300.17588
300.12081
300.08434
300.06234
300
300
300
300
300
299.99999
299.99999
299.99999
300
300.00007
300.0027
300.07484
301.25736
301.82899
301.9916
301.8463
301.66789
301.43402
301.17338
300.91562
300.68167
300.48428
300.32828
300.21238
300.13125
300.07766
300.04417
300.02411
300.01259
300.00633
300
300
300
300
300
300
300
299.99999
299.99999
300
300.00046
300.01869
300.49619
300.92116
301.27888
301.51917
301.51716
301.44611
301.33377
301.19234
301.03365
300.86889
300.70794
300.55859
300.42635
300.31427
300.22325
300.15261
300.1003
300.06357
300
300
300
300
300
300
300
300
300
300
300.00021
300.00997
300.30567
300.59672
300.866
301.08261
301.15925
301.12193
301.05321
300.95967
300.84859
300.72783
300.60509
300.48717
300.37944
300.28552
300.20727
300.14493
300.09752
300.06331
300
300.00001
300.00001
300.00001
300.00001
300.00002
300.00002
300.00003
300.00004
300.00005
300.0003
300.01108
300.30969
300.56999
300.78283
300.92267
300.91886
300.87631
300.80805
300.71889
300.6161
300.5083
300.40374
300.30878
300.22744
300.1614
300.11046
300.07291
300.04643
300.02868
300.00004
300.00007
300.0001
300.00015
300.00022
300.00032
300.00048
300.00072
300.00105
300.00153
300.00284
300.02534
300.44478
301.41325
302.03932
302.36913
302.51581
302.47485
302.28312
301.98789
301.6411
301.29095
300.97306
300.70709
300.49844
300.34299
300.23202
300.15598
300.10621
300.07612
300
300
300
300
300
299.99999
299.99999
299.99999
300
300.00028
300.01034
300.30751
306.14428
309.02944
312.0715
314.82609
316.42178
313.35105
310.13339
307.35447
305.15267
303.50406
302.31429
301.48273
300.92104
300.55627
300.32548
300.18359
300.09948
300.05215
300
300
300
300
300
300
299.99999
299.99999
300
300.00004
300.00201
300.08939
302.84697
304.77235
306.91722
309.08253
311.07258
310.2642
308.96308
307.52631
306.14379
304.90859
303.84917
302.96379
302.23762
301.65079
301.18695
300.82999
300.56324
300.37158
300
300
300
300
300
300
300
300
300
300.00002
300.00102
300.05213
301.91599
303.31789
304.83989
306.37287
307.80587
307.36191
306.59129
305.68974
304.77141
303.90573
303.12707
302.44984
301.87696
301.40446
301.0245
300.72736
300.50181
300.33702
300
300.00001
300.00001
300.00001
300.00002
300.00002
300.00003
300.00004
300.00005
300.00007
300.00121
300.05481
301.82924
303.01497
304.29728
305.5416
306.6197
305.9247
304.99592
304.04836
303.18445
302.44743
301.84301
301.36061
300.9838
300.6954
300.47987
300.32248
300.21058
300.13388
300.00004
300.00007
300.00011
300.00017
300.00025
300.00039
300.0006
300.00091
300.00138
300.00216
300.00599
300.10411
302.29806
304.48143
306.50016
308.01297
308.63638
307.17824
305.58306
304.15103
302.98258
302.0907
301.43846
300.97561
300.65451
300.43583
300.28851
300.19076
300.12773
300.0897
300
300
300
300
299.99999
299.99999
299.99999
299.99999
300.00001
300.0007
300.02615
300.82726
320.96465
335.87224
312.69411
306.66841
303.98205
302.46464
301.54603
300.96572
300.59368
300.35639
300.20761
300.11685
300.06343
300.0336
300
300
300
300
300
300
299.99999
299.99999
300
300.0001
300.00571
300.27442
311.08751
329.74072
314.32799
308.99204
306.27118
304.55354
303.33367
302.42753
301.74597
301.23413
300.85399
300.57667
300.37894
300.24272
300
300
300
300
300
300
300
300
300
300.00005
300.00309
300.17093
307.95344
322.13659
311.12064
307.13078
305.02658
303.67754
302.71962
302.00502
301.4621
301.04894
300.73736
300.50625
300.33855
300.2208
300
300.00001
300.00001
300.00001
300.00002
300.00002
300.00003
300.00004
300.00005
300.00012
300.00344
300.17264
307.27407
315.91239
307.12407
304.2756
302.86595
301.99994
301.41253
300.99639
300.69541
300.47728
300.32073
300.21033
300.13428
300.08371
300.00004
300.00008
300.00012
300.00018
300.00028
300.00043
300.00068
300.00106
300.00166
300.00277
300.01173
300.29154
308.34898
314.52281
305.939
303.58977
302.41097
301.66864
301.16651
300.81532
300.56657
300.39034
300.26662
300.1814
300.12469
300.08964
300
300
300
300
299.99999
299.99999
299.99999
299.99999
300.00001
300.0007
300.02615
300.82726
320.96464
335.87223
312.6941
306.66841
303.98205
302.46463
301.54603
300.96572
300.59368
300.35639
300.20761
300.11685
300.06343
300.0336
300
300
300
300
300
300
299.99999
299.99999
300
300.0001
300.00571
300.27442
311.0875
329.74072
314.32799
308.99204
306.27118
304.55354
303.33367
302.42753
301.74597
301.23413
300.85399
300.57667
300.37895
300.24272
300
300
300
300
300
300
300
300
300
300.00005
300.00309
300.17093
307.95343
322.13661
311.12065
307.1308
305.0266
303.67755
302.71963
302.00503
301.46211
301.04894
300.73736
300.50625
300.33856
300.2208
300
300.00001
300.00001
300.00001
300.00002
300.00002
300.00003
300.00004
300.00005
300.00012
300.00344
300.17264
307.27407
315.91242
307.12409
304.27562
302.86596
301.99996
301.41254
300.9964
300.69542
300.47729
300.32073
300.21033
300.13429
300.08371
300.00004
300.00008
300.00012
300.00018
300.00028
300.00043
300.00068
300.00106
300.00166
300.00277
300.01173
300.29154
308.34897
314.52283
305.93902
303.58978
302.41098
301.66865
301.16652
300.81533
300.56658
300.39035
300.26662
300.1814
300.12469
300.08964
300
300
300
300
300
299.99999
299.99999
299.99999
300
300.00028
300.01034
300.30751
306.14428
309.02944
312.0715
314.82608
316.42177
313.35104
310.13338
307.35446
305.15267
303.50406
302.31429
301.48273
300.92104
300.55626
300.32548
300.18359
300.09948
300.05215
300
300
300
300
300
300
299.99999
299.99999
300
300.00003
300.00201
300.08939
302.84697
304.77235
306.91721
309.08252
311.07257
310.26419
308.96307
307.52631
306.14378
304.90859
303.84916
302.96378
302.23762
301.65079
301.18694
300.82999
300.56324
300.37158
300
300
300
300
300
300
300
300
300
300.00002
300.00102
300.05213
301.91599
303.31789
304.83988
306.37286
307.80587
307.3619
306.59128
305.68974
304.77141
303.90573
303.12707
302.44984
301.87696
301.40446
301.0245
300.72737
300.50181
300.33702
300
300.00001
300.00001
300.00001
300.00002
300.00002
300.00003
300.00004
300.00005
300.00007
300.00121
300.05481
301.82924
303.01497
304.29728
305.5416
306.61969
305.9247
304.99592
304.04836
303.18446
302.44743
301.84302
301.36062
300.98381
300.69541
300.47987
300.32248
300.21058
300.13389
300.00004
300.00007
300.00011
300.00017
300.00025
300.00039
300.0006
300.00091
300.00138
300.00216
300.00599
300.10411
302.29806
304.48142
306.50016
308.01297
308.63638
307.17824
305.58307
304.15104
302.9826
302.09072
301.43847
300.97562
300.65452
300.43583
300.28851
300.19076
300.12773
300.0897
300
300
300
300
300
299.99999
299.99999
299.99999
300
300.00007
300.0027
300.07484
301.25736
301.82898
301.9916
301.8463
301.66788
301.43401
301.17338
300.91562
300.68167
300.48428
300.32828
300.21238
300.13125
300.07766
300.04417
300.02411
300.01259
300.00633
300
300
300
300
300
300
299.99999
299.99999
299.99999
300
300.00046
300.01869
300.49619
300.92116
301.27888
301.51917
301.51715
301.44611
301.33376
301.19233
301.03364
300.86889
300.70794
300.55859
300.42634
300.31427
300.22325
300.15261
300.1003
300.06357
300
300
300
300
300
300
300
300
300
300
300.00021
300.00997
300.30567
300.59672
300.86599
301.08261
301.15925
301.12193
301.05321
300.95967
300.84859
300.72783
300.60509
300.48717
300.37944
300.28552
300.20727
300.14493
300.09752
300.06331
300
300.00001
300.00001
300.00001
300.00001
300.00002
300.00002
300.00003
300.00004
300.00005
300.0003
300.01108
300.30969
300.56999
300.78283
300.92267
300.91886
300.87631
300.80804
300.71889
300.6161
300.5083
300.40374
300.30878
300.22744
300.1614
300.11046
300.07292
300.04643
300.02868
300.00004
300.00007
300.0001
300.00015
300.00022
300.00032
300.00048
300.00071
300.00105
300.00153
300.00284
300.02534
300.44478
301.41325
302.03932
302.36913
302.51581
302.47485
302.28313
301.98789
301.64111
301.29096
300.97307
300.70709
300.49845
300.343
300.23202
300.15598
300.10622
300.07612
300
300
300
300
300
299.99999
299.99999
299.99999
299.99999
300.00001
300.00042
300.01071
300.14952
300.2216
300.22196
300.19046
300.15785
300.12613
300.09693
300.0715
300.05051
300.03411
300.022
300.01356
300.00798
300.0045
300.00243
300.00126
300.00063
300.0003
300
300
300
300
300
300
300
299.99999
299.99999
300
300.00006
300.00237
300.05133
300.10747
300.15351
300.17713
300.17062
300.15956
300.14471
300.12712
300.10796
300.08844
300.06971
300.05275
300.03826
300.02656
300.01764
300.01121
300.00682
300.004
300
300
300
300
300
300
300
300
300
300
300.00003
300.00113
300.02834
300.06362
300.0977
300.1222
300.12768
300.12221
300.11348
300.10213
300.08895
300.07482
300.06066
300.0473
300.0354
300.02538
300.01741
300.01143
300.00718
300.00434
300
300
300.00001
300.00001
300.00001
300.00002
300.00002
300.00002
300.00003
300.00004
300.00008
300.00138
300.0309
300.06875
300.1027
300.12413
300.1275
300.12674
300.12146
300.11184
300.09869
300.08332
300.06727
300.05196
300.03845
300.02732
300.01871
300.01241
300.00803
300.00517
300.00003
300.00006
300.00009
300.00013
300.00018
300.00027
300.00039
300.00055
300.00078
300.00107
300.00153
300.0049
300.05899
300.66884
301.09735
301.37005
301.50882
301.52639
301.44357
301.28751
301.08905
300.87783
300.67766
300.50376
300.36278
300.25477
300.17589
300.12081
300.08434
300.06234
300
300
300
300
300
299.99999
299.99999
299.99999
299.99999
300
300.00003
300.00085
300.00966
300.01465
300.01317
300.01041
300.00796
300.00586
300.00413
300.00278
300.00178
300.00109
300.00064
300.00036
300.00019
300.0001
300.00005
300.00002
300.00001
300
300
300
300
300
300
300
300
299.99999
299.99999
299.99999
300
300.0002
300.00334
300.00789
300.01131
300.01215
300.01107
300.00968
300.00811
300.0065
300.00498
300.00363
300.00254
300.00169
300.00108
300.00067
300.00039
300.00022
300.00012
300.00007
300
300
300
300
300
300
300
300
300
300
300
300.00009
300.00171
300.00452
300.00724
300.00873
300.00847
300.00785
300.00695
300.00588
300.00475
300.00367
300.00271
300.00191
300.00129
300.00084
300.00052
300.00032
300.00019
300.00011
300
300
300.00001
300.00001
300.00001
300.00001
300.00002
300.00002
300.00002
300.00002
300.00003
300.00014
300.00217
300.01135
300.02177
300.0301
300.03539
300.03796
300.03779
300.03523
300.03092
300.02565
300.02018
300.01512
300.01086
300.00752
300.00512
300.00344
300.00232
300.00163
300.00003
300.00006
300.00008
300.00012
300.00017
300.00025
300.00035
300.00049
300.00067
300.00089
300.00114
300.00185
300.01762
300.62836
301.0076
301.20799
301.27163
301.23293
301.12157
300.96559
300.79145
300.62123
300.46993
300.34483
300.24704
300.17391
300.12128
300.08501
300.06151
300.04818
)
;

boundaryField
{
    minX
    {
        type            fixedValue;
        value           uniform 300;
    }
    maxX
    {
        type            inletOutlet;
        inletValue      uniform 300;
        value           nonuniform List<scalar> 
50
(
300
300.00007
300.00011
300.00162
300.04805
300.0003
300.00398
300.00432
300.00515
300.06218
300.00631
300.06335
300.06309
300.02857
300.07592
300.05199
300.37062
300.33608
300.13347
300.08947
300.03349
300.24201
300.22011
300.08342
300.08942
300.03349
300.24201
300.22011
300.08343
300.08942
300.05199
300.37062
300.33608
300.13347
300.08947
300.00631
300.06335
300.06309
300.02857
300.07592
300.0003
300.00398
300.00432
300.00515
300.06218
300
300.00007
300.00011
300.00162
300.04806
)
;
    }
    minY
    {
        type            zeroGradient;
    }
    minZ
    {
        type            zeroGradient;
    }
    maxZ
    {
        type            zeroGradient;
    }
    bottomWater_to_rightSolid
    {
        type            compressible::turbulentTemperatureRadCoupledMixed;
        refValue        nonuniform List<scalar> 
130
(
314.13986
312.11105
310.0919
308.20257
306.51947
305.07959
303.89011
302.93865
302.2022
301.65401
301.26841
301.024
300.90566
316.48959
313.90939
311.40842
309.13416
307.16184
305.51387
304.17932
303.1292
302.32707
301.73619
301.32381
301.06386
300.93841
321.27081
317.41668
313.87563
310.82166
308.29386
306.26279
304.66986
303.44836
302.53429
301.87163
301.41467
301.12902
300.99184
328.48782
322.22201
316.99581
312.82705
309.57749
307.08307
305.1937
303.78307
302.74885
302.01064
301.50739
301.19528
301.04608
337.01463
326.77925
319.5554
314.32157
310.47532
307.63332
305.53561
303.99769
302.8849
302.0982
301.56559
301.23682
301.08008
337.01461
326.77923
319.5554
314.32156
310.47532
307.63332
305.53562
303.99769
302.8849
302.0982
301.56559
301.23683
301.08009
328.4878
322.22199
316.99581
312.82706
309.5775
307.08307
305.19372
303.78307
302.74885
302.01064
301.50739
301.19528
301.04608
321.27082
317.41669
313.87565
310.82168
308.29387
306.26281
304.66988
303.44837
302.5343
301.87163
301.41468
301.12903
300.99185
316.48963
313.90942
311.40845
309.13419
307.16187
305.51389
304.17935
303.12921
302.32708
301.7362
301.32382
301.06387
300.93842
314.13992
312.1111
310.09194
308.20261
306.5195
305.07962
303.89014
302.93866
302.20221
301.65402
301.26842
301.02401
300.90567
)
;
        refGradient     uniform 0;
        valueFraction   uniform 0.99248593;
        source          uniform 0;
        logInterval     -1;
        writePrecision  8;
        updateHeader    1;
        writeToFile     0;
        useUserTime     1;
        kappaMethod     fluidThermo;
        value           nonuniform List<scalar> 
130
(
314.04286
312.02847
310.02332
308.14688
306.47514
305.04495
303.86346
302.91842
302.18696
301.64249
301.25952
301.01677
300.89922
316.37714
313.81571
311.33236
309.0737
307.11461
305.47752
304.1517
303.10841
302.3115
301.72446
301.31477
301.0565
300.93183
321.12956
317.30294
313.78629
310.75266
308.24122
306.22304
304.64007
303.42619
302.51782
301.8593
301.40521
301.12134
300.98496
328.32766
322.09695
316.89926
312.75305
309.52121
307.04064
305.162
303.75955
302.73146
301.99769
301.49749
301.18725
301.03889
336.84556
326.62261
319.4354
314.23205
310.40913
307.58471
305.50013
303.9719
302.86615
302.08444
301.55519
301.22847
301.07264
336.84555
326.6226
319.4354
314.23204
310.40913
307.58472
305.50014
303.9719
302.86615
302.08444
301.55519
301.22847
301.07264
328.32764
322.09693
316.89926
312.75306
309.52122
307.04064
305.16202
303.75956
302.73147
301.9977
301.49749
301.18726
301.03889
321.12957
317.30296
313.7863
310.75268
308.24124
306.22305
304.6401
303.4262
302.51783
301.85931
301.40522
301.12134
300.98497
316.37718
313.81574
311.33239
309.07372
307.11464
305.47754
304.15172
303.10842
302.31151
301.72447
301.31477
301.05651
300.93183
314.04292
312.02851
310.02336
308.14691
306.47517
305.04497
303.86349
302.91843
302.18697
301.6425
301.25952
301.01677
300.89922
)
;
    }
    bottomWater_to_leftSolid
    {
        type            compressible::turbulentTemperatureRadCoupledMixed;
        refValue        nonuniform List<scalar> 
130
(
300.00171
300.00198
300.00255
300.00345
300.00475
300.00651
300.00882
300.01169
300.01511
300.01894
300.02289
300.02648
300.02907
300.00182
300.00212
300.00275
300.00376
300.00525
300.00731
300.01008
300.01365
300.01809
300.02333
300.0291
300.03475
300.03911
300.00199
300.00234
300.00307
300.00428
300.00609
300.00869
300.01229
300.01718
300.02363
300.03185
300.04182
300.05294
300.06319
300.00217
300.00256
300.00341
300.00483
300.00699
300.01018
300.01476
300.02125
300.03033
300.04286
300.0598
300.08188
300.10762
300.00228
300.00271
300.00363
300.00518
300.00758
300.01116
300.01643
300.02413
300.03535
300.05177
300.0761
300.11278
300.16707
300.00228
300.00271
300.00363
300.00518
300.00758
300.01116
300.01643
300.02413
300.03535
300.05177
300.0761
300.11278
300.16707
300.00217
300.00256
300.00341
300.00483
300.00699
300.01018
300.01476
300.02125
300.03033
300.04286
300.0598
300.08188
300.10762
300.00199
300.00234
300.00307
300.00428
300.00609
300.00869
300.01229
300.01718
300.02363
300.03185
300.04182
300.05294
300.06319
300.00182
300.00212
300.00275
300.00376
300.00525
300.00731
300.01008
300.01365
300.01809
300.02333
300.0291
300.03475
300.03911
300.00171
300.00198
300.00255
300.00345
300.00475
300.00651
300.00882
300.01169
300.01511
300.01894
300.02289
300.02648
300.02907
)
;
        refGradient     uniform 0;
        valueFraction   uniform 0.99248593;
        source          uniform 0;
        logInterval     -1;
        writePrecision  8;
        updateHeader    1;
        writeToFile     0;
        useUserTime     1;
        kappaMethod     fluidThermo;
        value           nonuniform List<scalar> 
130
(
300.0017
300.00197
300.00253
300.00342
300.00471
300.00647
300.00875
300.01161
300.015
300.0188
300.02273
300.02629
300.02898
300.00181
300.0021
300.00273
300.00373
300.00521
300.00726
300.01001
300.01356
300.01796
300.02317
300.02889
300.03452
300.03926
300.00198
300.00232
300.00305
300.00425
300.00605
300.00863
300.01221
300.01706
300.02346
300.03162
300.04152
300.05273
300.06606
300.00215
300.00255
300.00339
300.00479
300.00694
300.0101
300.01465
300.0211
300.03011
300.04255
300.05939
300.08205
300.12407
300.00226
300.00269
300.0036
300.00514
300.00752
300.01108
300.01632
300.02396
300.0351
300.05141
300.07561
300.11412
300.22853
300.00226
300.00269
300.0036
300.00514
300.00752
300.01108
300.01632
300.02396
300.0351
300.05141
300.07561
300.11412
300.22853
300.00215
300.00255
300.00339
300.00479
300.00694
300.0101
300.01465
300.0211
300.03011
300.04255
300.05939
300.08205
300.12407
300.00198
300.00232
300.00305
300.00425
300.00605
300.00863
300.01221
300.01706
300.02346
300.03162
300.04152
300.05273
300.06606
300.00181
300.0021
300.00273
300.00373
300.00521
300.00726
300.01001
300.01356
300.01796
300.02317
300.02889
300.03452
300.03926
300.0017
300.00197
300.00253
300.00342
300.00471
300.00647
300.00875
300.01161
300.015
300.0188
300.02273
300.0263
300.02898
)
;
    }
    bottomWater_to_heater
    {
        type            compressible::turbulentTemperatureRadCoupledMixed;
        refValue        nonuniform List<scalar> 
92
(
319.31271
318.72868
317.6013
316.02206
323.13677
322.39883
320.96038
318.92405
331.25941
330.21573
328.12066
325.04263
482.40532
483.16252
483.1803
482.49853
451.46789
452.38041
452.35224
451.47385
424.18837
424.88013
424.65861
423.70619
400.41424
400.67968
399.98794
398.71406
344.59978
380.27486
343.18825
379.85422
340.15226
378.13182
335.22283
375.62849
482.40532
482.49853
451.46789
451.47385
424.18837
423.70619
400.41424
398.71406
380.27486
375.62849
482.4053
482.4053
483.16251
483.18029
482.49853
482.49853
451.46785
451.46785
452.38038
452.35222
451.47385
451.47385
424.18832
424.18832
424.8801
424.65859
423.7062
423.7062
400.4142
400.4142
400.67966
399.98793
398.71408
398.71408
380.27483
380.27483
379.85421
378.13183
375.62852
375.62852
344.5998
343.18826
340.15228
335.22283
331.25942
330.21574
328.12068
325.04265
323.13676
322.39884
320.9604
318.92409
319.31265
318.72868
317.60134
316.02214
)
;
        refGradient     uniform 0;
        valueFraction   uniform 0.99248593;
        source          uniform 0;
        logInterval     -1;
        writePrecision  8;
        updateHeader    1;
        writeToFile     0;
        useUserTime     1;
        kappaMethod     fluidThermo;
        value           nonuniform List<scalar> 
92
(
319.17231
318.59552
317.47811
315.91121
322.96794
322.23876
320.81316
318.79318
331.03514
330.004
327.92715
324.87335
481.10255
481.87692
481.91525
481.25059
450.36561
451.28738
451.2757
450.41886
423.28014
423.97814
423.76979
422.8353
399.68238
399.95545
399.27825
398.02204
344.29831
379.70533
342.91255
379.30301
339.91074
377.60491
335.02302
375.12507
481.19223
481.3967
450.41306
450.55907
423.31497
422.94292
399.71437
398.09182
379.73438
375.16927
481.19221
481.10253
481.87691
481.91524
481.39669
481.25059
450.41302
450.36557
451.28736
451.27568
450.55906
450.41885
423.31492
423.28009
423.97811
423.76978
422.94293
422.83531
399.71433
399.68233
399.95543
399.27825
398.09184
398.02206
379.73435
379.7053
379.303
377.60492
375.1693
375.1251
344.29833
342.91256
339.91075
335.02303
331.03514
330.00401
327.92717
324.87337
322.96793
322.23877
320.81319
318.79322
319.17226
318.59551
317.47815
315.91129
)
;
    }
}


// ************************************************************************* //
