/*--------------------------------*- C++ -*----------------------------------*\
| =========                 |                                                 |
| \\      /  F ield         | OpenFOAM: The Open Source CFD Toolbox           |
|  \\    /   O peration     | Version:  2412                                  |
|   \\  /    A nd           | Website:  www.openfoam.com                      |
|    \\/     M anipulation  |                                                 |
\*---------------------------------------------------------------------------*/
FoamFile
{
    version     2.0;
    format      ascii;
    arch        "LSB;label=32;scalar=64";
    class       volVectorField;
    location    "60/bottomWater";
    object      U;
}
// * * * * * * * * * * * * * * * * * * * * * * * * * * * * * * * * * * * * * //

dimensions      [0 1 -1 0 0 0 0];

internalField   nonuniform List<vector> 
1460
(
(0.00091119457 5.8822934e-05 4.1808203e-05)
(0.00088230546 6.2087226e-05 4.8936839e-05)
(0.00078428897 5.3612151e-05 4.535282e-05)
(0.00070006251 4.3184502e-05 3.8251149e-05)
(0.00063598281 3.3136076e-05 2.984293e-05)
(0.00058841215 2.482597e-05 2.1336311e-05)
(0.00055578881 1.8637943e-05 1.3069214e-05)
(0.00053782112 1.4405231e-05 4.7911427e-06)
(0.00053427731 1.1837089e-05 -3.5116896e-06)
(0.00054402346 1.0238815e-05 -1.1012528e-05)
(0.00056673721 8.5516993e-06 -1.6353044e-05)
(0.00060158443 6.1902532e-06 -1.7194762e-05)
(0.00064556906 2.8619e-06 -9.9996353e-06)
(0.00068142956 -6.7767492e-07 1.1562134e-05)
(0.00069829227 -3.7308617e-06 2.8962382e-05)
(0.00069828794 -5.7064371e-06 3.8028125e-05)
(0.00068324896 -6.1372062e-06 4.208586e-05)
(0.00065477917 -5.4711841e-06 4.3855805e-05)
(0.00061643715 -4.624891e-06 4.2335572e-05)
(0.000574283 -3.944161e-06 3.7800681e-05)
(0.00053383492 -3.366971e-06 3.1699421e-05)
(0.00049822 -2.7351603e-06 2.5267034e-05)
(0.00046857234 -1.9742633e-06 1.9260807e-05)
(0.0004448982 -1.1030873e-06 1.403928e-05)
(0.00042662699 -2.105567e-07 9.7218036e-06)
(0.00041292508 5.8657931e-07 6.3134298e-06)
(0.00040294379 1.2196708e-06 3.7876101e-06)
(0.00039565434 1.7157096e-06 2.1157917e-06)
(0.00039017826 2.0607855e-06 1.1688234e-06)
(0.00038206357 2.9525786e-06 1.1449927e-06)
(0.0009733177 5.544538e-05 4.6074971e-05)
(0.0009925709 5.9929592e-05 5.9173806e-05)
(0.0009749594 5.5826409e-05 5.8377549e-05)
(0.00094990962 4.8088487e-05 5.3381842e-05)
(0.00092713937 3.9058421e-05 4.6209988e-05)
(0.00090758917 3.0573117e-05 3.7825646e-05)
(0.00089270851 2.3415836e-05 2.8770239e-05)
(0.00088495873 1.7784791e-05 1.8966743e-05)
(0.0008875148 1.3870039e-05 8.1142812e-06)
(0.00090402871 1.1458001e-05 -3.363759e-06)
(0.00093532494 9.4237318e-06 -1.3698892e-05)
(0.00098190547 7.0004464e-06 -2.0234028e-05)
(0.0010413647 4.0271333e-06 -1.8529911e-05)
(0.0010967742 7.7721285e-07 -4.3300203e-07)
(0.001134405 -2.0906754e-06 1.9010534e-05)
(0.0011515613 -4.3926152e-06 3.3471381e-05)
(0.0011504388 -5.4611801e-06 4.2972015e-05)
(0.0011336677 -5.2671676e-06 4.8920919e-05)
(0.0011024517 -4.6843983e-06 5.1262517e-05)
(0.0010613101 -4.2213524e-06 5.0076492e-05)
(0.0010152846 -3.9368838e-06 4.630905e-05)
(0.00096817506 -3.6867178e-06 4.097538e-05)
(0.00092256341 -3.3174512e-06 3.4869599e-05)
(0.0008802623 -2.7298861e-06 2.8587738e-05)
(0.00084249533 -1.9027839e-06 2.2552594e-05)
(0.00080995637 -8.9788123e-07 1.7104765e-05)
(0.00078277762 1.9414501e-07 1.2525304e-05)
(0.00076093154 1.3241571e-06 9.012e-06)
(0.00074391027 2.4834962e-06 6.601431e-06)
(0.00072408249 4.0006556e-06 6.1063127e-06)
(0.00097795474 1.9811217e-13 4.6019288e-05)
(0.0010095519 7.2264904e-13 5.9795894e-05)
(0.0010096264 1.8616832e-12 5.9812852e-05)
(0.0010012087 3.8074893e-12 5.5606265e-05)
(0.00099232386 6.3813508e-12 4.9031613e-05)
(0.00098353183 8.9023224e-12 4.1001154e-05)
(0.0009762547 1.0389909e-11 3.2111643e-05)
(0.00097326735 1.0109051e-11 2.2385815e-05)
(0.00097776266 8.102024e-12 1.1434061e-05)
(0.00099518216 5.1963025e-12 -4.8768446e-07)
(0.0010265395 2.372626e-12 -1.1392593e-05)
(0.0010726354 3.5769338e-13 -1.8574277e-05)
(0.0011314094 -6.0329573e-13 -1.7790294e-05)
(0.0011872912 -6.0555401e-13 -1.4529423e-06)
(0.0012273946 1.4711577e-13 1.6608285e-05)
(0.0012484553 1.22459e-12 3.0543684e-05)
(0.0012507067 1.9801313e-12 4.0446693e-05)
(0.0012383726 1.6051875e-12 4.6808719e-05)
(0.0012117853 -7.3830834e-14 4.9749288e-05)
(0.0011749834 -3.0446232e-12 4.9439016e-05)
(0.0011323688 -7.003806e-12 4.6675873e-05)
(0.0010871696 -1.1170562e-11 4.2305804e-05)
(0.0010416861 -1.408099e-11 3.6999749e-05)
(0.0009977698 -1.4131628e-11 3.1290036e-05)
(0.00095694099 -1.0018277e-11 2.559612e-05)
(0.00092035259 -2.9479926e-12 2.0252915e-05)
(0.00088874061 4.9375696e-12 1.5554485e-05)
(0.00086240863 1.1194856e-11 1.1760869e-05)
(0.00084133726 1.4489604e-11 9.0281828e-06)
(0.00081715846 1.4966223e-11 8.4321459e-06)
(0.0009733177 -5.5445379e-05 4.6074971e-05)
(0.0009925709 -5.9929591e-05 5.9173806e-05)
(0.0009749594 -5.5826407e-05 5.8377549e-05)
(0.00094990962 -4.8088483e-05 5.3381842e-05)
(0.00092713938 -3.9058413e-05 4.6209988e-05)
(0.00090758918 -3.0573106e-05 3.7825646e-05)
(0.00089270853 -2.3415823e-05 2.8770239e-05)
(0.00088495876 -1.7784778e-05 1.8966743e-05)
(0.00088751484 -1.3870028e-05 8.1142816e-06)
(0.00090402874 -1.1457994e-05 -3.3637584e-06)
(0.00093532498 -9.4237284e-06 -1.3698891e-05)
(0.00098190551 -7.0004458e-06 -2.0234026e-05)
(0.0010413647 -4.0271339e-06 -1.8529907e-05)
(0.0010967742 -7.7721284e-07 -4.3299726e-07)
(0.001134405 2.0906773e-06 1.9010539e-05)
(0.0011515613 4.3926192e-06 3.3471386e-05)
(0.0011504388 5.4611854e-06 4.297202e-05)
(0.0011336677 5.2671727e-06 4.8920922e-05)
(0.0011024517 4.6844012e-06 5.1262519e-05)
(0.0010613101 4.2213511e-06 5.0076492e-05)
(0.0010152846 3.936877e-06 4.6309047e-05)
(0.00096817506 3.6867055e-06 4.0975375e-05)
(0.0009225634 3.317435e-06 3.4869593e-05)
(0.00088026229 2.7298696e-06 2.8587734e-05)
(0.00084249532 1.9027719e-06 2.2552598e-05)
(0.00080995635 8.9787786e-07 1.7104777e-05)
(0.0007827776 -1.9413774e-07 1.2525322e-05)
(0.00076093151 -1.3241404e-06 9.0120195e-06)
(0.00074391024 -2.483474e-06 6.6014495e-06)
(0.00072408246 -4.0006323e-06 6.1063281e-06)
(0.00091119457 -5.8822934e-05 4.1808203e-05)
(0.00088230546 -6.2087226e-05 4.8936839e-05)
(0.00078428897 -5.3612151e-05 4.535282e-05)
(0.00070006251 -4.3184502e-05 3.8251149e-05)
(0.00063598281 -3.3136075e-05 2.984293e-05)
(0.00058841216 -2.4825968e-05 2.1336311e-05)
(0.00055578883 -1.8637941e-05 1.3069215e-05)
(0.00053782114 -1.4405229e-05 4.7911437e-06)
(0.00053427734 -1.1837087e-05 -3.5116885e-06)
(0.00054402349 -1.0238814e-05 -1.1012526e-05)
(0.00056673724 -8.5516991e-06 -1.6353042e-05)
(0.00060158446 -6.1902534e-06 -1.719476e-05)
(0.00064556908 -2.8619e-06 -9.9996312e-06)
(0.00068142958 6.776758e-07 1.1562139e-05)
(0.00069829228 3.7308636e-06 2.8962387e-05)
(0.00069828795 5.7064394e-06 3.802813e-05)
(0.00068324896 6.1372084e-06 4.2085864e-05)
(0.00065477918 5.4711856e-06 4.3855809e-05)
(0.00061643716 4.6248912e-06 4.2335575e-05)
(0.00057428301 3.9441595e-06 3.7800683e-05)
(0.00053383493 3.3669679e-06 3.1699422e-05)
(0.00049822001 2.7351562e-06 2.5267033e-05)
(0.00046857234 1.9742588e-06 1.9260806e-05)
(0.00044489819 1.1030835e-06 1.4039282e-05)
(0.00042662698 2.1055414e-07 9.7218103e-06)
(0.00041292506 -5.8657933e-07 6.3134432e-06)
(0.00040294377 -1.2196678e-06 3.7876284e-06)
(0.00039565431 -1.7157041e-06 2.1158112e-06)
(0.00039017823 -2.0607789e-06 1.1688407e-06)
(0.00038206353 -2.9525723e-06 1.1450063e-06)
(0.00094625493 6.2092952e-05 4.7753068e-05)
(0.00094094978 6.9456988e-05 6.1105164e-05)
(0.00089232817 6.1444096e-05 6.200527e-05)
(0.00084630179 5.1755431e-05 5.4764546e-05)
(0.0008106883 4.2240149e-05 4.2144533e-05)
(0.00078371442 3.3795413e-05 2.5948361e-05)
(0.00076502308 2.6987579e-05 6.8527442e-06)
(0.0007555498 2.1661188e-05 -1.5261015e-05)
(0.00075661879 1.6987141e-05 -4.0329602e-05)
(0.00077104506 1.2399255e-05 -6.7909414e-05)
(0.00080222456 7.7916538e-06 -9.6648726e-05)
(0.00085375227 3.4595576e-06 -0.00012222186)
(0.0009295497 4.5974855e-07 -0.00013286869)
(0.00098836281 2.505417e-06 -9.2716859e-05)
(0.0010070027 4.5770862e-06 -4.6505304e-05)
(0.0010042263 5.6321729e-06 -3.3754673e-06)
(0.00098886761 5.9822634e-06 3.5907581e-05)
(0.00095839172 6.0540729e-06 7.1123502e-05)
(0.00091373075 5.7258816e-06 9.0435849e-05)
(0.00086395198 4.9834295e-06 9.5095407e-05)
(0.00081644526 3.9692132e-06 8.9866913e-05)
(0.00077458585 2.937697e-06 7.9098551e-05)
(0.00073945505 2.0590727e-06 6.5921437e-05)
(0.00071100168 1.4369165e-06 5.2390005e-05)
(0.00068862762 1.0733413e-06 3.9773824e-05)
(0.00067144986 9.4965478e-07 2.8779773e-05)
(0.00065849783 1.0626552e-06 1.9733182e-05)
(0.00064881724 1.414779e-06 1.2858299e-05)
(0.00064138594 2.0248315e-06 8.3415648e-06)
(0.00063115542 3.7923737e-06 6.0588521e-06)
(0.001016867 5.8984739e-05 5.3048613e-05)
(0.0010677012 6.6165111e-05 7.1699187e-05)
(0.0011133536 6.1449549e-05 7.5171366e-05)
(0.001149452 5.465972e-05 7.1546454e-05)
(0.0011791268 4.701394e-05 6.2472652e-05)
(0.0012048263 3.956121e-05 4.8798743e-05)
(0.0012287593 3.3061414e-05 3.0816197e-05)
(0.0012538149 2.7670994e-05 8.0359098e-06)
(0.001283158 2.2709049e-05 -2.0422878e-05)
(0.0013194307 1.760015e-05 -5.4695863e-05)
(0.001367947 1.2390562e-05 -9.401453e-05)
(0.0014341104 7.1340501e-06 -0.00013479897)
(0.0015241018 3.1139968e-06 -0.00016466569)
(0.0016072454 2.5882062e-06 -0.00014443974)
(0.00165856 3.7074962e-06 -0.00010782055)
(0.0016899411 4.5163683e-06 -6.6540246e-05)
(0.0017064852 4.7643365e-06 -2.3496623e-05)
(0.0017042904 4.5654852e-06 2.0538371e-05)
(0.0016831755 4.2394775e-06 5.4757801e-05)
(0.0016489131 3.670483e-06 7.7166671e-05)
(0.0016076276 2.8360692e-06 8.9798694e-05)
(0.0015630928 1.878922e-06 9.4961082e-05)
(0.0015176507 9.4360558e-07 9.4521743e-05)
(0.0014729554 1.7542744e-07 8.9914378e-05)
(0.001430309 -3.0991572e-07 8.2292997e-05)
(0.0013907688 -4.4955384e-07 7.2679999e-05)
(0.0013551721 -2.0635331e-07 6.2116567e-05)
(0.0013242008 4.7302478e-07 5.1654468e-05)
(0.0012982897 1.7508523e-06 4.2290887e-05)
(0.0012694781 4.1822159e-06 3.5135043e-05)
(0.0010224609 2.3855979e-13 5.3752077e-05)
(0.0010876897 9.1217397e-13 7.3198185e-05)
(0.0011536381 2.3430471e-12 7.7445273e-05)
(0.0012101331 4.7781059e-12 7.4784775e-05)
(0.0012584684 8.1276539e-12 6.6735929e-05)
(0.0013006985 1.1809359e-11 5.4064566e-05)
(0.0013388888 1.4835221e-11 3.7044313e-05)
(0.0013756558 1.6151769e-11 1.5266552e-05)
(0.001414767 1.5049874e-11 -1.2343127e-05)
(0.0014579691 1.147959e-11 -4.606658e-05)
(0.0015106399 6.2026366e-12 -8.5095451e-05)
(0.0015780899 3.04163e-13 -0.00012629439)
(0.0016664078 -5.183654e-12 -0.00015863521)
(0.0017489691 -9.4298211e-12 -0.00014538383)
(0.0018030377 -1.24884e-11 -0.00011573582)
(0.0018397437 -1.4804644e-11 -7.9833158e-05)
(0.0018648704 -1.6759686e-11 -4.0212458e-05)
(0.0018720914 -1.8731028e-11 1.4146422e-06)
(0.0018612964 -2.1653941e-11 3.5008571e-05)
(0.0018371519 -2.6225573e-11 5.8661871e-05)
(0.0018046166 -3.2917826e-11 7.4137373e-05)
(0.0017667055 -4.1862576e-11 8.326971e-05)
(0.0017253411 -5.2522718e-11 8.7420244e-05)
(0.0016820595 -6.2233424e-11 8.7550318e-05)
(0.0016382295 -6.3098636e-11 8.4404769e-05)
(0.0015952578 -5.8008301e-11 7.8656073e-05)
(0.0015545796 -4.873966e-11 7.1028382e-05)
(0.0015175894 -3.8678164e-11 6.2383234e-05)
(0.0014855748 -2.8757322e-11 5.3766434e-05)
(0.0014499181 -2.144671e-11 4.657647e-05)
(0.001016867 -5.8984739e-05 5.3048613e-05)
(0.0010677012 -6.616511e-05 7.1699187e-05)
(0.0011133536 -6.1449546e-05 7.5171366e-05)
(0.001149452 -5.4659714e-05 7.1546453e-05)
(0.0011791268 -4.7013931e-05 6.2472652e-05)
(0.0012048263 -3.9561196e-05 4.8798743e-05)
(0.0012287594 -3.3061396e-05 3.0816197e-05)
(0.001253815 -2.7670973e-05 8.0359109e-06)
(0.001283158 -2.270903e-05 -2.0422876e-05)
(0.0013194307 -1.7600135e-05 -5.4695859e-05)
(0.001367947 -1.2390554e-05 -9.4014524e-05)
(0.0014341104 -7.1340506e-06 -0.00013479896)
(0.0015241018 -3.1140049e-06 -0.00016466567)
(0.0016072455 -2.5882192e-06 -0.00014443973)
(0.00165856 -3.7075124e-06 -0.00010782053)
(0.0016899411 -4.5163864e-06 -6.6540235e-05)
(0.0017064852 -4.7643557e-06 -2.3496614e-05)
(0.0017042904 -4.5655056e-06 2.0538379e-05)
(0.0016831755 -4.2395003e-06 5.4757805e-05)
(0.0016489131 -3.6705101e-06 7.7166672e-05)
(0.0016076276 -2.8361035e-06 8.979869e-05)
(0.0015630927 -1.8789664e-06 9.4961073e-05)
(0.0015176506 -9.4366259e-07 9.452173e-05)
(0.0014729553 -1.7549684e-07 8.9914363e-05)
(0.0014303089 3.0983845e-07 8.2292983e-05)
(0.0013907686 4.4947683e-07 7.2679991e-05)
(0.001355172 2.0628547e-07 6.2116568e-05)
(0.0013242006 -4.7307763e-07 5.1654476e-05)
(0.0012982895 -1.7508891e-06 4.2290901e-05)
(0.001269478 -4.1822401e-06 3.513506e-05)
(0.00094625493 -6.2092952e-05 4.7753068e-05)
(0.00094094978 -6.9456988e-05 6.1105164e-05)
(0.00089232817 -6.1444095e-05 6.200527e-05)
(0.00084630179 -5.175543e-05 5.4764546e-05)
(0.00081068831 -4.2240147e-05 4.2144533e-05)
(0.00078371444 -3.379541e-05 2.5948361e-05)
(0.0007650231 -2.6987576e-05 6.8527451e-06)
(0.00075554983 -2.1661184e-05 -1.5261013e-05)
(0.00075661883 -1.6987138e-05 -4.0329599e-05)
(0.00077104511 -1.2399254e-05 -6.7909409e-05)
(0.00080222462 -7.7916545e-06 -9.664872e-05)
(0.00085375231 -3.4595603e-06 -0.00012222186)
(0.00092954974 -4.5975211e-07 -0.00013286868)
(0.00098836284 -2.5054201e-06 -9.2716849e-05)
(0.0010070027 -4.5770887e-06 -4.6505294e-05)
(0.0010042263 -5.632175e-06 -3.3754576e-06)
(0.00098886762 -5.982265e-06 3.5907589e-05)
(0.00095839172 -6.0540744e-06 7.1123508e-05)
(0.00091373075 -5.7258831e-06 9.0435851e-05)
(0.00086395198 -4.9834316e-06 9.5095405e-05)
(0.00081644525 -3.9692164e-06 8.9866908e-05)
(0.00077458584 -2.9377021e-06 7.9098544e-05)
(0.00073945503 -2.0590804e-06 6.5921428e-05)
(0.00071100165 -1.436928e-06 5.2389995e-05)
(0.00068862757 -1.0733598e-06 3.9773817e-05)
(0.00067144979 -9.4967396e-07 2.8779772e-05)
(0.00065849774 -1.0626702e-06 1.9733193e-05)
(0.00064881714 -1.414787e-06 1.2858322e-05)
(0.00064138583 -2.0248347e-06 8.3415937e-06)
(0.00063115531 -3.7923741e-06 6.0588807e-06)
(0.00094497574 6.2252274e-05 1.3646377e-05)
(0.00093838474 7.0100421e-05 2.2390345e-05)
(0.00089283106 6.2310216e-05 2.5060701e-05)
(0.00085101589 5.2792805e-05 2.2007953e-05)
(0.00081897093 4.3332546e-05 1.3592536e-05)
(0.00079388091 3.4656498e-05 6.5388605e-08)
(0.00077440599 2.7066207e-05 -1.8521561e-05)
(0.00076080694 2.0431092e-05 -4.2355876e-05)
(0.00075483319 1.4222249e-05 -7.2481531e-05)
(0.00076036849 7.4178638e-06 -0.00011027209)
(0.00078500763 -1.0590292e-06 -0.00015678469)
(0.00084106029 -1.0353966e-05 -0.00020588309)
(0.00095802559 -1.5316633e-05 -0.00022333596)
(0.0010565704 -4.4321463e-06 -6.8616183e-05)
(0.0010811844 4.8713728e-06 9.7605228e-07)
(0.0010820518 1.2163993e-05 5.1839444e-05)
(0.0010667811 1.7774239e-05 9.7396288e-05)
(0.0010223944 2.2565879e-05 0.00015195814)
(0.00095147038 2.3258791e-05 0.00017151002)
(0.00088341893 2.0631359e-05 0.00017030813)
(0.00082782236 1.6329687e-05 0.00015597897)
(0.00078549087 1.1666679e-05 0.0001350947)
(0.00075457228 7.3684723e-06 0.00011214967)
(0.00073282577 3.7619306e-06 8.9842487e-05)
(0.00071818095 9.6970186e-07 6.9697342e-05)
(0.00070882333 -9.4503819e-07 5.2307435e-05)
(0.00070332761 -1.839819e-06 3.7845964e-05)
(0.00069993225 -1.7322869e-06 2.6369766e-05)
(0.00069746663 -8.6558835e-07 1.7849735e-05)
(0.00069402573 8.8964013e-07 1.2095935e-05)
(0.0010161948 5.9264932e-05 1.5894191e-05)
(0.0010668457 6.7050956e-05 2.7808033e-05)
(0.0011173352 6.2539413e-05 3.3295088e-05)
(0.0011607808 5.5908847e-05 3.295192e-05)
(0.0011980255 4.831441e-05 2.6964598e-05)
(0.0012301012 4.0626616e-05 1.5183005e-05)
(0.0012580842 3.3318204e-05 -2.9387783e-06)
(0.0012832528 2.6435093e-05 -2.8198602e-05)
(0.0013075443 1.9708038e-05 -6.1869051e-05)
(0.001334715 1.2309971e-05 -0.00010649792)
(0.0013719935 3.1475413e-06 -0.00016485915)
(0.0014299471 -8.3767488e-06 -0.00023403374)
(0.0015396472 -1.6991039e-05 -0.00028159866)
(0.0016554587 -1.0446573e-05 -0.0001478219)
(0.0017083606 -1.5391951e-06 -8.1307974e-05)
(0.0017393427 6.6548127e-06 -2.9300356e-05)
(0.0017637237 1.4447419e-05 2.8143247e-05)
(0.0017569526 2.1063032e-05 9.6817847e-05)
(0.0017192425 2.463462e-05 0.00014089652)
(0.0016737127 2.4564173e-05 0.00016624595)
(0.0016306068 2.209754e-05 0.00017766759)
(0.0015920308 1.832025e-05 0.00017915102)
(0.0015578313 1.3996151e-05 0.00017361841)
(0.0015274114 9.6465199e-06 0.00016314544)
(0.0015001975 5.6552043e-06 0.00014923658)
(0.0014757008 2.3189928e-06 0.00013312898)
(0.0014534773 -6.7923141e-08 0.00011590522)
(0.0014338776 -1.2669131e-06 9.8501959e-05)
(0.0014172368 -1.170486e-06 8.1652719e-05)
(0.0013998085 4.5621147e-07 6.6352125e-05)
(0.0010219013 2.3274226e-13 1.6177751e-05)
(0.0010873675 9.2365418e-13 2.8583961e-05)
(0.0011587276 2.402439e-12 3.4649073e-05)
(0.0012233317 4.9079388e-12 3.5052582e-05)
(0.0012802095 8.327422e-12 2.998513e-05)
(0.001329977 1.2040931e-11 1.9287269e-05)
(0.0013735199 1.4985714e-11 2.3881848e-06)
(0.0014120013 1.5959096e-11 -2.1650212e-05)
(0.0014469753 1.4130894e-11 -5.382457e-05)
(0.0014816825 9.4163825e-12 -9.6405144e-05)
(0.0015225146 2.526904e-12 -0.00015225953)
(0.0015801829 -5.55787e-12 -0.0002198633)
(0.0016826457 -1.3309517e-11 -0.00026944999)
(0.00179337 -1.8280188e-11 -0.00014880386)
(0.0018470985 -2.1576705e-11 -9.2493745e-05)
(0.0018825525 -2.4825017e-11 -4.9613776e-05)
(0.0019136555 -2.8189731e-11 1.5487596e-06)
(0.001920918 -3.2548452e-11 6.5610303e-05)
(0.0018986098 -3.857847e-11 0.00010984948)
(0.0018677158 -4.6419667e-11 0.00013856661)
(0.0018368926 -5.606419e-11 0.0001557206)
(0.0018074334 -6.7196193e-11 0.00016438627)
(0.0017790071 -7.8533552e-11 0.00016662039)
(0.0017511892 -8.7431776e-11 0.00016377685)
(0.0017237716 -9.0394278e-11 0.00015682449)
(0.0016967668 -8.6479482e-11 0.00014655216)
(0.0016704747 -7.7373778e-11 0.0001336612)
(0.0016456489 -6.7990283e-11 0.0001188881)
(0.0016234443 -5.7450971e-11 0.00010296238)
(0.0015995138 -4.8443989e-11 8.7041298e-05)
(0.0010161948 -5.9264932e-05 1.5894191e-05)
(0.0010668457 -6.7050955e-05 2.7808033e-05)
(0.0011173352 -6.253941e-05 3.3295088e-05)
(0.0011607808 -5.5908841e-05 3.295192e-05)
(0.0011980255 -4.83144e-05 2.6964598e-05)
(0.0012301012 -4.0626602e-05 1.5183005e-05)
(0.0012580843 -3.3318185e-05 -2.9387779e-06)
(0.0012832528 -2.6435073e-05 -2.81986e-05)
(0.0013075443 -1.9708019e-05 -6.1869048e-05)
(0.0013347151 -1.2309959e-05 -0.00010649791)
(0.0013719935 -3.1475399e-06 -0.00016485914)
(0.0014299471 8.3767384e-06 -0.00023403373)
(0.0015396473 1.6991019e-05 -0.00028159864)
(0.0016554587 1.0446549e-05 -0.00014782189)
(0.0017083607 1.5391685e-06 -8.1307966e-05)
(0.0017393427 -6.6548419e-06 -2.930035e-05)
(0.0017637237 -1.4447452e-05 2.8143249e-05)
(0.0017569526 -2.1063068e-05 9.6817843e-05)
(0.0017192424 -2.4634662e-05 0.00014089651)
(0.0016737127 -2.4564223e-05 0.00016624593)
(0.0016306067 -2.2097599e-05 0.00017766756)
(0.0015920307 -1.8320322e-05 0.00017915098)
(0.0015578312 -1.3996237e-05 0.00017361836)
(0.0015274112 -9.646622e-06 0.00016314538)
(0.0015001973 -5.6553194e-06 0.00014923651)
(0.0014757006 -2.3191135e-06 0.00013312891)
(0.0014534771 6.7810201e-08 0.00011590514)
(0.0014338774 1.266818e-06 9.850189e-05)
(0.0014172367 1.1704111e-06 8.1652658e-05)
(0.0013998083 -4.5627067e-07 6.6352074e-05)
(0.00094497574 -6.2252274e-05 1.3646377e-05)
(0.00093838474 -7.010042e-05 2.2390345e-05)
(0.00089283107 -6.2310215e-05 2.5060701e-05)
(0.00085101589 -5.2792804e-05 2.2007953e-05)
(0.00081897094 -4.3332544e-05 1.3592535e-05)
(0.00079388093 -3.4656495e-05 6.538856e-08)
(0.00077440601 -2.7066203e-05 -1.852156e-05)
(0.00076080697 -2.0431088e-05 -4.2355874e-05)
(0.00075483323 -1.4222247e-05 -7.2481527e-05)
(0.00076036854 -7.4178642e-06 -0.00011027208)
(0.00078500768 1.0590254e-06 -0.00015678468)
(0.00084106033 1.0353959e-05 -0.00020588308)
(0.00095802563 1.5316626e-05 -0.00022333595)
(0.0010565705 4.432141e-06 -6.8616173e-05)
(0.0010811844 -4.8713769e-06 9.7605939e-07)
(0.0010820518 -1.2163996e-05 5.1839447e-05)
(0.0010667811 -1.7774242e-05 9.7396287e-05)
(0.0010223944 -2.2565883e-05 0.00015195813)
(0.00095147036 -2.3258795e-05 0.00017151001)
(0.00088341891 -2.0631364e-05 0.0001703081)
(0.00082782234 -1.6329694e-05 0.00015597893)
(0.00078549084 -1.1666689e-05 0.00013509465)
(0.00075457224 -7.3684871e-06 0.00011214962)
(0.00073282572 -3.7619537e-06 8.9842432e-05)
(0.00071818088 -9.6973416e-07 6.9697286e-05)
(0.00070882323 9.4500207e-07 5.230738e-05)
(0.00070332747 1.8397893e-06 3.7845917e-05)
(0.00069993211 1.7322703e-06 2.636973e-05)
(0.00069746649 8.6558117e-07 1.7849712e-05)
(0.00069402559 -8.896433e-07 1.2095922e-05)
(0.00094241978 6.2404381e-05 9.3329561e-06)
(0.00092935603 7.0391303e-05 1.5387924e-05)
(0.00087844768 6.2461817e-05 1.6912976e-05)
(0.00083277634 5.2708482e-05 1.4142719e-05)
(0.00079745898 4.3029263e-05 6.9928968e-06)
(0.00076834645 3.4203995e-05 -5.0310006e-06)
(0.00074336643 2.6549174e-05 -2.3245803e-05)
(0.00072225562 1.9558661e-05 -5.0016774e-05)
(0.00070634329 1.2005451e-05 -8.9209472e-05)
(0.00069936069 1.8917824e-06 -0.00014761519)
(0.00071569034 -1.2600923e-05 -0.00023726177)
(0.00077067093 -2.998215e-05 -0.00036989246)
(0.00091663541 -2.8999542e-05 -0.00051670722)
(0.00096840743 3.6135121e-05 -0.00025093148)
(0.00078380571 4.6772908e-05 -0.00010424367)
(0.00074322921 4.2631352e-05 -1.9819257e-05)
(0.00074987005 4.3744276e-05 5.8944486e-05)
(0.00074267397 4.901533e-05 0.00021102353)
(0.00066626195 4.4415891e-05 0.00022928535)
(0.00062717426 3.5528859e-05 0.0002170435)
(0.00060771461 2.5420941e-05 0.0001829329)
(0.00060321078 1.6201111e-05 0.00014672555)
(0.00060789151 8.4477763e-06 0.00011409053)
(0.00061781585 2.3159124e-06 8.6591647e-05)
(0.00063052585 -2.2562183e-06 6.4391104e-05)
(0.00064494387 -5.0426149e-06 4.7095239e-05)
(0.00065882213 -6.0005549e-06 3.3856542e-05)
(0.00067103235 -5.682238e-06 2.3951817e-05)
(0.00068109155 -4.7023403e-06 1.6709519e-05)
(0.00069262804 -4.0317632e-06 1.1141059e-05)
(0.0010136019 5.9282801e-05 1.0622153e-05)
(0.0010573601 6.7326477e-05 1.8554847e-05)
(0.0011021199 6.2742633e-05 2.1899966e-05)
(0.001141592 5.5916428e-05 2.0876882e-05)
(0.0011755533 4.8119424e-05 1.5345549e-05)
(0.0012036475 4.025789e-05 4.5645359e-06)
(0.0012255585 3.279833e-05 -1.3045479e-05)
(0.0012417383 2.5462345e-05 -4.042429e-05)
(0.0012532453 1.7376144e-05 -8.2748106e-05)
(0.0012629876 6.7211473e-06 -0.00014880669)
(0.0012781244 -8.9859079e-06 -0.00025338151)
(0.0013158952 -3.2123901e-05 -0.00041751135)
(0.0014142655 -4.2880347e-05 -0.00064203345)
(0.0014797268 2.6670255e-05 -0.00040816662)
(0.0012763389 5.059089e-05 -0.0002530551)
(0.001215114 4.9727351e-05 -0.00015067514)
(0.0012119853 5.0897757e-05 -4.1325914e-05)
(0.0012322568 5.6612737e-05 0.00014662712)
(0.001195333 5.6492555e-05 0.00020719395)
(0.0011855792 4.9793471e-05 0.00023309044)
(0.0011925685 4.0450666e-05 0.00023113973)
(0.0012092208 3.0559774e-05 0.00021670346)
(0.0012300699 2.1086058e-05 0.00019775642)
(0.0012518811 1.2549449e-05 0.00017769638)
(0.0012727983 5.2509776e-06 0.000157813)
(0.0012912999 -4.2877234e-07 0.00013845704)
(0.0013074552 -4.2276956e-06 0.00011983319)
(0.0013212681 -6.2480819e-06 0.00010198721)
(0.0013329171 -6.8921568e-06 8.484349e-05)
(0.0013465026 -6.6658726e-06 6.8313556e-05)
(0.0010193145 2.1966601e-13 1.091556e-05)
(0.0010779488 8.8149143e-13 1.9211033e-05)
(0.0011437701 2.310664e-12 2.2950968e-05)
(0.0012046604 4.736687e-12 2.2441494e-05)
(0.0012585441 8.0272212e-12 1.7579204e-05)
(0.0013047403 1.153106e-11 7.6579676e-06)
(0.0013426525 1.4157156e-11 -8.8485233e-06)
(0.0013725791 1.4670753e-11 -3.4798473e-05)
(0.0013953356 1.2168691e-11 -7.5250869e-05)
(0.0014130924 6.4557426e-12 -0.00013884068)
(0.0014323704 -2.0760528e-12 -0.00024120551)
(0.0014694488 -1.3059677e-11 -0.00040590652)
(0.001546907 -2.2944828e-11 -0.00064465473)
(0.0016051721 -2.4456418e-11 -0.00042846547)
(0.0014055708 -2.6187778e-11 -0.00028386618)
(0.0013434408 -2.9655671e-11 -0.00018782151)
(0.0013387271 -3.5895814e-11 -8.0902813e-05)
(0.0013610754 -5.1215051e-11 0.00010320781)
(0.0013363968 -6.9907633e-11 0.00016985521)
(0.0013373678 -8.8377253e-11 0.00020536897)
(0.0013544255 -1.0463422e-10 0.00021471975)
(0.001379413 -1.1680085e-10 0.00021109793)
(0.0014063922 -1.2306266e-10 0.00020169585)
(0.0014321155 -1.2180594e-10 0.00018946454)
(0.0014550167 -1.128194e-10 0.00017561723)
(0.0014742949 -9.9722423e-11 0.0001606155)
(0.0014898247 -8.2341645e-11 0.00014464514)
(0.0015022093 -6.4495872e-11 0.00012784221)
(0.001512098 -4.902527e-11 0.00011022335)
(0.0015233655 -3.8435582e-11 9.1838623e-05)
(0.0010136019 -5.9282801e-05 1.0622153e-05)
(0.0010573601 -6.7326477e-05 1.8554847e-05)
(0.0011021199 -6.274263e-05 2.1899966e-05)
(0.001141592 -5.5916423e-05 2.0876881e-05)
(0.0011755533 -4.8119415e-05 1.5345548e-05)
(0.0012036476 -4.0257876e-05 4.5645353e-06)
(0.0012255585 -3.2798313e-05 -1.3045479e-05)
(0.0012417383 -2.5462326e-05 -4.0424289e-05)
(0.0012532453 -1.7376128e-05 -8.2748103e-05)
(0.0012629877 -6.7211398e-06 -0.00014880669)
(0.0012781245 8.9859026e-06 -0.0002533815)
(0.0013158952 3.2123881e-05 -0.00041751134)
(0.0014142655 4.2880318e-05 -0.00064203345)
(0.0014797269 -2.6670282e-05 -0.00040816662)
(0.0012763389 -5.0590919e-05 -0.0002530551)
(0.001215114 -4.9727382e-05 -0.00015067514)
(0.0012119853 -5.0897794e-05 -4.1325918e-05)
(0.0012322568 -5.6612789e-05 0.00014662711)
(0.0011953329 -5.6492625e-05 0.00020719393)
(0.001185579 -4.9793557e-05 0.00023309041)
(0.0011925683 -4.0450766e-05 0.00023113967)
(0.0012092207 -3.0559886e-05 0.00021670338)
(0.0012300697 -2.1086179e-05 0.00019775632)
(0.0012518809 -1.2549577e-05 0.00017769626)
(0.0012727981 -5.2511048e-06 0.00015781286)
(0.0012912998 4.2865635e-07 0.00013845689)
(0.001307455 4.2276003e-06 0.00011983303)
(0.0013212679 6.2480093e-06 0.00010198706)
(0.001332917 6.8921037e-06 8.4843356e-05)
(0.0013465025 6.665833e-06 6.8313441e-05)
(0.00094241978 -6.2404381e-05 9.3329561e-06)
(0.00092935603 -7.0391303e-05 1.5387924e-05)
(0.00087844768 -6.2461816e-05 1.6912976e-05)
(0.00083277634 -5.2708481e-05 1.4142719e-05)
(0.00079745898 -4.3029261e-05 6.9928962e-06)
(0.00076834647 -3.4203992e-05 -5.031001e-06)
(0.00074336646 -2.654917e-05 -2.3245802e-05)
(0.00072225565 -1.9558658e-05 -5.0016772e-05)
(0.00070634333 -1.2005449e-05 -8.9209468e-05)
(0.00069936074 -1.8917842e-06 -0.00014761518)
(0.00071569039 1.2600917e-05 -0.00023726176)
(0.00077067097 2.9982141e-05 -0.00036989245)
(0.00091663544 2.8999535e-05 -0.00051670721)
(0.00096840745 -3.6135125e-05 -0.00025093148)
(0.00078380572 -4.6772913e-05 -0.00010424367)
(0.0007432292 -4.2631355e-05 -1.9819261e-05)
(0.00074987003 -4.3744279e-05 5.8944478e-05)
(0.00074267393 -4.9015335e-05 0.00021102351)
(0.00066626189 -4.4415896e-05 0.00022928531)
(0.00062717419 -3.5528864e-05 0.00021704345)
(0.00060771454 -2.5420945e-05 0.00018293283)
(0.00060321072 -1.6201117e-05 0.00014672546)
(0.00060789145 -8.447787e-06 0.00011409043)
(0.00061781578 -2.3159309e-06 8.6591541e-05)
(0.00063052577 2.2561941e-06 6.4390992e-05)
(0.00064494377 5.042595e-06 4.7095126e-05)
(0.00065882203 6.0005421e-06 3.3856433e-05)
(0.00067103224 5.6822307e-06 2.395172e-05)
(0.00068109144 4.7023364e-06 1.6709441e-05)
(0.00069262793 4.031761e-06 1.1141003e-05)
(0.00094160514 6.2498739e-05 5.0005915e-07)
(0.00092599968 7.0565198e-05 7.3479493e-07)
(0.00087144965 6.2680435e-05 8.3813818e-08)
(0.00082128554 5.2928258e-05 -1.8418051e-06)
(0.00078024117 4.3216672e-05 -5.52995e-06)
(0.00074304485 3.4155807e-05 -1.1579033e-05)
(0.00070502002 2.5952494e-05 -2.1309363e-05)
(0.000662096 1.7566166e-05 -3.7246961e-05)
(0.00060898903 6.2797844e-06 -6.4135037e-05)
(0.00054023062 -1.2423111e-05 -0.00011182555)
(0.00045065792 -4.4477328e-05 -0.0002004755)
(0.0003104246 -9.2876761e-05 -0.00035654392)
(0.00013765959 -0.0001297673 -0.00049035212)
(5.7362254e-05 6.8367338e-05 0.00018909407)
(8.5238531e-05 4.7112997e-05 0.00017533578)
(0.00020950348 2.903766e-05 0.00014866681)
(0.00028329264 1.1250696e-05 0.00011071422)
(0.00036136413 -2.437674e-06 8.090711e-05)
(0.00042985202 -1.0926929e-05 5.8802503e-05)
(0.00048861142 -1.5190366e-05 4.2292723e-05)
(0.00053837178 -1.6572965e-05 2.9930121e-05)
(0.00057986265 -1.601209e-05 2.0842116e-05)
(0.00061382921 -1.4260423e-05 1.4358807e-05)
(0.00064108928 -1.207864e-05 9.8432315e-06)
(0.0006621799 -1.0014471e-05 6.7935106e-06)
(0.00068917359 -1.011909e-05 4.3981047e-06)
(0.0010127521 5.9381788e-05 7.1127474e-07)
(0.0010538295 6.7589e-05 1.2712446e-06)
(0.001094781 6.3123462e-05 9.7916031e-07)
(0.0011295146 5.6332298e-05 -5.9800644e-07)
(0.0011573082 4.8474433e-05 -3.969332e-06)
(0.0011766906 4.0304638e-05 -9.867132e-06)
(0.001184922 3.220866e-05 -1.9581486e-05)
(0.0011776296 2.3374888e-05 -3.5834066e-05)
(0.0011477261 1.1413003e-05 -6.4106038e-05)
(0.0010809457 -8.4743443e-06 -0.00011570257)
(0.00095526788 -4.4461169e-05 -0.00021496721)
(0.00070398821 -0.00010709684 -0.00040609382)
(0.00034056641 -0.00017909685 -0.0006369509)
(0.00013394335 9.6142674e-05 0.00024935662)
(0.00022874035 7.1663928e-05 0.00023534184)
(0.00044080387 4.7830432e-05 0.00021562979)
(0.00058283496 2.7267357e-05 0.00018426102)
(0.00071351616 9.3690956e-06 0.00015519801)
(0.0008256764 -3.5852492e-06 0.00013066608)
(0.00092066956 -1.2228931e-05 0.00011038379)
(0.0010015796 -1.7494621e-05 9.3530185e-05)
(0.0010708232 -2.0094854e-05 7.9193406e-05)
(0.0011300867 -2.0652401e-05 6.6623763e-05)
(0.0011803514 -1.9860412e-05 5.5384333e-05)
(0.0012217956 -1.8601738e-05 4.5177629e-05)
(0.0012693362 -1.8231122e-05 3.5617795e-05)
(0.0010184602 1.9652493e-13 7.334042e-07)
(0.0010744501 7.9010386e-13 1.3529679e-06)
(0.0011365829 2.0804074e-12 1.1555809e-06)
(0.0011929004 4.2888926e-12 -2.7685645e-07)
(0.001240783 7.2973121e-12 -3.4423129e-06)
(0.00127845 1.0482827e-11 -9.0734985e-06)
(0.0013029974 1.2725547e-11 -1.8362019e-05)
(0.0013097776 1.2682926e-11 -3.3912078e-05)
(0.0012910075 9.1937498e-12 -6.0972957e-05)
(0.0012312885 1.5459108e-12 -0.00011054084)