/*--------------------------------*- C++ -*----------------------------------*\
| =========                 |                                                 |
| \\      /  F ield         | OpenFOAM: The Open Source CFD Toolbox           |
|  \\    /   O peration     | Version:  2412                                  |
|   \\  /    A nd           | Website:  www.openfoam.com                      |
|    \\/     M anipulation  |                                                 |
\*---------------------------------------------------------------------------*/
FoamFile
{
    version     2.0;
    format      ascii;
    arch        "LSB;label=32;scalar=64";
    class       volScalarField;
    location    "30/leftSolid";
    object      T;
}
// * * * * * * * * * * * * * * * * * * * * * * * * * * * * * * * * * * * * * //

dimensions      [0 0 0 1 0 0 0];

internalField   nonuniform List<scalar> 
130
(
300.00002
300.00002
300.00004
300.00007
300.00013
300.00022
300.00037
300.0006
300.00091
300.00133
300.00183
300.00234
300.00277
300.00002
300.00003
300.00005
300.0001
300.00017
300.00031
300.00053
300.00088
300.0014
300.00213
300.00307
300.00412
300.00503
300.00003
300.00004
300.00007
300.00014
300.00025
300.00046
300.00083
300.00143
300.0024
300.00386
300.00594
300.0086
300.01133
300.00003
300.00005
300.00009
300.00018
300.00035
300.00065
300.0012
300.00215
300.00378
300.00647
300.01076
300.0172
300.02569
300.00004
300.00006
300.00011
300.00021
300.00041
300.00079
300.00147
300.00272
300.00495
300.00891
300.01591
300.02832
300.04987
300.00004
300.00006
300.00011
300.00021
300.00041
300.00079
300.00147
300.00272
300.00495
300.00891
300.01591
300.02832
300.04987
300.00003
300.00005
300.00009
300.00018
300.00035
300.00065
300.0012
300.00215
300.00378
300.00647
300.01076
300.0172
300.02569
300.00003
300.00004
300.00007
300.00014
300.00025
300.00046
300.00083
300.00143
300.0024
300.00386
300.00594
300.0086
300.01133
300.00002
300.00003
300.00005
300.0001
300.00017
300.00031
300.00053
300.00088
300.0014
300.00213
300.00307
300.00412
300.00503
300.00002
300.00002
300.00004
300.00007
300.00013
300.00022
300.00037
300.0006
300.00091
300.00133
300.00183
300.00234
300.00277
)
;

boundaryField
{
    minX
    {
        type            zeroGradient;
    }
    minZ
    {
        type            zeroGradient;
    }
    maxZ
    {
        type            zeroGradient;
    }
    leftSolid_to_bottomWater
    {
        type            compressible::turbulentTemperatureRadCoupledMixed;
        refValue        nonuniform List<scalar> 
130
(
300
300
300
300
300
300
300
300.00001
300.00001
300.00002
300.00003
300.00006
300.00125
300
300
300
300
300
300
300.00001
300.00001
300.00002
300.00004
300.00007
300.00032
300.00744
300
300
300
300
300
300.00001
300.00001
300.00002
300.00004
300.00008
300.00018
300.00313
300.0965
300
300
300
300
300.00001
300.00001
300.00002
300.00004
300.00007
300.00014
300.00058
300.02014
300.7474
300
300
300
300
300.00001
300.00001
300.00002
300.00005
300.0001
300.00021
300.00158
300.07633
303.67191
300
300
300
300
300.00001
300.00001
300.00002
300.00005
300.0001
300.00021
300.00158
300.07633
303.6719
300
300
300
300
300
300.00001
300.00002
300.00004
300.00007
300.00014
300.00058
300.02014
300.7474
300
300
300
300
300
300.00001
300.00001
300.00002
300.00004
300.00008
300.00018
300.00313
300.0965
300
300
300
300
300
300
300.00001
300.00001
300.00002
300.00004
300.00007
300.00032
300.00744
300
300
300
300
300
300
300
300.00001
300.00001
300.00002
300.00003
300.00006
300.00125
)
;
        refGradient     uniform 0;
        valueFraction   uniform 0.0075140686;
        source          uniform 0;
        logInterval     -1;
        writePrecision  8;
        updateHeader    1;
        writeToFile     0;
        useUserTime     1;
        kappaMethod     solidThermo;
        value           nonuniform List<scalar> 
130
(
300.00002
300.00002
300.00004
300.00007
300.00013
300.00022
300.00037
300.00059
300.0009
300.00131
300.00181
300.00232
300.00275
300.00002
300.00003
300.00005
300.00009
300.00017
300.0003
300.00052
300.00087
300.00138
300.0021
300.00303
300.00407
300.00503
300.00003
300.00004
300.00007
300.00013
300.00025
300.00046
300.00082
300.00141
300.00237
300.00382
300.00588
300.00853
300.01193
300.00003
300.00005
300.00009
300.00018
300.00034
300.00064
300.00118
300.00213
300.00374
300.0064
300.01065
300.01717
300.03105
300.00004
300.00006
300.00011
300.00021
300.00041
300.00078
300.00146
300.00269
300.0049
300.00882
300.01576
300.02862
300.07698
300.00004
300.00006
300.00011
300.00021
300.00041
300.00078
300.00146
300.00269
300.0049
300.00882
300.01576
300.02862
300.07698
300.00003
300.00005
300.00009
300.00018
300.00034
300.00064
300.00118
300.00213
300.00374
300.0064
300.01065
300.01717
300.03105
300.00003
300.00004
300.00007
300.00013
300.00025
300.00046
300.00082
300.00141
300.00237
300.00382
300.00588
300.00853
300.01193
300.00002
300.00003
300.00005
300.00009
300.00017
300.0003
300.00052
300.00087
300.00138
300.0021
300.00303
300.00407
300.00503
300.00002
300.00002
300.00004
300.00007
300.00013
300.00022
300.00037
300.00059
300.0009
300.00131
300.00181
300.00232
300.00275
)
;
    }
    leftSolid_to_heater
    {
        type            compressible::turbulentTemperatureRadCoupledMixed;
        refValue        nonuniform List<scalar> 10(304.72461 307.2632 313.13184 323.89958 341.67596 341.67601 323.89956 313.1318 307.26316 304.72455);
        refGradient     uniform 0;
        valueFraction   uniform 2.0832466e-05;
        source          uniform 0;
        logInterval     -1;
        thicknessLayers List<scalar> 1(0.001);
        kappaLayers     List<scalar> 1(0.0005);
        writePrecision  8;
        updateHeader    1;
        writeToFile     0;
        useUserTime     1;
        kappaMethod     solidThermo;
        value           nonuniform List<scalar> 10(300.00286 300.00517 300.01157 300.02612 300.05063 300.05063 300.02612 300.01157 300.00517 300.00286);
    }
    leftSolid_to_topAir
    {
        type            compressible::turbulentTemperatureRadCoupledMixed;
        refValue        nonuniform List<scalar> 
130
(
300
300
300
300
300.00001
300.00002
300.00003
300.00006
300.0001
300.00017
300.00027
300.00078
300.01148
300
300
300
300.00001
300.00001
300.00002
300.00005
300.00008
300.00014
300.00023
300.00037
300.00092
300.0127
300
300
300
300.00001
300.00002
300.00004
300.00007
300.00013
300.00023
300.00039
300.00066
300.00167
300.02218
300
300
300.00001
300.00001
300.00003
300.00005
300.0001
300.00019
300.00035
300.00063
300.00113
300.00305
300.04062
300
300
300.00001
300.00001
300.00003
300.00006
300.00013
300.00024
300.00045
300.00084
300.00159
300.00485
300.06957
300
300
300.00001
300.00001
300.00003
300.00006
300.00013
300.00024
300.00045
300.00084
300.00159
300.00485
300.06957
300
300
300.00001
300.00001
300.00003
300.00005
300.0001
300.00019
300.00035
300.00063
300.00113
300.00305
300.04062
300
300
300
300.00001
300.00002
300.00004
300.00007
300.00013
300.00023
300.00039
300.00066
300.00167
300.02218
300
300
300
300.00001
300.00001
300.00002
300.00005
300.00008
300.00014
300.00023
300.00037
300.00092
300.0127
300
300
300
300
300.00001
300.00002
300.00003
300.00006
300.0001
300.00017
300.00027
300.00078
300.01148
)
;
        refGradient     uniform 0;
        valueFraction   uniform 0.00032132529;
        source          uniform 0;
        logInterval     -1;
        writePrecision  8;
        updateHeader    1;
        writeToFile     0;
        useUserTime     1;
        kappaMethod     solidThermo;
        value           nonuniform List<scalar> 
130
(
300.00002
300.00002
300.00004
300.00007
300.00013
300.00022
300.00037
300.00059
300.00091
300.00132
300.00182
300.00233
300.00276
300.00002
300.00003
300.00005
300.00009
300.00017
300.00031
300.00053
300.00087
300.00139
300.00212
300.00305
300.0041
300.00502
300.00003
300.00004
300.00007
300.00013
300.00025
300.00046
300.00082
300.00142
300.00239
300.00385
300.00592
300.00857
300.0113
300.00003
300.00005
300.00009
300.00018
300.00034
300.00065
300.00119
300.00214
300.00376
300.00645
300.01072
300.01715
300.02563
300.00004
300.00006
300.00011
300.00021
300.00041
300.00078
300.00147
300.00271
300.00493
300.00888
300.01586
300.02825
300.04977
300.00004
300.00006
300.00011
300.00021
300.00041
300.00078
300.00147
300.00271
300.00493
300.00888
300.01586
300.02825
300.04977
300.00003
300.00005
300.00009
300.00018
300.00034
300.00065
300.00119
300.00214
300.00376
300.00645
300.01072
300.01715
300.02563
300.00003
300.00004
300.00007
300.00013
300.00025
300.00046
300.00082
300.00142
300.00239
300.00385
300.00592
300.00857
300.0113
300.00002
300.00003
300.00005
300.00009
300.00017
300.00031
300.00053
300.00087
300.00139
300.00212
300.00305
300.0041
300.00502
300.00002
300.00002
300.00004
300.00007
300.00013
300.00022
300.00037
300.00059
300.00091
300.00132
300.00182
300.00233
300.00276
)
;
    }
}


// ************************************************************************* //
