/*--------------------------------*- C++ -*----------------------------------*\
| =========                 |                                                 |
| \\      /  F ield         | OpenFOAM: The Open Source CFD Toolbox           |
|  \\    /   O peration     | Version:  2412                                  |
|   \\  /    A nd           | Website:  www.openfoam.com                      |
|    \\/     M anipulation  |                                                 |
\*---------------------------------------------------------------------------*/
FoamFile
{
    version     2.0;
    format      ascii;
    arch        "LSB;label=32;scalar=64";
    class       volScalarField;
    location    "90/leftSolid";
    object      T;
}
// * * * * * * * * * * * * * * * * * * * * * * * * * * * * * * * * * * * * * //

dimensions      [0 0 0 1 0 0 0];

internalField   nonuniform List<scalar> 
130
(
300.0105
300.01137
300.01313
300.01583
300.01953
300.02426
300.03006
300.03685
300.04447
300.05253
300.06045
300.06732
300.07208
300.01077
300.01169
300.01357
300.01648
300.0205
300.02574
300.03229
300.04019
300.04936
300.05952
300.07008
300.07991
300.08719
300.0112
300.01222
300.0143
300.01755
300.02213
300.02825
300.03613
300.04605
300.05821
300.0727
300.08921
300.10666
300.12203
300.01164
300.01275
300.01503
300.01865
300.02383
300.0309
300.04031
300.05264
300.06861
300.08912
300.1151
300.14712
300.18258
300.01191
300.01308
300.0155
300.01935
300.02492
300.03264
300.0431
300.05719
300.07616
300.10194
300.13758
300.18813
300.25874
300.01191
300.01308
300.0155
300.01935
300.02492
300.03264
300.0431
300.05719
300.07616
300.10194
300.13758
300.18813
300.25874
300.01164
300.01275
300.01503
300.01865
300.02383
300.0309
300.04031
300.05264
300.06861
300.08912
300.1151
300.14712
300.18258
300.0112
300.01222
300.0143
300.01755
300.02213
300.02825
300.03613
300.04605
300.05821
300.0727
300.08921
300.10666
300.12203
300.01077
300.01169
300.01357
300.01648
300.0205
300.02574
300.03229
300.04019
300.04936
300.05952
300.07008
300.07991
300.08719
300.0105
300.01137
300.01313
300.01583
300.01953
300.02426
300.03006
300.03685
300.04447
300.05253
300.06045
300.06732
300.07208
)
;

boundaryField
{
    minX
    {
        type            zeroGradient;
    }
    minZ
    {
        type            zeroGradient;
    }
    maxZ
    {
        type            zeroGradient;
    }
    leftSolid_to_bottomWater
    {
        type            compressible::turbulentTemperatureRadCoupledMixed;
        refValue        nonuniform List<scalar> 
130
(
300.00023
300.00043
300.00063
300.00086
300.00114
300.00151
300.00198
300.00257
300.00326
300.00406
300.00496
300.00718
300.04403
300.00024
300.00044
300.00064
300.00086
300.00114
300.0015
300.00198
300.00259
300.00335
300.0043
300.00568
300.01325
300.11073
300.00025
300.00046
300.00067
300.00092
300.00123
300.00165
300.00222
300.00298
300.00398
300.00535
300.00855
300.04925
300.67948
300.00026
300.00049
300.00072
300.00099
300.00135
300.00184
300.00252
300.00346
300.00478
300.00676
300.01461
300.16955
303.10935
300.00026
300.0005
300.00074
300.00103
300.00142
300.00196
300.00273
300.00383
300.00544
300.00811
300.02449
300.43139
310.45668
300.00026
300.0005
300.00074
300.00103
300.00142
300.00196
300.00273
300.00383
300.00544
300.00811
300.02449
300.43139
310.45667
300.00026
300.00049
300.00072
300.00099
300.00135
300.00184
300.00252
300.00346
300.00478
300.00676
300.01461
300.16955
303.10932
300.00025
300.00046
300.00067
300.00092
300.00123
300.00165
300.00222
300.00298
300.00398
300.00535
300.00855
300.04925
300.67946
300.00024
300.00044
300.00064
300.00086
300.00114
300.0015
300.00198
300.00259
300.00335
300.0043
300.00568
300.01325
300.11072
300.00023
300.00043
300.00063
300.00086
300.00114
300.00151
300.00198
300.00257
300.00327
300.00406
300.00496
300.00718
300.04402
)
;
        refGradient     uniform 0;
        valueFraction   uniform 0.0075140686;
        source          uniform 0;
        logInterval     -1;
        writePrecision  8;
        updateHeader    1;
        writeToFile     0;
        useUserTime     1;
        kappaMethod     solidThermo;
        value           nonuniform List<scalar> 
130
(
300.01042
300.01128
300.01303
300.01571
300.01937
300.02407
300.02983
300.03657
300.04413
300.05214
300.05999
300.06683
300.07184
300.01068
300.0116
300.01346
300.01635
300.02034
300.02554
300.03204
300.03988
300.04898
300.05908
300.06956
300.07937
300.08733
300.01111
300.01212
300.01418
300.01741
300.02196
300.02803
300.03586
300.0457
300.05778
300.07215
300.08856
300.10618
300.12618
300.01154
300.01264
300.01491
300.0185
300.02365
300.03066
300.04
300.05224
300.0681
300.08846
300.1143
300.14724
300.20452
300.01181
300.01297
300.01537
300.0192
300.02473
300.03239
300.04278
300.05676
300.07559
300.10119
300.13668
300.1899
300.33531
300.01181
300.01297
300.01537
300.0192
300.02473
300.03239
300.04277
300.05676
300.07559
300.10119
300.13668
300.1899
300.33531
300.01154
300.01264
300.01491
300.0185
300.02365
300.03066
300.04
300.05224
300.0681
300.08846
300.1143
300.14724
300.20452
300.01111
300.01212
300.01418
300.01741
300.02196
300.02803
300.03586
300.0457
300.05778
300.07215
300.08856
300.10618
300.12617
300.01068
300.0116
300.01346
300.01635
300.02034
300.02554
300.03204
300.03988
300.04898
300.05908
300.06956
300.07937
300.08733
300.01042
300.01128
300.01303
300.01571
300.01937
300.02407
300.02983
300.03657
300.04413
300.05214
300.05999
300.06683
300.07183
)
;
    }
    leftSolid_to_heater
    {
        type            compressible::turbulentTemperatureRadCoupledMixed;
        refValue        nonuniform List<scalar> 10(330.83305 334.63591 342.64876 355.64754 374.52724 374.52725 355.64754 342.64876 334.63591 330.83301);
        refGradient     uniform 0;
        valueFraction   uniform 2.0832466e-05;
        source          uniform 0;
        logInterval     -1;
        thicknessLayers List<scalar> 1(0.001);
        kappaLayers     List<scalar> 1(0.0005);
        writePrecision  8;
        updateHeader    1;
        writeToFile     0;
        useUserTime     1;
        kappaMethod     solidThermo;
        value           nonuniform List<scalar> 10(300.07269 300.08787 300.12287 300.18368 300.26023 300.26023 300.18368 300.12287 300.08787 300.07269);
    }
    leftSolid_to_topAir
    {
        type            compressible::turbulentTemperatureRadCoupledMixed;
        refValue        nonuniform List<scalar> 
130
(
300.00044
300.00091
300.00144
300.00208
300.00286
300.00384
300.00506
300.00656
300.00839
300.01054
300.01309
300.01829
300.0869
300.00045
300.00093
300.00147
300.0021
300.00288
300.00386
300.00508
300.00659
300.00845
300.01067
300.01332
300.018
300.07484
300.00047
300.00097
300.00154
300.00222
300.00306
300.00414
300.00551
300.00725
300.00945
300.01218
300.01557
300.02155
300.08916
300.00049
300.00101
300.00161
300.00233
300.00325
300.00444
300.00599
300.00801
300.01064
300.01407
300.01858
300.02686
300.11587
300.0005
300.00104
300.00165
300.00241
300.00337
300.00463
300.0063
300.00852
300.01148
300.01547
300.02097
300.0319
300.15088
300.0005
300.00104
300.00165
300.00241
300.00337
300.00463
300.0063
300.00852
300.01148
300.01547
300.02097
300.0319
300.15088
300.00049
300.00101
300.00161
300.00233
300.00325
300.00444
300.00599
300.00801
300.01064
300.01407
300.01858
300.02686
300.11587
300.00047
300.00097
300.00154
300.00222
300.00306
300.00414
300.00551
300.00725
300.00945
300.01218
300.01557
300.02155
300.08916
300.00045
300.00093
300.00147
300.0021
300.00288
300.00386
300.00508
300.00659
300.00845
300.01067
300.01332
300.018
300.07484
300.00044
300.00091
300.00144
300.00208
300.00286
300.00384
300.00506
300.00656
300.00839
300.01054
300.01309
300.01829
300.0869
)
;
        refGradient     uniform 0;
        valueFraction   uniform 0.00032132529;
        source          uniform 0;
        logInterval     -1;
        writePrecision  8;
        updateHeader    1;
        writeToFile     0;
        useUserTime     1;
        kappaMethod     solidThermo;
        value           nonuniform List<scalar> 
130
(
300.01049
300.01136
300.01312
300.01581
300.0195
300.02424
300.03003
300.03682
300.04443
300.05249
300.0604
300.06727
300.07205
300.01075
300.01168
300.01356
300.01646
300.02048
300.02572
300.03226
300.04015
300.04931
300.05947
300.07002
300.07985
300.08715
300.01119
300.0122
300.01428
300.01753
300.02211
300.02822
300.0361
300.04601
300.05817
300.07264
300.08914
300.10659
300.12198
300.01162
300.01273
300.01502
300.01863
300.02381
300.03087
300.04028
300.05259
300.06856
300.08906
300.11503
300.14703
300.1825
300.01189
300.01306
300.01548
300.01933
300.0249
300.03261
300.04307
300.05714
300.0761
300.10187
300.1375
300.18802
300.25864
300.01189
300.01306
300.01548
300.01933
300.0249
300.03261
300.04307
300.05714
300.0761
300.10187
300.1375
300.18802
300.25864
300.01162
300.01273
300.01502
300.01863
300.02381
300.03087
300.04028
300.05259
300.06856
300.08906
300.11503
300.14703
300.1825
300.01119
300.0122
300.01428
300.01753
300.02211
300.02822
300.0361
300.04601
300.05817
300.07264
300.08914
300.10659
300.12198
300.01075
300.01168
300.01356
300.01646
300.02048
300.02572
300.03226
300.04015
300.04931
300.05947
300.07002
300.07985
300.08715
300.01049
300.01136
300.01312
300.01581
300.0195
300.02424
300.03003
300.03682
300.04443
300.05249
300.0604
300.06727
300.07205
)
;
    }
}


// ************************************************************************* //
