/*--------------------------------*- C++ -*----------------------------------*\
| =========                 |                                                 |
| \\      /  F ield         | OpenFOAM: The Open Source CFD Toolbox           |
|  \\    /   O peration     | Version:  2412                                  |
|   \\  /    A nd           | Website:  www.openfoam.com                      |
|    \\/     M anipulation  |                                                 |
\*---------------------------------------------------------------------------*/
FoamFile
{
    version     2.0;
    format      ascii;
    arch        "LSB;label=32;scalar=64";
    class       volScalarField;
    location    "5/chip";
    object      T;
}
// * * * * * * * * * * * * * * * * * * * * * * * * * * * * * * * * * * * * * //

dimensions      [0 0 0 1 0 0 0];

internalField   nonuniform List<scalar> 
256
(
300.11
300.11
300.11
300.11
300.077
300.075
300.053
300.077
300.077
300.052
300.076
300.077
300.053
300.076
300.075
300.052
300.105
300.105
300.1
300.105
300.105
300.1
300.105
300.105
300.1
300.105
300.105
300.1
300.101
300.073
300.097
300.101
300.072
300.097
300.07
300.069
300.093
300.101
300.073
300.097
300.101
300.072
300.097
300.07
300.07
300.093
300.101
300.074
300.097
300.101
300.073
300.097
300.071
300.071
300.094
300.101
300.073
300.097
300.101
300.073
300.097
300.071
300.07
300.093
300.109
300.109
300.108
300.109
300.109
300.108
300.109
300.109
300.108
300.109
300.109
300.108
300.088
300.076
300.087
300.087
300.075
300.086
300.061
300.061
300.07
300.087
300.076
300.087
300.087
300.076
300.087
300.061
300.061
300.07
300.087
300.075
300.087
300.088
300.077
300.087
300.061
300.061
300.071
300.087
300.075
300.087
300.087
300.075
300.087
300.06
300.061
300.07
300.107
300.104
300.107
300.107
300.104
300.107
300.103
300.103
300.105
300.107
300.104
300.107
300.107
300.104
300.107
300.103
300.103
300.105
300.107
300.104
300.107
300.107
300.104
300.107
300.103
300.103
300.105
300.107
300.104
300.107
300.107
300.104
300.107
300.103
300.103
300.105
300.096
300.1
300.095
300.074
300.084
300.085
300.099
300.091
300.093
300.095
300.1
300.095
300.074
300.083
300.085
300.099
300.091
300.093
300.066
300.081
300.076
300.066
300.081
300.076
300.088
300.088
300.083
300.096
300.1
300.095
300.074
300.084
300.086
300.099
300.091
300.094
300.095
300.1
300.095
300.074
300.084
300.085
300.099
300.091
300.094
300.067
300.081
300.077
300.067
300.081
300.077
300.088
300.088
300.084
300.096
300.1
300.095
300.075
300.084
300.086
300.099
300.092
300.094
300.096
300.1
300.095
300.075
300.084
300.086
300.099
300.092
300.094
300.067
300.081
300.077
300.068
300.081
300.077
300.089
300.089
300.084
300.095
300.1
300.095
300.075
300.084
300.086
300.099
300.092
300.094
300.095
300.1
300.095
300.074
300.084
300.086
300.099
300.091
300.094
300.066
300.081
300.077
300.067
300.081
300.077
300.088
300.088
300.084
)
;

boundaryField
{
    chip_to_air
    {
        type            compressible::turbulentTemperatureRadCoupledMixed;
        refValue        nonuniform List<scalar> 
320
(
300.051
300.05
300.051
300.049
300.052
300.056
300.039
300.042
300.054
300.052
300.04
300.037
300.042
300.034
300.035
300.051
300.037
300.038
300.029
300.049
300.033
300.029
300.051
300.056
300.053
300.057
300.059
300.033
300.04
300.037
300.042
300.038
300.052
300.046
300.047
300.051
300.045
300.044
300.052
300.053
300.055
300.044
300.046
300.042
300.055
300.056
300.039
300.039
300.052
300.051
300.048
300.047
300.044
300.039
300.037
300.045
300.049
300.045
300.039
300.036
300.044
300.047
300.046
300.037
300.036
300.05
300.044
300.044
300.042
300.032
300.042
300.041
300.031
300.041
300.051
300.054
300.054
300.053
300.057
300.056
300.055
300.055
300.058
300.056
300.055
300.042
300.034
300.041
300.044
300.04
300.036
300.041
300.034
300.04
300.036
300.04
300.05
300.051
300.049
300.049
300.051
300.049
300.053
300.052
300.052
300.047
300.048
300.049
300.049
300.051
300.051
300.053
300.038
300.038
300.037
300.04
300.036
300.039
300.046
300.034
300.036
300.046
300.047
300.047
300.05
300.035
300.035
300.033
300.038
300.031
300.033
300.042
300.028
300.032
300.051
300.049
300.052
300.053
300.053
300.052
300.054
300.056
300.055
300.057
300.056
300.058
300.058
300.035
300.035
300.034
300.038
300.038
300.038
300.036
300.04
300.034
300.035
300.041
300.036
300.041
300.051
300.052
300.051
300.049
300.048
300.047
300.049
300.049
300.047
300.049
300.051
300.049
300.047
300.047
300.045
300.047
300.047
300.045
300.053
300.052
300.053
300.054
300.053
300.054
300.054
300.054
300.055
300.046
300.046
300.044
300.046
300.047
300.045
300.045
300.043
300.044
300.05
300.051
300.051
300.048
300.05
300.052
300.046
300.048
300.049
300.046
300.042
300.041
300.044
300.038
300.037
300.04
300.038
300.042
300.045
300.042
300.04
300.043
300.048
300.043
300.037
300.035
300.038
300.038
300.04
300.043
300.041
300.047
300.048
300.048
300.044
300.046
300.048
300.042
300.045
300.046
300.042
300.039
300.039
300.042
300.035
300.033
300.037
300.034
300.039
300.042
300.038
300.036
300.038
300.045
300.039
300.032
300.03
300.034
300.033
300.036
300.039
300.038
300.051
300.05
300.053
300.052
300.053
300.054
300.053
300.052
300.054
300.053
300.053
300.052
300.054
300.053
300.055
300.057
300.054
300.054
300.055
300.054
300.053
300.055
300.056
300.053
300.054
300.056
300.058
300.054
300.053
300.054
300.054
300.039
300.039
300.042
300.035
300.034
300.039
300.035
300.039
300.041
300.038
300.041
300.041
300.043
300.037
300.036
300.04
300.037
300.04
300.042
300.039
300.034
300.034
300.04
300.035
300.035
300.035
300.04
300.036
300.037
300.038
300.038
)
;
        refGradient     uniform 0;
        valueFraction   nonuniform List<scalar> 
320
(
0.000225854
0.000225849
0.000225848
0.000225879
0.000161368
0.00014969
0.000163351
0.000152606
0.000160505
0.000139535
0.000160627
0.000124283
0.000154824
0.000130311
9.29414e-05
0.000161845
0.000129739
0.000164806
0.000150572
0.00014217
0.000139759
8.72789e-05
0.000130438
0.000161483
0.000141766
0.000134274
8.9778e-05
0.000132771
0.000160126
0.000133331
0.00013644
8.57458e-05
0.000225777
0.00022585
0.000225828
0.000225813
0.000225814
0.000225832
0.000225789
0.000225768
0.000225733
0.00022581
0.000225861
0.000225806
0.000160616
0.000162005
0.000162763
0.000163694
0.00022579
0.000162477
0.00013155
0.000225934
0.000225995
0.000161014
0.000131308
0.00022594
0.000162358
0.000135389
0.000163066
0.000127529
0.000226075
0.00016541
0.000165145
0.000160429
0.000161998
0.000225851
0.00013299
0.000225918
0.000225916
0.0001301
0.000225961
0.000136644
0.000137372
0.000226042
0.00022586
0.000139136
0.000225795
0.000225765
0.000163545
0.000133491
0.000225753
0.000139276
0.000161919
0.000140881
0.000225841
0.000225881
0.000137257
0.000225919
0.000226001
0.000158808
0.00013694
0.000225929
0.000138626
0.000162553
0.000132701
0.000226045
0.000225837
0.000225829
0.000225875
0.000225811
0.000225827
0.000225844
0.000225807
0.000225828
0.000225829
0.0002258
0.000225842
0.000225848
0.000225796
0.000224997
0.000135451
0.000161449
0.000226832
0.00022739
0.000130093
0.000161376
0.000226072
0.00013355
0.000162745
0.000135288
0.000161262
0.000224977
0.000225294
0.000140515
0.000162619
0.000226291
0.000226001
0.000136125
0.000165374
0.000227488
0.000131129
0.000161344
0.000132989
0.000164622
0.000225971
0.000226173
0.000131464
0.000161532
0.000225037
0.000224799
0.000140971
0.000161515
0.000225365
0.000131926
0.000161536
0.000134039
0.000158486
0.000226303
0.000226088
0.00013078
0.000163267
0.000226191
0.000226722
0.000134439
0.000161236
0.000227853
0.000127683
0.000163313
0.000133369
0.000162951
0.000225792
0.000225802
0.000225764
0.000225815
0.000225825
0.000225837
0.000225787
0.000225805
0.00022581
0.000225803
0.000225806
0.000225804
0.000225793
0.000225815
0.000225805
0.000225777
0.000225804
0.000225796
0.000225779
0.000225792
0.000225777
0.000225771
0.000225799
0.000225746
0.000225746
0.000225742
0.000225735
0.00022578
0.000225807
0.000225804
0.000225795
0.000225815
0.000225809
0.000225764
0.000225792
0.00022578
0.000225795
0.000225636
0.000225802
0.00022615
0.000132499
0.000163048
0.000226129
0.000226018
0.000225889
0.0002261
0.000226235
0.000226306
0.000225965
0.000226397
0.000137491
0.000161239
0.000227069
0.000226201
0.000225929
0.000226257
0.00022677
0.000133177
0.00016372
0.000226486
0.000226751
0.000133983
0.000164615
0.000227174
0.00022622
0.000226151
0.00022627
0.000225663
0.000225756
0.000225846
0.000226352
0.000130612
0.000165385
0.000226369
0.000225877
0.000225876
0.000226061
0.000226112
0.000225977
0.000225938
0.000226945
0.0001291
0.000162206
0.000226209
0.000226126
0.000225936
0.000226165
0.000225968
0.000138005
0.000163924
0.000225491
0.000225541
0.000137144
0.000162985
0.000225307
0.000226081
0.000226062
0.000226205
0.000225955
0.000225908
0.000225892
0.000225376
0.000138078
0.000161866
0.000225197
0.00022587
0.000225852
0.000225738
0.00022566
0.000225602
0.000225752
0.000225475
0.000137554
0.000161898
0.000225543
0.000225585
0.000225732
0.000225701
0.000225391
0.000138945
0.000161353
0.00022487
0.000224978
0.000143827
0.000160201
0.000225128
0.000225686
0.000225793
0.000225726
0.000225958
0.000225871
0.000225878
0.000225652
0.000138546
0.000161912
0.000225129
0.000225946
0.000225905
0.000225964
0.000226086
0.000226223
0.000225942
0.000226039
0.000135469
0.000161155
0.000226126
0.000226002
0.000225906
0.000226001
0.000226377
0.000136386
0.000161622
0.000225185
0.000226561
0.000136464
0.000165177
0.000226302
0.000226367
0.000226127
0.000226173
)
;
        source          uniform 0;
        logInterval     -1;
        writePrecision  6;
        updateHeader    1;
        writeToFile     0;
        useUserTime     1;
        kappaMethod     solidThermo;
        value           nonuniform List<scalar> 
320
(
300.11
300.11
300.11
300.11
300.076
300.053
300.076
300.052
300.077
300.077
300.075
300.075
300.053
300.053
300.053
300.077
300.052
300.077
300.052
300.077
300.077
300.052
300.076
300.077
300.077
300.053
300.053
300.076
300.075
300.075
300.052
300.052
300.105
300.105
300.1
300.105
300.105
300.1
300.105
300.105
300.1
300.105
300.105
300.1
300.074
300.071
300.073
300.071
300.101
300.073
300.073
300.097
300.101
300.072
300.072
300.097
300.07
300.07
300.069
300.069
300.093
300.073
300.07
300.072
300.07
300.101
300.073
300.097
300.101
300.072
300.097
300.07
300.07
300.093
300.101
300.074
300.097
300.101
300.073
300.073
300.097
300.071
300.071
300.071
300.094
300.101
300.073
300.097
300.101
300.073
300.073
300.097
300.071
300.07
300.07
300.093
300.108
300.109
300.109
300.108
300.109
300.109
300.108
300.109
300.109
300.108
300.109
300.109
300.087
300.088
300.076
300.076
300.086
300.087
300.075
300.075
300.07
300.061
300.061
300.061
300.061
300.087
300.087
300.076
300.076
300.087
300.087
300.076
300.076
300.07
300.061
300.061
300.061
300.061
300.087
300.087
300.075
300.075
300.087
300.088
300.077
300.077
300.071
300.061
300.061
300.061
300.061
300.087
300.087
300.075
300.075
300.087
300.087
300.075
300.075
300.07
300.06
300.06
300.061
300.061
300.107
300.107
300.104
300.107
300.107
300.104
300.105
300.103
300.103
300.107
300.107
300.104
300.107
300.107
300.104
300.105
300.103
300.103
300.107
300.107
300.104
300.107
300.107
300.104
300.105
300.103
300.103
300.107
300.107
300.104
300.107
300.107
300.104
300.105
300.103
300.103
300.095
300.096
300.1
300.085
300.074
300.074
300.084
300.093
300.099
300.091
300.095
300.095
300.1
300.085
300.074
300.074
300.083
300.093
300.099
300.091
300.076
300.066
300.066
300.081
300.076
300.066
300.066
300.08
300.083
300.088
300.088
300.095
300.096
300.1
300.086
300.074
300.074
300.084
300.094
300.099
300.091
300.095
300.095
300.1
300.085
300.074
300.074
300.084
300.094
300.099
300.091
300.077
300.067
300.067
300.081
300.077
300.067
300.067
300.081
300.084
300.088
300.088
300.095
300.096
300.1
300.086
300.075
300.075
300.084
300.094
300.099
300.092
300.095
300.096
300.1
300.086
300.075
300.075
300.084
300.094
300.099
300.092
300.077
300.067
300.067
300.081
300.077
300.068
300.068
300.081
300.084
300.089
300.089
300.095
300.095
300.1
300.086
300.075
300.075
300.084
300.094
300.099
300.092
300.095
300.095
300.1
300.086
300.074
300.074
300.084
300.093
300.099
300.091
300.077
300.066
300.066
300.081
300.077
300.067
300.067
300.081
300.084
300.088
300.088
)
;
    }
    chip_to_substrate
    {
        type            compressible::turbulentTemperatureRadCoupledMixed;
        refValue        nonuniform List<scalar> 
256
(
300.074
300.074
300.074
300.074
300.047
300.046
300.03
300.047
300.047
300.03
300.047
300.047
300.03
300.047
300.046
300.03
300.069
300.069
300.065
300.069
300.069
300.065
300.069
300.069
300.065
300.069
300.069
300.065
300.066
300.044
300.062
300.066
300.044
300.062
300.042
300.042
300.059
300.066
300.044
300.062
300.066
300.044
300.062
300.042
300.042
300.059
300.066
300.044
300.062
300.066
300.044
300.062
300.042
300.042
300.059
300.066
300.044
300.062
300.066
300.044
300.062
300.042
300.042
300.059
300.073
300.073
300.072
300.073
300.073
300.072
300.073
300.073
300.072
300.073
300.073
300.072
300.054
300.046
300.054
300.054
300.046
300.054
300.035
300.035
300.04
300.055
300.046
300.054
300.055
300.046
300.054
300.035
300.035
300.041
300.055
300.046
300.054
300.055
300.046
300.054
300.035
300.035
300.041
300.055
300.046
300.054
300.054
300.046
300.054
300.035
300.035
300.041
300.071
300.068
300.071
300.071
300.068
300.071
300.067
300.067
300.069
300.072
300.069
300.071
300.072
300.069
300.071
300.067
300.067
300.069
300.072
300.069
300.071
300.071
300.069
300.071
300.067
300.067
300.069
300.071
300.069
300.071
300.071
300.068
300.071
300.067
300.067
300.069
300.061
300.065
300.06
300.045
300.051
300.053
300.064
300.057
300.059
300.061
300.065
300.06
300.045
300.051
300.053
300.064
300.057
300.059
300.039
300.049
300.045
300.039
300.049
300.045
300.055
300.054
300.051
300.061
300.065
300.061
300.045
300.051
300.053
300.064
300.057
300.059
300.061
300.065
300.061
300.045
300.051
300.053
300.064
300.057
300.059
300.039
300.049
300.045
300.039
300.049
300.045
300.055
300.055
300.051
300.061
300.065
300.061
300.045
300.051
300.053
300.064
300.058
300.059
300.061
300.065
300.061
300.045
300.051
300.053
300.064
300.058
300.059
300.039
300.049
300.046
300.039
300.049
300.046
300.055
300.055
300.051
300.061
300.065
300.061
300.045
300.051
300.053
300.064
300.057
300.059
300.061
300.065
300.06
300.045
300.051
300.053
300.064
300.057
300.059
300.039
300.049
300.045
300.039
300.049
300.045
300.055
300.055
300.051
)
;
        refGradient     uniform 0;
        valueFraction   nonuniform List<scalar> 
256
(
0.773069
0.773429
0.773177
0.77311
0.691935
0.68044
0.615137
0.695332
0.695249
0.609665
0.68862
0.694947
0.606634
0.688205
0.685681
0.607606
0.773164
0.773191
0.77333
0.774106
0.77414
0.774281
0.7741
0.773215
0.774174
0.774075
0.773198
0.774187
0.773229
0.687518
0.773404
0.773286
0.685676
0.773471
0.688523
0.684185
0.773448
0.774203
0.691311
0.774356
0.774161
0.683842
0.774341
0.690317
0.688321
0.774376
0.774224
0.693242
0.77432
0.773289
0.692013
0.774276
0.694679
0.696606
0.77434
0.774186
0.691799
0.774275
0.77327
0.69167
0.774204
0.692659
0.689474
0.774327
0.77305
0.772975
0.77303
0.773707
0.773676
0.773909
0.773397
0.773103
0.77331
0.773386
0.7731
0.773357
0.770763
0.690131
0.770409
0.770468
0.684553
0.770789
0.687085
0.684354
0.768288
0.771601
0.693478
0.771517
0.770877
0.694388
0.770483
0.684143
0.68872
0.769139
0.770972
0.687579
0.771537
0.770663
0.695005
0.770284
0.686685
0.684398
0.770936
0.771594
0.688221
0.771077
0.771159
0.687473
0.770817
0.683264
0.686769
0.768227
0.773076
0.773231
0.773113
0.773115
0.773203
0.773116
0.773213
0.773266
0.773178
0.774006
0.774153
0.774036
0.774002
0.774185
0.774069
0.774199
0.774242
0.77415
0.773846
0.77408
0.773774
0.773122
0.773423
0.773341
0.774136
0.773866
0.773811
0.773839
0.774051
0.773804
0.773177
0.773457
0.773343
0.774097
0.773921
0.773831
0.77286
0.773311
0.772878
0.688491
0.770363
0.770087
0.773284
0.772961
0.772763
0.772858
0.7733
0.772858
0.690168
0.770593
0.770949
0.773359
0.772853
0.772745
0.688061
0.7704
0.769829
0.687728
0.770643
0.770272
0.77315
0.773147
0.773114
0.77379
0.774199
0.774102
0.689826
0.770608
0.770625
0.774252
0.773892
0.774019
0.773641
0.774195
0.773556
0.687232
0.772081
0.771319
0.774259
0.773869
0.773796
0.690918
0.772128
0.771729
0.690992
0.772557
0.772143
0.773985
0.7738
0.773649
0.773777
0.774135
0.773718
0.693686
0.771506
0.771744
0.774177
0.773877
0.773634
0.772818
0.773493
0.772903
0.693739
0.770223
0.770782
0.773966
0.773906
0.773676
0.693592
0.771843
0.77175
0.694959
0.771414
0.772153
0.773835
0.773943
0.773459
0.773933
0.774216
0.773786
0.692877
0.771992
0.771712
0.774163
0.773702
0.773609
0.772825
0.773488
0.773082
0.689566
0.771998
0.771491
0.773928
0.773679
0.77349
0.689319
0.772112
0.771835
0.693079
0.771725
0.771132
0.773752
0.77385
0.773342
)
;
        source          uniform 0;
        logInterval     -1;
        writePrecision  6;
        updateHeader    1;
        writeToFile     0;
        useUserTime     1;
        kappaMethod     solidThermo;
        value           nonuniform List<scalar> 
256
(
300.082
300.082
300.082
300.082
300.056
300.055
300.039
300.056
300.056
300.038
300.056
300.056
300.039
300.056
300.056
300.038
300.077
300.077
300.073
300.077
300.077
300.073
300.077
300.077
300.073
300.077
300.077
300.073
300.074
300.053
300.07
300.074
300.053
300.07
300.05
300.05
300.067
300.074
300.053
300.07
300.074
300.053
300.07
300.051
300.051
300.067
300.074
300.053
300.07
300.074
300.053
300.07
300.051
300.051
300.067
300.074
300.053
300.07
300.074
300.053
300.07
300.051
300.05
300.067
300.081
300.081
300.08
300.081
300.081
300.08
300.081
300.081
300.08
300.081
300.081
300.08
300.062
300.055
300.061
300.062
300.055
300.061
300.043
300.043
300.047
300.062
300.055
300.062
300.062
300.055
300.062
300.043
300.043
300.047
300.062
300.055
300.062
300.062
300.056
300.062
300.043
300.043
300.048
300.062
300.055
300.062
300.062
300.055
300.061
300.043
300.043
300.047
300.08
300.076
300.079
300.079
300.076
300.079
300.075
300.075
300.077
300.08
300.077
300.079
300.08
300.077
300.079
300.075
300.075
300.078
300.08
300.077
300.079
300.08
300.077
300.079
300.075
300.075
300.078
300.08
300.077
300.079
300.079
300.076
300.079
300.075
300.075
300.077
300.069
300.073
300.068
300.054
300.059
300.06
300.072
300.065
300.067
300.069
300.073
300.068
300.054
300.058
300.06
300.072
300.065
300.067
300.047
300.056
300.052
300.047
300.056
300.052
300.062
300.062
300.058
300.069
300.073
300.068
300.054
300.059
300.06
300.072
300.065
300.067
300.069
300.073
300.068
300.054
300.059
300.06
300.072
300.065
300.067
300.047
300.056
300.052
300.047
300.056
300.052
300.062
300.062
300.058
300.069
300.073
300.068
300.054
300.059
300.061
300.072
300.065
300.067
300.069
300.073
300.068
300.055
300.059
300.061
300.072
300.065
300.067
300.048
300.056
300.053
300.048
300.056
300.053
300.063
300.063
300.058
300.069
300.073
300.068
300.054
300.059
300.06
300.072
300.065
300.067
300.069
300.073
300.068
300.054
300.059
300.06
300.072
300.065
300.067
300.047
300.056
300.052
300.047
300.056
300.052
300.062
300.062
300.058
)
;
    }
}


// ************************************************************************* //
