/*--------------------------------*- C++ -*----------------------------------*\
| =========                 |                                                 |
| \\      /  F ield         | OpenFOAM: The Open Source CFD Toolbox           |
|  \\    /   O peration     | Version:  2412                                  |
|   \\  /    A nd           | Website:  www.openfoam.com                      |
|    \\/     M anipulation  |                                                 |
\*---------------------------------------------------------------------------*/
FoamFile
{
    version     2.0;
    format      ascii;
    arch        "LSB;label=32;scalar=64";
    class       volScalarField;
    location    "80/rightSolid";
    object      T;
}
// * * * * * * * * * * * * * * * * * * * * * * * * * * * * * * * * * * * * * //

dimensions      [0 0 0 1 0 0 0];

internalField   nonuniform List<scalar> 
130
(
321.15736
318.6108
316.01768
313.52234
311.22587
309.18873
307.43891
305.98137
304.80673
303.89831
303.23742
302.80723
302.59534
323.55171
320.45869
317.38529
314.50344
311.9139
309.66343
307.76275
306.20086
304.95539
303.99993
303.30891
302.86087
302.64067
328.39372
324.04211
319.93456
316.2714
313.11985
310.47722
308.30831
306.56559
305.19984
304.16573
303.42491
302.94765
302.71391
335.63556
328.91086
323.13404
318.35749
314.47779
311.36205
308.88625
306.94465
305.45039
304.33405
303.54193
303.03489
302.78747
344.10001
333.47726
325.72772
319.89196
315.41377
311.94591
309.25665
307.18298
305.60604
304.43789
303.61391
303.08855
302.83277
344.1
333.47724
325.72772
319.89196
315.41377
311.94591
309.25665
307.18298
305.60604
304.43789
303.61392
303.08856
302.83278
335.63556
328.91085
323.13405
318.3575
314.4778
311.36206
308.88626
306.94465
305.45039
304.33405
303.54194
303.0349
302.78748
328.39374
324.04212
319.93458
316.27141
313.11985
310.47723
308.30832
306.5656
305.19984
304.16574
303.42491
302.94765
302.71392
323.55174
320.45872
317.38531
314.50346
311.91391
309.66344
307.76277
306.20087
304.9554
303.99994
303.30891
302.86088
302.64067
321.1574
318.61083
316.01771
313.52236
311.22589
309.18875
307.43893
305.98138
304.80674
303.89832
303.23743
302.80724
302.59534
)
;

boundaryField
{
    maxX
    {
        type            zeroGradient;
    }
    minZ
    {
        type            zeroGradient;
    }
    maxZ
    {
        type            zeroGradient;
    }
    rightSolid_to_bottomWater
    {
        type            compressible::turbulentTemperatureRadCoupledMixed;
        refValue        nonuniform List<scalar> 
130
(
302.54141
302.45983
302.25698
301.97364
301.6533
301.33448
301.04428
300.79926
300.60236
300.45126
300.34043
300.26404
300.21731
302.75728
302.78679
302.67343
302.44583
302.14156
301.80095
301.45943
301.14711
300.87856
300.66059
300.49283
300.37075
300.28915
304.035
303.98102
303.74687
303.37373
302.91338
302.41984
301.93897
301.50808
301.14339
300.85069
300.62675
300.46359
300.35302
310.35643
308.78827
307.21246
305.7617
304.49845
303.4404
302.58205
301.91028
301.39668
301.0145
300.73693
300.54023
300.40791
320.23449
309.97829
306.76786
304.97675
303.73259
302.81165
302.11728
301.59139
301.1911
300.88829
300.66238
300.49811
300.38556
320.23476
309.97839
306.76789
304.97677
303.7326
302.81165
302.11728
301.5914
301.1911
300.88829
300.66238
300.49811
300.38556
310.35867
308.78924
307.21275
305.76178
304.49847
303.44017
302.58202
301.91029
301.39669
301.0145
300.73694
300.54023
300.40791
304.03629
303.98174
303.74716
303.37382
302.91335
302.41836
301.93968
301.50846
301.14353
300.85073
300.62676
300.4636
300.35302
302.7583
302.78732
302.67364
302.4459
302.14154
301.79979
301.46001
301.1474
300.87866
300.66062
300.49284
300.37075
300.28915
302.5424
302.46022
302.25709
301.97367
301.65328
301.33375
301.0447
300.7994
300.60239
300.45127
300.34044
300.26404
300.21731
)
;
        refGradient     uniform 0;
        valueFraction   uniform 0.0075140686;
        source          uniform 0;
        logInterval     -1;
        writePrecision  8;
        updateHeader    1;
        writeToFile     0;
        useUserTime     1;
        kappaMethod     solidThermo;
        value           nonuniform List<scalar> 
130
(
321.00912
318.48158
315.90699
313.42887
311.14788
309.12429
307.38603
305.93816
304.77136
303.86904
303.2126
302.78529
302.57475
323.38713
320.31806
317.26744
314.40614
311.83439
309.5989
307.71054
306.15859
304.92095
303.97145
303.28468
302.83932
302.62026
328.20243
323.88354
319.80562
316.16775
313.03704
310.41118
308.25556
306.52326
305.16553
304.13741
303.40079
302.92612
302.69342
335.43748
328.75187
323.0071
318.25609
314.39666
311.297
308.83395
306.90246
305.41608
304.30567
303.51775
303.01326
302.76682
343.91275
333.29298
325.57796
319.77313
315.31984
311.87173
309.19806
307.13659
305.569
304.40777
303.58862
303.06619
302.8116
343.91274
333.29297
325.57796
319.77313
315.31984
311.87173
309.19807
307.13659
305.569
304.40777
303.58862
303.0662
302.81161
335.43749
328.75188
323.0071
318.2561
314.39666
311.297
308.83397
306.90246
305.41608
304.30567
303.51775
303.01327
302.76683
328.20245
323.88356
319.80563
316.16776
313.03705
310.41118
308.25558
306.52327
305.16554
304.13742
303.4008
302.92612
302.69343
323.38717
320.31809
317.26746
314.40615
311.8344
309.5989
307.71056
306.1586
304.92096
303.97146
303.28469
302.83932
302.62027
321.00918
318.48162
315.90701
313.42889
311.1479
309.12429
307.38605
305.93817
304.77137
303.86905
303.21261
302.7853
302.57475
)
;
    }
    rightSolid_to_topAir
    {
        type            compressible::turbulentTemperatureRadCoupledMixed;
        refValue        nonuniform List<scalar> 
130
(
305.88312
306.44102
306.80775
307.00298
307.0508
306.97609
306.801
306.55056
306.24799
305.91407
305.56669
305.21998
304.89789
305.69811
306.23105
306.57452
306.75112
306.78731
306.71082
306.54953
306.33074
306.08119
305.82719
305.5868
305.33703
305.09783
306.85807
307.42884
307.76214
307.89559
307.86805
307.71702
307.47762
307.18261
306.86303
306.54864
306.25781
305.96545
305.6923
309.03714
309.68397
310.01595
310.10216
310.00159
309.76292
309.42607
309.02379
308.58349
308.12865
307.67942
307.2511
306.86718
312.05691
312.65123
312.85746
312.79039
312.53047
312.13629
311.65169
311.10999
310.53693
309.95282
309.37397
308.81367
308.29463
312.05691
312.65123
312.85746
312.79038
312.53045
312.13629
311.65169
311.10998
310.53693
309.95281
309.37397
308.81366
308.29463
309.03714
309.68397
310.01595
310.10215
310.00157
309.76292
309.42605
309.02377
308.58347
308.12864
307.67941
307.2511
306.86717
306.85807
307.42884
307.76214
307.89559
307.86803
307.71702
307.47761
307.18261
306.86302
306.54864
306.25781
305.96545
305.6923
305.69811
306.23105
306.57452
306.75113
306.7873
306.71082
306.54953
306.33074
306.08119
305.82719
305.58681
305.33704
305.09783
305.88312
306.44103
306.80776
307.00298
307.05079
306.9761
306.80101
306.55058
306.248
305.91409
305.56671
305.21999
304.8979
)
;
        refGradient     uniform 0;
        valueFraction   uniform 0.00032132529;
        source          uniform 0;
        logInterval     -1;
        writePrecision  8;
        updateHeader    1;
        writeToFile     0;
        useUserTime     1;
        kappaMethod     solidThermo;
        value           nonuniform List<scalar> 
130
(
321.14404
318.59898
316.00737
313.5135
311.21842
309.18255
307.43384
305.97725
304.80339
303.89556
303.2351
302.80515
302.59333
323.53759
320.44622
317.37446
314.4942
311.90613
309.65699
307.75748
306.19658
304.95192
303.9971
303.30655
302.8588
302.6387
328.37848
324.02888
319.92329
316.26193
313.112
310.4708
308.30312
306.56143
305.19652
304.16306
303.42271
302.94573
302.7121
335.61882
328.89684
323.12246
318.34804
314.47016
311.35597
308.88146
306.94093
305.44751
304.33181
303.54013
303.03334
302.78599
344.08173
333.4628
325.71624
319.88287
315.40664
311.94038
309.25244
307.17984
305.60373
304.43619
303.61262
303.08748
302.83173
344.08171
333.46279
325.71624
319.88287
315.40664
311.94039
309.25245
307.17984
305.60373
304.43619
303.61263
303.08748
302.83173
335.61882
328.89684
323.12247
318.34804
314.47016
311.35597
308.88148
306.94093
305.44752
304.33181
303.54014
303.03335
302.786
328.3785
324.0289
319.9233
316.26194
313.11201
310.47081
308.30313
306.56144
305.19652
304.16307
303.42271
302.94574
302.7121
323.53762
320.44624
317.37448
314.49422
311.90614
309.657
307.7575
306.19659
304.95193
303.99711
303.30656
302.85881
302.63871
321.14408
318.59901
316.0074
313.51352
311.21844
309.18257
307.43386
305.97726
304.8034
303.89557
303.2351
302.80516
302.59334
)
;
    }
    rightSolid_to_heater
    {
        type            compressible::turbulentTemperatureRadCoupledMixed;
        refValue        nonuniform List<scalar> 10(323.47934 326.41842 332.57437 342.71469 359.35481 359.35482 342.71469 332.57438 326.41844 323.4794);
        refGradient     uniform 0;
        valueFraction   uniform 0.50000003;
        source          uniform 0;
        logInterval     -1;
        writePrecision  8;
        updateHeader    1;
        writeToFile     0;
        useUserTime     1;
        kappaMethod     solidThermo;
        value           nonuniform List<scalar> 10(322.31414 324.98087 330.47988 339.17103 351.72342 351.72342 339.17102 330.4799 324.9809 322.31419);
    }
}


// ************************************************************************* //
