/*--------------------------------*- C++ -*----------------------------------*\
| =========                 |                                                 |
| \\      /  F ield         | OpenFOAM: The Open Source CFD Toolbox           |
|  \\    /   O peration     | Version:  2412                                  |
|   \\  /    A nd           | Website:  www.openfoam.com                      |
|    \\/     M anipulation  |                                                 |
\*---------------------------------------------------------------------------*/
FoamFile
{
    version     2.0;
    format      ascii;
    arch        "LSB;label=32;scalar=64";
    class       volScalarField;
    location    "20/heater";
    object      T;
}
// * * * * * * * * * * * * * * * * * * * * * * * * * * * * * * * * * * * * * //

dimensions      [0 0 0 1 0 0 0];

internalField   nonuniform List<scalar> 
80
(
301.24669
301.18195
301.05653
300.88237
302.49747
302.37048
302.11705
301.75219
305.81932
305.5436
304.96356
304.0685
313.01456
312.50442
311.3238
309.2374
475.25088
475.9891
475.98822
475.25767
431.25742
432.06748
432.04008
431.20047
393.88268
394.46693
394.36027
393.62592
364.00523
364.28148
363.96947
363.21359
341.81159
341.69347
340.88565
339.56039
326.93177
326.31266
324.57604
320.59166
475.25073
475.98899
475.98814
475.25763
431.25713
432.0673
432.03999
431.20048
393.88238
394.46679
394.36025
393.62605
364.005
364.28143
363.96954
363.21383
341.81147
341.69352
340.88581
339.5607
326.93185
326.31283
324.57626
320.59192
313.0145
312.50451
311.324
309.23766
305.81924
305.54365
304.96371
304.06871
302.49741
302.37051
302.11714
301.75234
301.24664
301.18197
301.0566
300.88248
)
;

boundaryField
{
    minY
    {
        type            fixedValue;
        value           uniform 500;
    }
    minZ
    {
        type            zeroGradient;
    }
    maxZ
    {
        type            zeroGradient;
    }
    heater_to_topAir
    {
        type            compressible::turbulentTemperatureRadCoupledMixed;
        refValue        nonuniform List<scalar> 
40
(
300.0743
300.13657
300.18665
300.22233
300.12335
300.22828
300.31372
300.37541
300.28166
300.52112
300.71546
300.85262
300.63092
301.17107
301.61376
301.92198
301.2902
302.40131
303.33178
303.98579
301.29021
302.40132
303.3318
303.98582
300.63092
301.17107
301.61377
301.92201
300.28165
300.52112
300.71546
300.85263
300.12335
300.22828
300.31372
300.37542
300.0743
300.13657
300.18665
300.22234
)
;
        refGradient     uniform 0;
        valueFraction   uniform 0.00032132529;
        source          uniform 0;
        logInterval     -1;
        writePrecision  8;
        updateHeader    1;
        writeToFile     0;
        useUserTime     1;
        kappaMethod     solidThermo;
        value           nonuniform List<scalar> 
40
(
301.23932
301.17496
301.05023
300.87701
302.48549
302.35911
302.10681
301.74353
305.79729
305.52267
304.94472
304.05266
312.97628
312.46787
311.29072
309.20974
326.87209
326.255
324.5227
320.54635
326.87216
326.25516
324.52293
320.54661
312.97622
312.46796
311.29092
309.21
305.79721
305.52271
304.94486
304.05287
302.48543
302.35914
302.10691
301.74367
301.23928
301.17497
301.0503
300.87712
)
;
    }
    heater_to_rightSolid
    {
        type            compressible::turbulentTemperatureRadCoupledMixed;
        refValue        nonuniform List<scalar> 10(300.68275 301.3248 302.96004 306.21933 311.21981 311.21991 306.21945 302.96018 301.32491 300.68283);
        refGradient     uniform 0;
        valueFraction   uniform 0.49999997;
        source          uniform 0;
        logInterval     -1;
        writePrecision  8;
        updateHeader    1;
        writeToFile     0;
        useUserTime     1;
        kappaMethod     solidThermo;
        value           nonuniform List<scalar> 10(300.77999 301.53439 303.50687 307.71571 315.88574 315.88592 307.7159 303.50704 301.53451 300.78008);
    }
    heater_to_leftSolid
    {
        type            compressible::turbulentTemperatureRadCoupledMixed;
        refValue        nonuniform List<scalar> 10(300.00042 300.00099 300.00284 300.00796 300.01845 300.01845 300.00796 300.00284 300.00099 300.00042);
        refGradient     uniform 0;
        valueFraction   uniform 2.0832464e-05;
        source          uniform 0;
        logInterval     -1;
        thicknessLayers List<scalar> 1(0.001);
        kappaLayers     List<scalar> 1(0.0005);
        writePrecision  8;
        updateHeader    1;
        writeToFile     0;
        useUserTime     1;
        kappaMethod     solidThermo;
        value           nonuniform List<scalar> 10(301.23967 302.48619 305.79894 312.97998 326.87975 326.87982 312.97992 305.79886 302.48614 301.23962);
    }
    heater_to_bottomWater
    {
        type            compressible::turbulentTemperatureRadCoupledMixed;
        refValue        nonuniform List<scalar> 
92
(
300.01491
300.01834
300.01769
300.01526
300.03242
300.0416
300.0413
300.03615
300.12003
300.14085
300.12964
300.11028
304.45749
306.11292
307.18122
307.52081
302.6806
303.72359
304.47628
304.77417
301.63205
302.26416
302.69571
302.86115
300.9837
301.34876
301.57515
301.64089
300.80009
300.80009
301.09056
301.09056
301.1858
301.1858
301.14454
301.14454
312.25427
315.02565
307.17208
309.68992
304.44451
305.79607
302.74694
303.29661
301.733
302.0964
312.25424
304.45748
306.1129
307.18121
315.02565
307.5208
307.17205
302.68059
303.72358
304.47626
309.68995
304.77417
304.44449
301.63205
302.26416
302.69571
305.79612
302.86116
302.74693
300.98369
301.34876
301.57515
303.29667
301.6409
301.733
300.80009
301.09056
301.18582
302.09646
301.14457
300.80009
301.09056
301.18582
301.14457
300.12002
300.14085
300.12964
300.11028
300.03242
300.0416
300.0413
300.03615
300.0149
300.01834
300.01769
300.01527
)
;
        refGradient     uniform 0;
        valueFraction   nonuniform List<scalar> 
92
(
0.0075140686
0.0075140686
0.0075140686
0.0075140686
0.0075140686
0.0075140686
0.0075140686
0.0075140686
0.0075140686
0.0075140686
0.0075140686
0.0075140686
0.0075140686
0.0075140686
0.0075140686
0.0075140686
0.0075140686
0.0075140686
0.0075140686
0.0075140686
0.0075140686
0.0075140686
0.0075140686
0.0075140686
0.0075140686
0.0075140686
0.0075140686
0.0075140686
0.0075140686
0.0075140686
0.0075140686
0.0075140686
0.0075140686
0.0075140686
0.0075140686
0.0075140686
0.0075140679
0.0075140679
0.0075140679
0.0075140679
0.0075140679
0.0075140679
0.0075140679
0.0075140679
0.0075140679
0.0075140679
0.0075140679
0.0075140686
0.0075140686
0.0075140686
0.0075140679
0.0075140686
0.0075140679
0.0075140686
0.0075140686
0.0075140686
0.0075140679
0.0075140686
0.0075140679
0.0075140686
0.0075140686
0.0075140686
0.0075140679
0.0075140686
0.0075140679
0.0075140686
0.0075140686
0.0075140686
0.0075140679
0.0075140686
0.0075140679
0.0075140686
0.0075140686
0.0075140686
0.0075140679
0.0075140686
0.0075140686
0.0075140686
0.0075140686
0.0075140686
0.0075140686
0.0075140686
0.0075140686
0.0075140686
0.0075140686
0.0075140686
0.0075140686
0.0075140686
0.0075140686
0.0075140686
0.0075140686
0.0075140686
)
;
        source          uniform 0;
        logInterval     -1;
        writePrecision  8;
        updateHeader    1;
        writeToFile     0;
        useUserTime     1;
        kappaMethod     solidThermo;
        value           nonuniform List<scalar> 
92
(
301.23049
301.1666
301.04274
300.87075
302.46781
302.34237
302.09186
301.73114
305.75639
305.48382
304.90989
304.02406
473.95342
474.69849
474.70567
473.98318
430.25231
431.06395
431.0425
430.2117
393.13385
393.71829
393.61598
392.88896
363.46964
363.74661
363.43942
362.69081
312.88872
341.44408
312.38598
341.32963
311.21788
340.53038
309.15146
339.21713
474.01201
474.03957
430.28606
430.24863
393.15499
392.91102
363.48289
362.70325
341.45109
339.22428
474.01186
473.95328
474.69839
474.70559
474.03953
473.98314
430.28577
430.25202
431.06377
431.04241
430.24865
430.21171
393.15469
393.13356
393.71816
393.61596
392.91115
392.88909
363.48266
363.46941
363.74656
363.4395
362.70349
362.69105
341.45098
341.44397
341.32968
340.53054
339.22458
339.21743
312.88866
312.38607
311.21808
309.15172
305.75631
305.48387
304.91003
304.02427
302.46775
302.3424
302.09196
301.73128
301.23045
301.16661
301.04282
300.87085
)
;
    }
}


// ************************************************************************* //
