/*--------------------------------*- C++ -*----------------------------------*\
| =========                 |                                                 |
| \\      /  F ield         | OpenFOAM: The Open Source CFD Toolbox           |
|  \\    /   O peration     | Version:  2412                                  |
|   \\  /    A nd           | Website:  www.openfoam.com                      |
|    \\/     M anipulation  |                                                 |
\*---------------------------------------------------------------------------*/
FoamFile
{
    version     2.0;
    format      ascii;
    arch        "LSB;label=32;scalar=64";
    class       volVectorField;
    location    "2.3";
    object      flux;
}
// * * * * * * * * * * * * * * * * * * * * * * * * * * * * * * * * * * * * * //

dimensions      [0 1 -1 1 0 0 0];

internalField   nonuniform List<vector> 
5712
(
(-0.314489 0.511241 0.289468)
(-0.384205 0.280888 0.879652)
(-0.71901 0.890839 0.219508)
(-1.1227 0.58309 0.962529)
(-1.08557 0.857709 0.120334)
(-2.1183 0.729052 1.01995)
(-0.750898 1.26513 0.205429)
(-2.25964 1.56644 1.61666)
(-0.774884 1.92529 0.335791)
(-1.81226 2.43665 2.03035)
(-0.95273 1.01959 0.344029)
(-1.56619 0.895446 1.43978)
(-0.7291 0.627845 0.367089)
(-0.96367 0.432418 1.27929)
(-0.39214 0.414176 0.361726)
(-0.397844 0.235784 1.09873)
(-0.509743 0.85148 0.170103)
(-0.576017 0.769486 0.0922222)
(-0.700146 0.769166 0.5127)
(-0.634205 0.762403 0.241773)
(-0.486973 0.977654 0.158707)
(-0.733051 0.939138 0.0728082)
(-0.726792 1.12853 0.553048)
(-0.727671 0.972201 0.222453)
(-0.205607 0.301162 0.221274)
(-0.148722 0.211451 0.162808)
(-0.278865 0.156787 0.653376)
(-0.199207 0.10845 0.476893)
(-0.466126 0.438768 0.148317)
(-0.301559 0.28365 0.116426)
(-0.862907 0.243139 0.657244)
(-0.600838 0.157537 0.496822)
(-0.718594 0.8638 0.333069)
(-0.727737 0.915499 0.121005)
(-0.728562 0.775872 0.251986)
(-0.734839 0.634 0.0912801)
(-0.166675 0.627941 0.114918)
(-0.149674 0.489683 0.308613)
(-1.67436 0.531289 1.5803)
(-2.07082 0.507122 0.483007)
(-0.890323 0.710593 0.474188)
(-1.18865 0.697781 0.219239)
(-2.1603 1.445 1.91948)
(-2.65851 1.59091 0.601906)
(-1.00049 1.03635 0.442798)
(-1.2312 1.09519 0.208267)
(-1.25316 0.745864 1.0456)
(-1.63869 0.587045 0.348614)
(-0.998126 0.762407 0.532798)
(-1.38316 0.535533 0.242935)
(-0.573236 0.32385 0.850492)
(-0.726398 0.279351 0.270488)
(-0.116862 0.24129 0.196046)
(-0.0369597 0.356617 0.106338)
(-0.15208 0.119971 0.346772)
(-0.0526406 0.162561 0.140129)
(-0.261377 0.319985 0.174092)
(-0.107416 0.47624 0.110191)
(-0.453997 0.200917 0.36414)
(-0.166479 0.274269 0.137245)
(-0.29714 0.326749 0.233532)
(-0.0986663 0.570969 0.148415)
(-0.301101 0.249035 0.228434)
(-0.0852048 0.407579 0.0957325)
(-0.59266 0.0779844 0.407173)
(-0.172505 0.273979 0.146948)
(-0.777218 0.0137045 0.160334)
(-0.243522 0.196213 0.059194)
(-1.00311 0.730883 0.497356)
(-0.572628 0.879703 0.374116)
(-0.84897 0.766022 0.301781)
(-0.586297 0.870219 0.270537)
(-1.02976 0.923685 0.557041)
(-0.663084 0.941465 0.488076)
(-0.817398 0.94047 0.302212)
(-0.661618 0.91796 0.322384)
(-0.656603 0.681418 0.279489)
(-0.473135 0.823703 0.239737)
(-0.719498 0.681962 0.364101)
(-0.454279 0.812517 0.311453)
(-0.825214 0.76706 0.2248)
(-0.609089 0.863156 0.193337)
(-0.85302 0.752467 0.13062)
(-0.625597 0.857042 0.112229)
(-0.801464 0.946867 0.224251)
(-0.677923 0.904166 0.223683)
(-0.832875 0.946614 0.128349)
(-0.692081 0.8963 0.128486)
(-0.678584 0.639549 0.215139)
(-0.502592 0.824803 0.16865)
(-0.731999 0.583255 0.125756)
(-0.52198 0.820893 0.0886902)
(-0.722929 0.700675 0.239814)
(-0.296132 0.748095 0.134958)
(-0.411342 0.882598 0.240623)
(-0.468584 1.23202 0.265676)
(-0.776842 0.733282 0.318479)
(-0.340918 0.861636 0.242544)
(-0.406643 0.877383 0.34411)
(-0.488689 1.34371 0.45419)
(-0.725741 0.663268 0.175318)
(-0.276762 0.663616 0.075)
(-0.431888 0.878148 0.15466)
(-0.462967 1.17107 0.159746)
(-0.750717 0.637615 0.0993338)
(-0.278786 0.609852 0.0347007)
(-0.454787 0.876974 0.0709637)
(-0.467741 1.1412 0.0613504)
(-0.112934 0.176107 0.223824)
(-0.126801 0.221866 0.453254)
(-0.0396638 0.479524 0.163495)
(-0.0782045 0.77933 0.51305)
(-0.325752 0.211686 0.242015)
(-0.381985 0.236608 0.459255)
(-0.133422 0.593997 0.194934)
(-0.252827 0.875963 0.546301)
(-0.529329 0.252781 0.319383)
(-0.628357 0.263178 0.45632)
(-0.237338 0.727234 0.270492)
(-0.42464 0.989932 0.556334)
(-0.699302 0.996791 0.3551)
(-0.369311 1.11104 0.427506)
(-0.705355 0.835351 0.273149)
(-0.843372 0.761005 0.274161)
(-0.422561 1.02907 0.335521)
(-0.271376 1.13276 0.281962)
(-0.434135 0.976398 0.310051)
(-0.493068 0.836538 0.427003)
(-0.856585 0.703914 0.498213)
(-0.541177 1.16209 0.730815)
(-0.39786 1.03828 0.381086)
(-0.520348 0.953546 0.30727)
(-0.574937 0.796639 0.292695)
(-0.554628 0.812709 0.371129)
(-0.68999 1.51357 0.591445)
(-0.125243 0.0637547 0.565512)
(-0.128602 0.0839446 0.548046)
(-0.0772931 0.170394 0.661206)
(-0.0825714 0.349093 0.666486)
(-0.37142 0.0905061 0.552098)
(-0.355461 0.125375 0.553481)
(-0.237976 0.226784 0.663358)
(-0.242046 0.408922 0.660859)
(-0.557007 0.136695 0.509369)
(-0.512015 0.132052 0.529334)
(-0.351679 0.304765 0.63632)
(-0.354027 0.488381 0.64341)
(-0.387637 1.10785 0.355101)
(-0.433777 1.11129 0.377146)
(-0.612836 0.916259 0.346401)
(-0.650108 0.881979 0.366119)
(-0.679056 0.768003 0.420663)
(-0.639308 0.687608 0.421578)
(-0.804071 0.558572 0.492115)
(-0.739324 0.4972 0.479561)
(-0.551332 0.42829 0.621497)
(-0.549993 0.634645 0.629414)
(-0.520506 0.979324 0.324055)
(-0.568222 0.889563 0.355911)
(-0.670881 0.901218 0.365995)
(-0.61771 0.850266 0.391026)
(-0.630043 0.757284 0.408398)
(-0.531444 0.703807 0.441417)
(-0.562246 0.648277 0.47059)
(-0.454035 0.575922 0.516906)
(-0.621638 0.510425 0.619547)
(-0.496913 0.696781 0.674082)
(-0.568403 0.92388 0.378964)
(-0.309755 0.985066 0.258575)
(-0.445732 0.955079 0.306803)
(-0.435977 1.04961 0.309621)
(-0.627065 0.935078 0.425031)
(-0.732685 0.865555 0.484201)
(-0.640282 0.947266 0.345653)
(-0.836426 0.909488 0.457642)
(-0.375283 0.831398 0.281354)
(-0.372095 0.841585 0.286375)
(-0.5143 0.820342 0.357829)
(-0.238617 0.816592 0.256801)
(-0.429717 0.970753 0.129366)
(-0.679852 1.0747 0.223554)
(-0.443551 0.962599 0.0529531)
(-0.724544 1.06322 0.0832581)
(-0.649291 0.958416 0.214067)
(-1.02435 0.946608 0.339357)
(-0.670288 0.946249 0.0839556)
(-1.04665 0.938448 0.127139)
(-0.362699 0.823476 0.108413)
(-0.595656 0.835045 0.195935)
(-0.374333 0.833223 0.0404749)
(-0.644353 0.840687 0.0713846)
(-0.446255 0.710869 0.26757)
(-0.334661 0.703335 0.228579)
(-0.569556 0.48709 0.273392)
(-0.259077 0.581022 0.171114)
(-0.484529 0.716971 0.376676)
(-0.186856 0.692792 0.268719)
(-0.539295 0.500941 0.428447)
(-0.136522 0.600405 0.28621)
(-0.462311 0.691369 0.124839)
(-0.476983 0.693317 0.145727)
(-0.595767 0.48126 0.155576)
(-0.308378 0.581847 0.0884222)
(-0.416198 0.697395 0.0963464)
(-0.54896 0.685508 0.105187)
(-0.546637 0.476646 0.107409)
(-0.391601 0.567934 0.0815533)
(-0.120827 0.0729115 0.476059)
(-0.11287 0.0598981 0.313268)
(-0.0980901 0.0444693 0.102385)
(-0.0779745 0.0408011 0.515674)
(-0.0765295 0.0353415 0.324317)
(-0.0672793 0.0348848 0.11209)
(-0.328023 0.108976 0.468858)
(-0.284629 0.0781005 0.30635)
(-0.250024 0.0614499 0.104099)
(-0.213257 0.0948946 0.515077)
(-0.179528 0.0853033 0.323411)
(-0.152481 0.0743523 0.109538)
(-0.43041 0.116545 0.44799)
(-0.367369 0.113932 0.288262)
(-0.337472 0.121738 0.0965895)
(-0.306881 0.171468 0.506376)
(-0.248954 0.150212 0.318469)
(-0.226473 0.13824 0.109478)
(-0.391293 1.0668 0.269656)
(-0.320275 0.9566 0.153748)
(-0.305549 0.878628 0.0400201)
(-0.608107 0.886035 0.31946)
(-0.456918 0.836188 0.218064)
(-0.373616 0.79354 0.0708738)
(-0.545041 0.604098 0.366695)
(-0.402919 0.581636 0.258281)
(-0.314809 0.569996 0.0871149)
(-0.605095 0.426596 0.405543)
(-0.477677 0.406856 0.263965)
(-0.40467 0.398761 0.0864791)
(-0.464959 0.278692 0.490381)
(-0.318509 0.207605 0.30819)
(-0.239181 0.170609 0.108981)
(-0.731679 0.843229 0.297634)
(-0.599256 0.782777 0.16309)
(-0.534993 0.738389 0.0533839)
(-0.534869 0.839274 0.287497)
(-0.426701 0.787126 0.18593)
(-0.356004 0.756491 0.0645132)
(-0.46992 0.623717 0.323056)
(-0.355832 0.558592 0.212878)
(-0.281873 0.522662 0.0727643)
(-0.417799 0.447659 0.383728)
(-0.314464 0.397545 0.246294)
(-0.251361 0.375052 0.084084)
(-0.44775 0.29486 0.465157)
(-0.27006 0.219637 0.27116)
(-0.16966 0.180546 0.09384)
(-0.455765 1.13135 -0.0197735)
(-0.744328 1.17479 0.03964)
(-0.38587 1.20289 0.0179448)
(-0.554072 1.10647 0.105693)
(-0.369041 1.1037 0.0709699)
(-0.76149 1.10511 0.0718023)
(-0.308548 1.31542 0.183058)
(-0.624037 1.13485 0.160435)
(-0.00778187 0.722561 0.0240756)
(-0.0692393 0.796203 0.0389757)
(0.0095485 0.719777 0.0255134)
(-0.040534 0.710084 0.0408894)
(-0.142505 0.958858 0.0135874)
(-0.268526 0.844558 0.0377738)
(-0.0892828 0.937143 0.0250906)
(-0.161823 0.740969 0.0553781)
(-0.0739037 1.03316 0.0758785)
(-0.157616 1.07927 0.0454522)
(-0.438565 0.885387 0.152969)
(-0.654945 0.995499 0.108228)
(-0.34847 1.16209 0.0700702)
(-0.257929 1.01916 0.115338)
(-0.463507 1.14973 0.117196)
(-0.405137 1.19266 0.0334171)
(-0.620572 1.21665 0.23466)
(-0.664116 1.30293 0.0745972)
(0.0220619 0.988796 -0.164712)
(0.218685 1.01355 -0.0236724)
(-0.334278 0.859715 0.0271973)
(-0.234994 0.846684 0.0284491)
(-0.260293 0.982581 0.00141723)
(-0.150103 0.948118 0.00781506)
(-0.0636544 0.665049 0.413131)
(-0.0407805 0.377695 0.182114)
(-0.0509009 0.62108 0.10969)
(-0.0310501 0.417908 0.0653476)
(-0.156171 0.645395 0.407048)
(-0.0507327 0.369715 0.1848)
(-0.077146 0.597783 0.119675)
(-0.00916511 0.404545 0.0772848)
(-0.398673 0.589979 0.393972)
(-0.120822 0.341989 0.202664)
(-0.298543 0.554962 0.161473)
(-0.0927725 0.384323 0.115161)
(-0.339074 0.544814 0.123934)
(-0.102326 0.399276 0.0813829)
(-0.384174 0.522924 0.0698157)
(-0.127258 0.398684 0.0633022)
(-0.488985 0.905785 0.524432)
(-0.485776 0.71756 0.458561)
(-0.381302 0.88531 0.229968)
(-0.482779 0.720573 0.293914)
(-0.738192 1.01179 0.58674)
(-0.667171 0.908026 0.54798)
(-0.605246 1.01213 0.285687)
(-0.635695 0.890964 0.342672)
(-0.284835 0.816639 0.2098)
(-0.376166 0.567808 0.25313)
(-0.332096 0.850722 0.446132)
(-0.346735 0.550264 0.36835)
(-0.357544 0.900587 0.14647)
(-0.481044 0.72175 0.191843)
(-0.376303 0.923704 0.0845789)
(-0.486315 0.719607 0.111707)
(-0.578337 1.03436 0.191086)
(-0.624663 0.883933 0.223362)
(-0.599688 1.05078 0.11048)
(-0.62994 0.879219 0.128067)
(-0.252304 0.793255 0.119517)
(-0.382456 0.574013 0.167063)
(-0.244829 0.786775 0.0673212)
(-0.388002 0.573518 0.101749)
(-0.0359155 0.48553 0.187634)
(-0.0623956 0.333865 0.13436)
(-0.305946 0.430411 0.213084)
(-0.176144 0.271507 0.144724)
(-0.0350099 0.449233 0.322205)
(-0.0533605 0.298441 0.193826)
(-0.267718 0.403513 0.286513)
(-0.149267 0.248281 0.190206)
(-0.0355338 0.496063 0.111835)
(-0.0562395 0.354189 0.091946)
(-0.323691 0.442075 0.147949)
(-0.193989 0.284587 0.099432)
(-0.0479903 0.498698 0.0630856)
(-0.0611814 0.367748 0.0580952)
(-0.327617 0.444947 0.0937068)
(-0.204839 0.292405 0.0614495)
(0.00663153 0.107036 0.482763)
(0.0122056 0.0578197 0.323995)
(-0.0196215 0.198463 0.238027)
(-0.0139733 0.110333 0.249336)
(0.0327408 0.11067 0.478587)
(0.0535804 0.0668018 0.322622)
(-0.0325882 0.201015 0.235495)
(-0.0228754 0.121855 0.244579)
(-0.0498493 0.120545 0.483743)
(-0.00843882 0.0894068 0.30929)
(-0.106454 0.198876 0.240076)
(-0.0946549 0.140632 0.22736)
(0.307491 0.544322 0.528691)
(0.156397 0.909613 0.509966)
(0.179431 0.351981 0.494131)
(0.116582 0.317937 0.381038)
(-0.00564345 0.224054 0.221612)
(0.283283 0.931479 0.310702)
(0.41564 0.600646 0.375129)
(0.196807 0.336264 0.397441)
(0.196563 0.298362 0.374094)
(-0.00488006 0.173428 0.264528)
(-0.373097 0.898123 0.441308)
(-0.274845 0.651437 0.396193)
(-0.228838 0.47738 0.329283)
(-0.238522 0.348228 0.267349)
(-0.144615 0.211061 0.176315)
(0.0208754 0.0413696 0.279391)
(0.0166978 0.0404055 0.278999)
(-0.00836482 0.0751751 0.281659)
(-0.0132445 0.0707248 0.343388)
(0.058377 0.0515719 0.277627)
(0.0656176 0.0403394 0.269486)
(-0.0237893 0.0916032 0.274989)
(-0.0329851 0.0837304 0.335604)
(0.0485732 0.0729816 0.263828)
(0.0738807 0.0646333 0.253523)
(-0.062174 0.111566 0.260984)
(-0.0765965 0.100261 0.320611)
(0.125437 0.946923 0.349131)
(0.0669304 0.908908 0.330133)
(0.323597 0.60507 0.325941)
(0.23116 0.555475 0.280726)
(0.171904 0.379754 0.244822)
(0.124359 0.367032 0.245921)
(0.153785 0.290275 0.237556)
(0.128491 0.279824 0.248791)
(-0.0178427 0.159338 0.227885)
(-0.050759 0.144217 0.301797)
(-0.196423 0.825669 0.256043)
(-0.135664 0.711939 0.290223)
(0.019721 0.603302 0.214569)
(0.0901291 0.521767 0.244287)
(0.0250622 0.451002 0.191756)
(0.0779844 0.412956 0.219711)
(-0.0204406 0.31825 0.189148)
(0.0240406 0.307722 0.227873)
(-0.0409302 0.195446 0.17349)
(-0.0583494 0.22084 0.276963)
(-0.163268 0.5699 0.189397)
(-0.181208 0.453504 0.151861)
(-0.389896 0.574524 0.12963)
(-0.247784 0.426994 0.0689324)
(-0.344647 0.726123 0.29044)
(-0.337005 0.53977 0.220776)
(-0.519106 0.73555 0.234707)
(-0.406626 0.529507 0.148095)
(-0.301935 0.468422 0.0992475)
(-0.186815 0.379728 0.0569246)
(-0.103582 0.463894 0.146941)
(-0.131936 0.405721 0.132695)
(-0.461668 0.592482 0.169069)
(-0.195104 0.406517 0.0732929)
(-0.495023 0.596737 0.0789246)
(-0.179631 0.410382 0.0434328)
(-0.596418 0.770207 0.219596)
(-0.391373 0.542573 0.125449)
(-0.634512 0.767385 0.090433)
(-0.375388 0.545975 0.0622959)
(-0.363499 0.471137 0.137659)
(-0.13672 0.356047 0.0587915)
(-0.394913 0.47825 0.0702555)
(-0.118296 0.370243 0.0352829)
(-0.232823 0.333408 0.0846206)
(-0.192417 0.307383 0.101432)
(-0.182996 0.216657 0.10561)
(-0.320102 0.294076 0.17884)
(-0.117164 0.338376 0.127649)
(-0.155718 0.322658 0.156189)
(-0.122556 0.220582 0.127542)
(-0.269953 0.29047 0.232573)
(-0.256107 0.331974 0.101424)
(-0.180752 0.298441 0.0742106)
(-0.220912 0.210365 0.0774342)
(-0.367044 0.30727 0.128005)
(-0.307818 0.349061 0.0460767)
(-0.171871 0.300754 0.0185388)
(-0.258844 0.219081 0.017263)
(-0.364403 0.303719 0.0325917)
(0.0230035 0.0979418 0.221003)
(0.0308095 0.0785141 0.101381)
(0.036275 0.0615816 0.0291764)
(-0.00848796 0.36814 0.238728)
(0.00578286 0.180824 0.0636581)
(0.00811475 0.13867 0.0168169)
(0.0838271 0.0900296 0.214662)
(0.102785 0.0843985 0.10533)
(0.11131 0.0718637 0.032869)
(-0.0127362 0.384804 0.236828)
(0.0243946 0.210165 0.0654482)
(0.0299407 0.16953 0.0181227)
(0.101227 0.110971 0.194957)
(0.146532 0.117967 0.0963621)
(0.166089 0.118378 0.0248737)
(-0.0412758 0.403629 0.225072)
(0.0428396 0.258352 0.060528)
(0.060465 0.226463 0.0136784)
(0.0378034 0.820559 0.223091)
(0.0599684 0.745689 0.121823)
(0.0542452 0.692186 0.0320628)
(0.181171 0.525188 0.187882)
(0.195427 0.494814 0.100781)
(0.181867 0.474331 0.0280514)
(0.141708 0.380435 0.184447)
(0.167741 0.366166 0.0926492)
(0.16287 0.358285 0.0264218)
(0.149826 0.333573 0.182123)
(0.190967 0.31588 0.0862958)
(0.198484 0.308204 0.0200284)
(-0.0250751 0.462611 0.213165)
(0.0623903 0.336656 0.0533557)
(0.060123 0.301617 0.00906727)
(-0.159186 0.608618 0.247614)
(-0.0771691 0.547957 0.130156)
(-0.043727 0.50723 0.0402806)
(0.0577312 0.463272 0.213831)
(0.107504 0.423811 0.116556)
(0.123495 0.40065 0.0383734)
(0.0666742 0.407315 0.193544)
(0.121446 0.367738 0.101582)
(0.135402 0.339294 0.0333574)
(0.0392369 0.389461 0.186578)
(0.106726 0.347988 0.0766402)
(0.121033 0.325681 0.0207639)
(-0.0766601 0.595799 0.221573)
(0.0423071 0.418902 0.055078)
(0.0508208 0.382349 0.017528)
(-0.00308027 0.202488 0.0706486)
(0.000312276 0.121484 0.0271541)
(0.00157328 0.0887695 0.0130436)
(0.00329691 0.0825274 0.000579881)
(0.00438795 0.227383 0.0286517)
(0.00428542 0.131226 0.0116266)
(0.00502764 0.0924268 0.00605665)
(0.00510205 0.0846593 0.00123228)
(-0.00839399 0.196423 0.0730743)
(0.000358177 0.119555 0.0291191)
(0.0042456 0.0884683 0.0155237)
(0.00872812 0.0835006 0.00309861)
(0.0100489 0.22571 0.0347501)
(0.00984039 0.131564 0.0156466)
(0.0109337 0.0933779 0.0101001)
(0.0115902 0.0852696 0.00472337)
(-0.0169774 0.185612 0.083895)
(-0.00204162 0.116782 0.0348393)
(0.00454608 0.0892049 0.0202914)
(0.0134192 0.0822654 0.00640792)
(0.00171427 0.219389 0.0599547)
(0.0081961 0.132747 0.03093)
(0.00971756 0.0958401 0.0176037)
(0.0131841 0.0838146 0.00816868)
(0.0019136 0.230316 0.0444511)
(0.00535843 0.138299 0.027748)
(0.00391609 0.0966199 0.0134664)
(0.00435951 0.088807 0.00438939)
(-0.00658759 0.236906 0.0464135)
(-0.000385353 0.144214 0.0316185)
(0.00201676 0.100643 0.0184656)
(0.00469964 0.0922465 0.0102675)
(-0.0430936 0.197776 0.0703049)
(-0.0128526 0.123845 0.0334917)
(-0.00471524 0.0925459 0.0174864)
(0.00767389 0.0833821 0.00191918)
(-0.0647103 0.158616 0.0670249)
(-0.0204868 0.108035 0.0309032)
(-0.0121756 0.0860639 0.0182393)
(0.0107148 0.0784354 -0.00139537)
(-0.0362168 0.17075 0.0883294)
(-0.00969783 0.111682 0.037258)
(-0.00159214 0.0880996 0.0219881)
(0.0129659 0.0765309 0.00499783)
(-0.0527331 0.141681 0.079302)
(-0.0163588 0.100015 0.0329055)
(-0.0104828 0.0822224 0.0203396)
(0.0108224 0.0746016 -0.00243335)
(-0.0398161 0.213799 0.0535031)
(-0.0123966 0.132748 0.0292986)
(-0.00457421 0.0961337 0.0153058)
(0.00646393 0.0876374 0.00206891)
(-0.0713664 0.169129 0.0522332)
(-0.0227225 0.114335 0.0273249)
(-0.0129593 0.0889403 0.0167421)
(0.0132825 0.080935 0.00276418)
(-0.0423316 0.222967 0.0399355)
(-0.0145456 0.139093 0.0255354)
(-0.00449677 0.0994534 0.0161009)
(0.00864351 0.0897108 0.00931797)
(-0.0748753 0.175147 0.0365109)
(-0.024056 0.119014 0.0228727)
(-0.0136392 0.0915667 0.0157223)
(0.0145737 0.0819448 0.00898182)
(-0.00308942 0.152236 0.0904965)
(-0.000169501 0.105063 0.0331138)
(0.000613981 0.0829937 0.0160007)
(0.0029584 0.0778697 -0.00293285)
(-0.00271268 0.0986973 0.0948049)
(-7.74971e-05 0.0854255 0.0322777)
(6.28118e-05 0.0754572 0.0177364)
(0.00310507 0.0717857 -0.00972948)
(-0.00846559 0.14733 0.0902535)
(-0.000692087 0.10333 0.0336043)
(0.00174603 0.0828269 0.0173655)
(0.00784726 0.077839 -0.00167181)
(-0.00474562 0.0978765 0.0910281)
(0.000735062 0.085133 0.0311673)
(0.000758521 0.0753362 0.017692)
(0.00847527 0.0721635 -0.00903924)
(-0.0294892 0.13976 0.0909249)
(-0.00744916 0.100679 0.0345773)
(-0.00138153 0.0827921 0.0200874)
(0.0120379 0.0773176 0.000371063)
(-0.0230279 0.100531 0.0815949)
(-0.00472679 0.0862854 0.0282393)
(-0.00133778 0.0754753 0.0175694)
(0.013512 0.0735335 -0.00648536)
(-0.0150112 0.131513 0.0845411)
(-0.0013968 0.0965179 0.033369)
(0.0022396 0.0810038 0.0221288)
(0.013329 0.0769382 0.00582518)
(-0.0101253 0.101237 0.0899849)
(-0.000296609 0.086433 0.032007)
(0.000195057 0.0767021 0.0226266)
(0.0131541 0.0736212 -0.00627199)
(-0.0447762 0.119475 0.0659044)
(-0.0126714 0.0921069 0.0259512)
(-0.00757902 0.0774843 0.0174648)
(0.0150093 0.0718433 0.00190635)
(0.00138645 0.039579 0.0785926)
(0.00123112 0.0667752 0.0237159)
(0.000905339 0.0599635 0.0132021)
(0.00246344 0.0187425 -0.00917708)
(0.0052086 -0.0301742 0.0309436)
(0.00233085 0.0563997 0.00842931)
(0.00139759 0.0522234 0.00403122)
(0.00151283 0.0179729 -0.00216848)
(0.000691972 0.0463792 0.0775685)
(0.00237785 0.0693145 0.0240788)
(0.00171814 0.0610449 0.013625)
(0.00648262 0.0198049 -0.0081972)
(0.0126459 -0.019759 0.0315215)
(0.00601713 0.0593809 0.00888712)
(0.0034791 0.0531082 0.00447716)
(0.00400479 0.0182853 -0.00162653)
(-0.00399259 0.0572808 0.0728151)
(0.00169822 0.0731195 0.0235008)
(0.00179942 0.0620695 0.014226)
(0.0101444 0.0197094 -0.00636732)
(0.0168562 -0.00369299 0.0303448)
(0.00862555 0.0641459 0.00899244)
(0.00521322 0.0541873 0.00502427)
(0.00614111 0.0183727 -0.000843956)
(-0.00542394 0.0722722 0.0613372)
(0.00218943 0.0777954 0.0201816)
(0.00227683 0.0635686 0.0136978)
(0.0134461 0.0209724 -0.00433487)
(0.0170291 0.0146426 0.0267438)
(0.0100941 0.0699436 0.00797934)
(0.00593231 0.0559515 0.00539772)
(0.00726722 0.0190384 0.000167395)
(-0.0145233 0.0930343 0.0538186)
(0.000319695 0.0840377 0.0188946)
(-0.000666802 0.0662998 0.0133674)
(0.0130914 0.0234501 -0.00158352)
(0.00862394 0.0323541 0.0240846)
(0.00899934 0.0753399 0.00810146)
(0.00459058 0.0576796 0.0060894)
(0.00673652 0.0195839 0.00160985)
(-0.0461531 0.106913 0.042337)
(-0.00561829 0.0913307 0.0183418)
(-0.00493859 0.0680467 0.0110676)
(0.0123651 0.0218938 0.000731837)
(-0.0140199 0.0276857 0.0221385)
(0.00291775 0.0812632 0.011284)
(0.001445 0.0613334 0.0070062)
(0.00490139 0.020391 0.00371249)
(-0.0306376 0.105069 0.0451131)
(-0.00171911 0.0881157 0.0166585)
(-0.00316995 0.0665171 0.0111952)
(0.0125589 0.0220016 -0.000418508)
(-0.00533346 0.0303854 0.0219249)
(0.00602961 0.0790221 0.0090666)
(0.00293729 0.0593543 0.00637817)
(0.00587993 0.0198636 0.00277989)
(-0.0593224 0.105896 0.0376301)
(-0.0110209 0.0937097 0.0196871)
(-0.00740252 0.0695833 0.0119245)
(0.0133095 0.0206108 0.00292602)
(-0.0198675 0.022908 0.0224766)
(-0.000412944 0.0833481 0.0133655)
(-0.000110201 0.0629077 0.00816681)
(0.00437347 0.0204411 0.00506781)
(-0.068648 0.105312 0.0293646)
(-0.0168672 0.0968264 0.0190169)
(-0.0102925 0.0724431 0.0127776)
(0.0131491 0.0212787 0.00764647)
(-0.0254279 0.0292648 0.0208454)
(-0.0046243 0.0865328 0.0144214)
(-0.00208206 0.0651058 0.00970173)
(0.0036832 0.0210233 0.00720134)
(0.00132287 0.0785323 0.000624753)
(0.000631225 0.060347 0.00047048)
(0.000334686 0.0421611 0.000304498)
(0.000198363 0.0248044 0.00019725)
(0.00014396 0.00817608 0.000148013)
(0.00180851 0.0787225 0.000355393)
(0.00095609 0.0604161 0.000242894)
(0.000531474 0.0422115 0.000154801)
(0.00032249 0.0248326 0.000100705)
(0.000235924 0.00818492 7.61462e-05)
(0.00283144 0.0799345 0.00146396)
(0.00134232 0.0608437 0.000978278)
(0.000708579 0.042389 0.000604098)
(0.000421211 0.0249077 0.000385023)
(0.000308128 0.00820586 0.000286967)
(0.00476688 0.079902 0.00153486)
(0.00260151 0.0609941 0.000958411)
(0.00147019 0.0425025 0.000573663)
(0.00090299 0.0249694 0.00036143)
(0.000664995 0.00822506 0.000268443)
(0.00402835 0.0807872 0.003446)
(0.00193316 0.0613812 0.00222703)
(0.00103868 0.0426427 0.00135132)
(0.000625366 0.0250228 0.00085936)
(0.000460655 0.00823906 0.00064114)
(0.00684875 0.0802756 0.00680441)
(0.0036987 0.0618076 0.00411643)
(0.00211012 0.0429412 0.00246082)
(0.00130742 0.0251814 0.00155443)
(0.00096726 0.00828834 0.00115568)
(0.00231953 0.0830226 0.0069891)
(0.00121499 0.0629152 0.00433749)
(0.000694656 0.0435633 0.00262698)
(0.000432517 0.0254957 0.00166974)
(0.000320632 0.00838404 0.00124614)
(0.00131268 0.0845165 0.00757985)
(0.000661007 0.0639578 0.00456478)
(0.000368627 0.0441892 0.00273419)
(0.000227854 0.0258175 0.00173151)
(0.000168212 0.00848256 0.00129225)
(0.00356246 0.0829799 0.00455852)
(0.00160967 0.0624884 0.00297589)
(0.000869318 0.0432185 0.00182701)
(0.000528354 0.0253036 0.00116663)
(0.000387987 0.00832361 0.000868175)
(0.000826938 0.0852772 0.0035923)
(0.000241166 0.0628246 0.00234028)
(0.000102655 0.0432782 0.0014394)
(5.54238e-05 0.025316 0.000922438)
(3.88725e-05 0.00832562 0.00068773)
(0.00524077 0.08152 0.00473853)
(0.0026503 0.0619627 0.00297453)
(0.00148659 0.0429102 0.00179494)
(0.000916853 0.0251452 0.00114316)
(0.000677745 0.00827459 0.000852116)
(0.00146389 0.0846811 0.00366941)
(0.000592442 0.0624941 0.00210484)
(0.000306692 0.04309 0.00124885)
(0.000182534 0.0252198 0.000793604)
(0.000132276 0.00829582 0.000589299)
(0.00126886 0.0840727 0.00509655)
(0.000348296 0.0631087 0.00347948)
(0.000138095 0.0435925 0.00216047)
(7.25588e-05 0.0254976 0.00138517)
(5.06453e-05 0.00838343 0.00103523)
(0.000858825 0.0862789 0.00493162)
(0.000269799 0.0634342 0.00321733)
(0.00012275 0.0436407 0.00197722)
(6.99227e-05 0.0255037 0.00126535)
(5.03612e-05 0.0083836 0.000944837)
(0.00121472 0.0850796 0.00675809)
(0.000317789 0.0641989 0.00416875)
(0.000120277 0.0442706 0.00250915)
(6.21639e-05 0.0258488 0.0015912)
(4.20281e-05 0.00849132 0.00118722)
(0.000620916 0.0874578 0.00648741)
(9.4956e-05 0.0644916 0.00401945)
(1.51642e-05 0.0443002 0.00242329)
(1.50853e-06 0.025847 0.00153736)
(-1.43052e-06 0.00848958 0.0011456)
(0.0010758 0.0783988 0.000281699)
(0.000476459 0.0602994 0.000373653)
(0.000241769 0.0421097 0.00025296)
(0.000139238 0.024774 0.000165224)
(9.97518e-05 0.00816645 0.000124378)
(0.00100147 0.0795768 3.68906e-06)
(0.000448463 0.0603404 0.000139809)
(0.000228711 0.0420833 9.94477e-05)
(0.000131826 0.0247561 6.62567e-05)
(9.44492e-05 0.0081607 5.06958e-05)
(0.00247299 0.0793366 0.000779538)
(0.00108002 0.0606998 0.000652051)
(0.000549653 0.0422841 0.000416717)
(0.000318098 0.0248501 0.000268698)
(0.000229392 0.00818788 0.000202087)
(0.00232592 0.0804358 0.000109559)
(0.00101815 0.0607006 0.000203609)
(0.000521112 0.0422372 0.000137426)
(0.000301671 0.0248224 9.02511e-05)
(0.000216572 0.00817938 6.91181e-05)
(0.00322245 0.0807613 0.00128476)
(0.0013209 0.0612374 0.0010015)
(0.000666723 0.0425112 0.000627536)
(0.000384845 0.0249493 0.000404637)
(0.000277806 0.00821586 0.000305645)
(0.00280167 0.0822137 0.000738483)
(0.00125107 0.0612177 0.000524237)
(0.000655291 0.0424484 0.000314337)
(0.000383199 0.024914 0.000197588)
(0.000278171 0.00820509 0.000149094)
(0.00377588 0.0828744 0.00396987)
(0.00187481 0.0618297 0.00245929)
(0.00104257 0.0427629 0.00146701)
(0.000637781 0.0250621 0.00093569)
(0.000471514 0.00824808 0.000702023)
(0.00186499 0.0840224 0.00198154)
(0.000914499 0.0617067 0.00122276)
(0.000498026 0.0426738 0.000721199)
(0.000296816 0.0250166 0.000457735)
(0.000218781 0.00823395 0.000344204)
(0.00217721 0.0841681 0.00504543)
(0.00112987 0.0622066 0.00270764)
(0.000641238 0.0429409 0.0015641)
(0.000397922 0.0251459 0.00098354)
(0.000294817 0.00827291 0.000730551)
(-0.020376 0.337567 0.0966918)
(-0.0245297 0.521995 0.16777)
(-0.0561113 0.35606 0.0910786)
(-0.0696406 0.536884 0.162728)
(-0.0858197 0.386787 0.0846763)
(-0.11134 0.561212 0.15133)
(-0.104314 0.423498 0.082424)
(-0.147427 0.603624 0.145414)
(-0.104245 0.464258 0.0901906)
(-0.147161 0.676347 0.166465)
(-0.0940851 0.42934 0.0526552)
(-0.124088 0.529862 0.0775053)
(-0.0877968 0.440688 0.0734466)
(-0.105764 0.567442 0.116403)
(-0.106365 0.427245 0.0346986)
(-0.143903 0.523588 0.0463293)
(-0.109947 0.422296 0.0134044)
(-0.149978 0.522217 0.018464)
(-0.0196919 0.270742 0.286035)
(-0.00430829 0.0484528 0.0688315)
(-0.000936788 0.0106527 0.0157739)
(-0.000198573 0.00239275 0.00349145)
(-4.81594e-05 0.000421552 0.000873582)
(-0.0084786 0.322137 0.0761695)
(-0.00303632 0.0889291 0.0201841)
(-0.000336671 0.0216427 0.00540185)
(-9.49952e-05 0.00490627 0.001209)
(-3.78282e-05 0.000856866 0.000269211)
(-0.0635885 0.277252 0.283991)
(-0.0140144 0.0478564 0.067385)
(-0.0030651 0.0103267 0.0153276)
(-0.000654725 0.00229819 0.00336768)
(-0.000159949 0.000402578 0.000838703)
(-0.0220106 0.328984 0.0786917)
(-0.00468563 0.0894884 0.022897)
(-0.000949356 0.021497 0.00562471)
(-0.000184997 0.00480984 0.00130301)
(-3.95667e-05 0.000837048 0.00032603)
(-0.112046 0.289116 0.274257)
(-0.0248379 0.0480437 0.0639513)
(-0.00546404 0.0101078 0.0143873)
(-0.00117775 0.00221963 0.00313638)
(-0.000290258 0.000386186 0.000776635)
(-0.038451 0.342202 0.0763949)
(-0.00910946 0.0910582 0.0221559)
(-0.0020073 0.0214767 0.00540088)
(-0.00043644 0.00474808 0.0012384)
(-0.000105231 0.000820367 0.000306915)
(-0.160813 0.303457 0.257622)
(-0.0358489 0.0480529 0.0588822)
(-0.00796363 0.0098552 0.0131237)
(-0.00173628 0.00214291 0.00284962)
(-0.000433248 0.000371716 0.000704975)
(-0.0539214 0.359228 0.0735343)
(-0.0139378 0.0930412 0.0208464)
(-0.00328478 0.021604 0.00497956)
(-0.000751473 0.00474102 0.00112337)
(-0.000190148 0.000816672 0.000274471)
(-0.224383 0.31551 0.226249)
(-0.0514525 0.0480004 0.050911)
(-0.0116747 0.00977911 0.0113331)
(-0.00259216 0.00213699 0.00246985)
(-0.000658077 0.00037298 0.00061504)
(-0.0717482 0.374953 0.0685477)
(-0.0209804 0.0947515 0.0185446)
(-0.00524473 0.0219663 0.00432884)
(-0.00123977 0.00484584 0.000964265)
(-0.000322228 0.000839428 0.00023342)
(-0.3028 0.307366 0.1273)
(-0.0757945 0.0555596 0.0305714)
(-0.0181555 0.0125571 0.00704488)
(-0.00419594 0.00291496 0.00157047)
(-0.00109846 0.000526831 0.000397783)
(-0.0831529 0.34621 0.0349065)
(-0.0258119 0.0986 0.00886769)
(-0.00666777 0.0246795 0.00192654)
(-0.00160538 0.00575601 0.000397358)
(-0.000424334 0.00103491 9.05534e-05)
(-0.275752 0.312319 0.17755)
(-0.0668889 0.0526051 0.0414503)
(-0.0156358 0.0113302 0.00938288)
(-0.0035434 0.00255036 0.00206615)
(-0.000913274 0.000452488 0.000519161)
(-0.0805508 0.35851 0.0487053)
(-0.0252359 0.0973263 0.0127358)
(-0.00650862 0.0234379 0.00291076)
(-0.00156334 0.00530408 0.000640391)
(-0.000409701 0.000934538 0.000154192)
(-0.315675 0.304803 0.0798309)
(-0.0800907 0.0575188 0.0196623)
(-0.0194246 0.013374 0.0045963)
(-0.00453909 0.00316796 0.00103457)
(-0.00119875 0.000580111 0.00026351)
(-0.0849019 0.342542 0.0223119)
(-0.0256209 0.0994285 0.00579733)
(-0.00651668 0.0254183 0.00123821)
(-0.00155139 0.00604366 0.000243023)
(-0.00040886 0.00110243 5.27711e-05)
(-0.325253 0.302981 0.0293188)
(-0.0822846 0.0567254 0.00730604)
(-0.0200451 0.0132473 0.00172114)
(-0.00471033 0.00316366 0.000390056)
(-0.00125044 0.000583168 9.98829e-05)
(-0.0848633 0.340452 0.0108326)
(-0.0256824 0.0986937 0.00255664)
(-0.00652739 0.0254057 0.000513168)
(-0.00144262 0.00608819 0.000138888)
(-0.000403057 0.0011167 1.98713e-05)
(-0.0100822 1.41535 -0.0494071)
(-0.260166 1.96834 0.025123)
(-0.255717 1.76249 0.166504)
(-0.144744 1.33155 -0.14211)
(0.14723 0.745451 0.0389154)
(0.202534 0.782298 0.0415068)
(0.40826 1.18767 0.104008)
(0.536644 1.19035 0.126854)
(0.231625 0.800645 0.0858726)
(0.467878 0.854379 0.138628)
(0.090264 1.27535 0.114438)
(0.283045 1.69707 0.172912)
(0.229152 1.88401 0.10911)
(0.380243 2.55539 0.142553)
(0.417226 0.960959 0.0521809)
(0.575307 1.05469 0.0760878)
(0.50302 0.777352 0.0569066)
(0.572119 0.757485 0.0662674)
(0.287275 0.539205 0.0397685)
(0.324978 0.554042 0.0412059)
(-0.755383 0.16627 0.114836)
(-0.565161 0.118651 0.0906347)
(-0.17871 0.0330896 -0.0145524)
(-0.139685 0.026216 -0.0368935)