/*--------------------------------*- C++ -*----------------------------------*\
| =========                 |                                                 |
| \\      /  F ield         | OpenFOAM: The Open Source CFD Toolbox           |
|  \\    /   O peration     | Version:  2412                                  |
|   \\  /    A nd           | Website:  www.openfoam.com                      |
|    \\/     M anipulation  |                                                 |
\*---------------------------------------------------------------------------*/
FoamFile
{
    version     2.0;
    format      ascii;
    arch        "LSB;label=32;scalar=64";
    class       volScalarField;
    location    "2.3";
    object      gradTy;
}
// * * * * * * * * * * * * * * * * * * * * * * * * * * * * * * * * * * * * * //

dimensions      [0 -1 0 1 0 0 0];

internalField   nonuniform List<scalar> 
5712
(
12781
7022.2
22271
14577.2
21442.7
18226.3
31628.4
39160.9
48132.2
60916.3
25489.8
22386.1
15696.1
10810.4
10354.4
5894.61
21287
19237.1
19229.1
19060.1
24441.4
23478.4
28213.2
24305
7529.04
5286.27
3919.67
2711.26
10969.2
7091.26
6078.47
3938.44
21595
22887.5
19396.8
15850
15698.5
12242.1
13282.2
12678.1
17764.8
17444.5
36125
39772.7
25908.9
27379.6
18646.6
14676.1
19060.2
13388.3
8096.25
6983.78
6032.25
8915.43
2999.28
4064.04
7999.63
11906
5022.92
6856.73
8168.73
14274.2
6225.87
10189.5
1949.61
6849.47
342.613
4905.32
18272.1
21992.6
19150.5
21755.5
23092.1
23536.6
23511.8
22949
17035.4
20592.6
17049.1
20312.9
19176.5
21578.9
18811.7
21426.1
23671.7
22604.2
23665.4
22407.5
15988.7
20620.1
14581.4
20522.3
17516.9
18702.4
22065
30800.5
18332.1
21540.9
21934.6
33592.6
16581.7
16590.4
21953.7
29276.8
15940.4
15246.3
21924.4
28529.9
4402.66
5546.66
11988.1
19483.2
5292.16
5915.21
14849.9
21899.1
6319.51
6579.46
18180.9
24748.3
24919.8
27776
20883.8
19025.1
25726.8
28319.1
24409.9
20913.4
17597.9
29052.3
25957.1
23838.6
19916
20317.7
37839.2
1593.87
2098.61
4259.86
8727.32
2262.65
3134.37
5669.6
10223
3417.38
3301.3
7619.14
12209.5
27696.2
27782.3
22906.5
22049.5
19200.1
17190.2
13964.3
12430
10707.3
15866.1
24483.1
22239.1
22530.4
21256.7
18932.1
17595.2
16206.9
14398.1
12760.6
17419.5
23097
24626.7
23877
26240.3
23376.9
21638.9
23681.7
22737.2
20784.9
21039.6
20508.5
20414.8
24268.8
26867.5
24065
26580.4
23960.4
23665.2
23656.2
23461.2
20586.9
20876.1
20830.6
21017.2
17771.7
17583.4
12177.3
14525.5
17924.3
17319.8
12523.5
15010.1
17284.2
17332.9
12031.5
14546.2
17434.9
17137.7
11916.2
14198.3
1822.79
1497.45
1111.73
1020.03
883.537
872.119
2724.4
1952.51
1536.25
2372.37
2132.58
1858.81
2913.63
2848.29
3043.44
4286.71
3755.3
3455.99
26669.9
23915
21965.7
22150.9
20904.7
19838.5
15102.5
14540.9
14249.9
10664.9
10171.4
9969.01
6967.31
5190.13
4265.21
21080.7
19569.4
18459.7
20981.8
19678.2
18912.3
15592.9
13964.8
13066.5
11191.5
9938.62
9376.3
7371.5
5490.91
4513.66
28283.7
29369.8
30072.2
27661.7
27592.5
27627.7
32885.6
28371.4
18064
19905.1
17994.4
17752.1
23971.5
21113.9
23428.6
18524.2
25829
26981.7
22134.7
24887.5
29052.4
25478.9
28743.3
29816.5
30416.3
32573.2
24719.9
25338.8
21492.9
21167.1
24564.5
23702.9
16626.2
9442.36
15527
10447.7
16134.9
9242.87
14944.6
10113.6
14749.5
8549.74
13874
9608.09
13620.3
9981.91
13073.1
9967.1
22644.6
17939
22132.7
18014.3
25294.7
22700.6
25303.3
22274.1
20416
14195.2
21268.1
13756.6
22514.7
18043.7
23092.6
17990.2
25859
22098.3
26269.4
21980.5
19831.4
14350.3
19669.4
14338
12138.2
8346.62
10760.3
6787.68
11230.8
7461.03
10087.8
6207.03
12401.6
8854.73
11051.9
7114.67
12467.4
9193.7
11123.7
7310.12
2675.9
1445.49
4961.57
2758.32
2766.74
1670.05
5025.37
3046.38
3013.61
2235.17
4971.9
3515.81
13608.1
22740.3
8799.53
7948.43
5601.35
23287
15016.2
8406.6
7459.06
4335.69
22453.1
16285.9
11934.5
8705.7
5276.52
1034.24
1010.14
1879.38
1768.12
1289.3
1008.48
2290.08
2093.26
1824.54
1615.83
2789.15
2506.52
23673.1
22722.7
15126.8
13886.9
9493.86
9175.79
7256.86
6995.59
3983.45
3605.41
20641.7
17798.5
15082.5
13044.2
11275
10323.9
7956.25
7693.06
4886.14
5521
14247.5
11337.6
14363.1
10674.8
18153.1
13494.2
18388.8
13237.7
11710.5
9493.2
11597.4
10143
14812.1
10162.9
14918.4
10259.5
19255.2
13564.3
19184.6
13649.4
11778.4
8901.18
11956.2
9256.08
8335.2
7684.57
5416.43
7351.91
8459.4
8066.46
5514.56
7261.76
8299.36
7461.02
5259.12
7681.75
8726.53
7518.86
5477.02
7592.97
2448.54
1962.85
1539.54
9203.51
4520.59
3466.74
2250.74
2109.96
1796.59
9620.1
5254.11
4238.26
2774.26
2949.17
2959.46
10090.7
6458.81
5661.57
20514
18642.2
17304.6
13129.7
12370.3
11858.3
9510.89
9154.14
8957.13
8339.32
7897
7705.09
11565.3
8416.39
7540.42
15215.5
13698.9
12680.7
11581.8
10595.3
10016.3
10182.9
9193.46
8482.34
9736.52
8699.69
8142.02
14895
10472.5
9558.73
5062.2
3037.1
2219.24
2063.18
5684.58
3280.64
2310.67
2116.48
4910.58
2988.86
2211.71
2087.52
5642.75
3289.1
2334.45
2131.74
4640.29
2919.55
2230.12
2056.63
5484.72
3318.69
2396
2095.37
5757.91
3457.48
2415.5
2220.17
5922.64
3605.36
2516.09
2306.16
4944.41
3096.12
2313.65
2084.55
3965.41
2700.87
2151.6
1960.89
4268.74
2792.04
2202.49
1913.27
3542.04
2500.37
2055.56
1865.04
5344.97
3318.69
2403.34
2190.93
4228.23
2858.38
2223.51
2023.37
5574.19
3477.32
2486.34
2242.77
4378.67
2975.36
2289.17
2048.62
3805.91
2626.58
2074.84
1946.74
2467.43
2135.64
1886.43
1794.64
3683.26
2583.26
2070.67
1945.98
2446.91
2128.32
1883.4
1804.09
3494
2516.98
2069.8
1932.94
2513.27
2157.13
1886.88
1838.34
3287.82
2412.95
2025.09
1923.45
2530.91
2160.82
1917.55
1840.53
2986.89
2302.67
1937.11
1796.08
989.476
1669.38
1499.09
468.563
-754.355
1409.99
1305.59
449.323
1159.48
1732.86
1526.12
495.123
-493.975
1484.52
1327.71
457.132
1432.02
1827.99
1551.74
492.734
-92.3249
1603.65
1354.68
459.318
1806.81
1944.88
1589.21
524.31
366.064
1748.59
1398.79
475.961
2325.86
2100.94
1657.5
586.253
808.852
1883.5
1441.99
489.597
2672.83
2283.27
1701.17
547.345
692.142
2031.58
1533.34
509.776
2626.74
2202.89
1662.93
550.04
759.635
1975.55
1483.86
496.589
2647.39
2342.74
1739.58
515.27
572.699
2083.7
1572.69
511.027
2632.79
2420.66
1811.08
531.968
731.619
2163.32
1627.64
525.582
1963.31
1508.68
1054.03
620.11
204.402
1968.06
1510.4
1055.29
620.815
204.623
1998.36
1521.09
1059.72
622.692
205.147
1997.55
1524.85
1062.56
624.234
205.627
2019.68
1534.53
1066.07
625.57
205.977
2006.89
1545.19
1073.53
629.536
207.208
2075.56
1572.88
1089.08
637.391
209.601
2112.91
1598.94
1104.73
645.438
212.064
2074.5
1562.21
1080.46
632.591
208.09
2131.93
1570.61
1081.95
632.9
208.141
2038
1549.07
1072.76
628.63
206.865
2117.03
1562.35
1077.25
630.496
207.395
2101.82
1577.72
1089.81
637.441
209.586
2156.97
1585.85
1091.02
637.592
209.59
2126.99
1604.97
1106.76
646.219
212.283
2186.45
1612.29
1107.5
646.174
212.24
1959.97
1507.48
1052.74
619.35
204.161
1989.42
1508.51
1052.08
618.902
204.017
1983.42
1517.49
1057.1
621.252
204.697
2010.9
1517.52
1055.93
620.561
204.484
2019.03
1530.93
1062.78
623.732
205.397
2055.34
1530.44
1061.21
622.849
205.127
2071.86
1545.74
1069.07
626.553
206.202
2100.56
1542.67
1066.85
625.414
205.849
2104.2
1555.17
1073.52
628.649
206.823
8439.18
13049.9
8901.49
13422.1
9669.67
14030.3
10587.4
15090.6
11606.4
16908.7
10733.5
13246.6
11017.2
14186
10681.1
13089.7
10557.4
13055.4
6768.55
1211.32
266.318
59.8188
10.5388
8053.42
2223.23
541.067
122.657
21.4217
6931.31
1196.41
258.168
57.4546
10.0645
8224.61
2237.21
537.426
120.246
20.9262
7227.9
1201.09
252.695
55.4907
9.65464
8555.05
2276.46
536.918
118.702
20.5092
7586.43
1201.32
246.38
53.5727
9.2929
8980.71
2326.03
540.1
118.525
20.4168
7887.74
1200.01
244.478
53.4247
9.32449
9373.82
2368.79
549.158
121.146
20.9857
7684.14
1388.99
313.926
72.8741
13.1708
8655.25
2465
616.988
143.9
25.8728
7807.97
1315.13
283.255
63.7589
11.3122
8962.76
2433.16
585.948
132.602
23.3635
7620.07
1437.97
334.351
79.199
14.5028
8563.54
2485.71
635.456
151.092
27.5606
7574.52
1418.13
331.183
79.0914
14.5792
8511.3
2467.34
635.144
152.205
27.9175
35383.8
49208.5
44062.3
33288.7
18636.3
19557.4
29691.6
29758.7
20016.1
21359.5
31883.7
42426.8
47100.2
63884.6
24024
26367.2
19433.8
18937.1
13480.1
13851.1
4156.75
2966.26
827.24
655.4
781.871
673.417
813.875
4167.26
4273.45
2756.18
3682.58
3340.87
1582.8
2202.69
1929.9
1319.74
1492.57
1251.84
3624.48
2172.16
1414.36
1302.22
1585.33
1376.71
1086.4
1093.76
1032.23
929.641
1187.54
1114.27
3713.09
2411.05
2558.35
1807.46
1530.49
2116.73
1120.27
906.399
1240.71
8797.73
9246.37
9595.48
11935.6
20965.2
6697.25
7726.14
8510.97
10079.7
11886.3
2182.33
3132.25
3866.49
4375.41
4639.92
1739.38
2518.27
3128.67
3550.34
3766.96
2069.25
2982.37
3688.48
4170.47
4416.21
1787
2586.25
3210.61
3639.57
3858.79
2150.11
3091.51
3818.37
4317.34
4573.83
9232.3
10013.1
10047.1
11496.8
18966.9
9161.53
9624.53
9668.25
10568.5
12742.7
6394.92
7556.68
8165.13
9022.08
9939.06
8044.33
8695.8
8786.19
9232.82
10197.3
7400.54
8175.13
8267.38
8589.66
9200.48
3966.71
5281.02
6154.67
6771.41
7136.5
5264.84
6529.23
7246.17
7860.75
8344.57
4700.82
5981.97
6721.6
7249.73
7588.21
3380.93
4644.9
5530.06
6124.52
6441.83
3765.71
5056.73
5914.74
6490.99
6808.81
3225.73
4467.68
5346.68
5928.53
6230.35
8226.94
9254.86
9564.01
11220.6
18649.5
5255.95
6617.38
7484.16
8393.1
9171.09
3603.03
4912.72
5832.9
6485.58
6859.61
3346.39
4621.89
5544.48
6200.69
6570.27
3989.87
5344.07
6288.34
7028.69
7507.45
3526.81
4846.26
5804.12
6516.34
6929.92
2830.01
3987.49
4860.68
5482.77
5820
2850.66
4018.83
4892.82
5501
5825.12
2701.48
3828.78
4668.11
5231.18
5518.61
2445.08
3491.6
4285.39
4823.73
5099.22
3075.57
4294
5179.01
5778.88
6095.06
2900.75
4081.57
4956.47
5556.29
5872.81
8165.15
8937.8
9324.41
11346.9
19305.9
5669.42
6917.87
7818.77
9065.77
10314.8
6427.1
7946.2
8643.06
10120.3
11719.6
4508.75
5930.67
6934.25
7882.6
8530.58
3889.49
5269.77
6261.51
7058.38
7541.28
5215.89
6628.51
7513.21
8527.6
9215.06
2914.24
4097.53
4983.41
5609.21
5947.74
2384.34
3406.76
4186.75
4721.5
4997.96
3203.43
4454.71
5372.84
6026.12
6388.31
18933.7
12321
20072.8
15141.5
24274.8
34297.6
25873.8
35737.7
20989.3
20578.7
18525.8
19245.9
22177.1
22054.3
27203.3
23367.4
14521.8
12710
6498.18
5125.47
16937.7
13464.5
9011.74
6019.27
21800.7
24013.6
20018.6
17852.2
20819.7
13920.9
13127.4
12678.1
17793.2
17452.7
36012.5
39781.9
25484.9
27270.3
19077
14794.9
19559.3
13487
8508.37
7061.73
13320.1
15924.8
5395.18
6513.99
14290.2
17814.6
7264.93
9151.74
12492.7
18111.2
7816.95
11961.5
2214.78
7477.9
360.776
5028.04
18633.2
20503.4
18897.7
20947.8
21564.7
21497.4
22544.1
21824.2
17502
20244.4
18758.1
19668.9
19001.1
21163.8
18749.6
21290.4
23180.4
22029.2
23525.3
22222.2
16114.6
20432.5
14594.2
20458.4
18067.8
19765.8
22178.6
31165.9
19282.3
23552.6
22185.2
34374
16831.2
17071.4
21991
29434.8
16005.2
15375.1
21930.2
28574.6
17782.2
20297.6
23359.1
32915.5
16981.3
18356.1
24120.4
32676
14845.6
15355.6
24298.2
31361.1
18829.8
20787
19182
19568.3
28686.9
20393.7
17782.2
20218.2
18152.9
32639.1
20628.3
19599.9
18143.8
20734.7
39337.3
12890.5
12393.4
10683.9
13346.8
12556.3
12194.4
10909.1
13834.2
11553.1
10565.9
10786.1
13923.8
20023.1
19518.9
17295.6
16574.1
18434.7
17013.8
14550.6
12996
11969.7
15885
19911.6
18705.7
18941.2
18532.3
17251.3
16143.2
16188
14032
12898.5
16449.6
21137.3
22813.1
22757.5
25119.5
21113.1
19907.4
22441.2
21750
20098.7
20280.2
19355
19209.8
23727.3
26347.7
23902.2
26425.4
23370.1
23223.5
23481.1
23330.4
20236.7
20489
20723.2
20903.4
17474.3
17153.2
12098.2
14309.2
17546
16708.5
12506.9
14686.7
17110.5
17092
11965.4
14412.6
17376
17060.7
11889.9
14151.3
12031.3
13017.4
4631.29
4757.74
11722.7
11837.2
5312.4
5530.58
9476.84
9250.2
5795.37
5643.78
19066.3
18160.2
17090.4
16912.7
15253.8
14798.8
11178
10291.3
7315.47
5697.94
18619.7
17865.5
19306.7
18388.4
14663.7
13409.2
10957.9
9831.05
6655.42
5186.58
23648.8
23662.6
27842.6
24986.1
25007.7
24204
32637.7
26873.5
19282.8
15160.2
20605.2
16228
20162.4
15214
21467
16197.3
22278
20647.2
19611.4
19083.7
20876.3
22123.4
27429.4
29421.9
29607.2
32326.1
23026.5
24806.7
20382.2
20852.7
22803
23178.6
12717.1
10166.5
13707.7
10544.4
12376.2
9887.14
13359.4
10220
11766.3
9107.28
12614.6
9620.07
12885
9912.94
12854
9932.98
18616.2
16651.9
20222.8
17129.9
22064.2
20470.9
23714.1
21008.2
18492.5
13817.3
17282.6
13485.8
21579.6
17543.1
22812.7
17822.6
25067
21438.8
26035.2
21766.2
18913.7
14088.3
19405
14242.2
11658
8641.59
10883.7
7206.52
10981.4
8359.87
10658.7
7110.54
12061.4
8936.13
11052.7
7309.84
12346.8
9200.91
11119.8
7381.69
11120.3
11633.1
9429.66
9091.5
10626.3
11274.7
9086.18
8753.83
9967.41
10460.5
8243.44
7842.18
16546.2
20572.6
14595.9
10291.5
7953.15
20035.6
17671.3
16149.4
10505.3
7505.53
20050.6
16533.1
13438.2
10783
7125.38
13425.9
16226.4
9782.13
11316.4
12635.1
14666
9156.15
10399.3
11236.3
12411.3
7753.41
8150.16
19439.6
18201.5
15956.1
15048.1
14756
15383.1
10887.4
11774.7
7370.94
7501.55
18106.7
15647.7
14954.8
13041.6
12768.3
12078.4
10299.4
10391.6
6779.07
7764.4
13844.2
11388.7
14101.8
10772.5
16694.2
12663.8
17562.5
12849.5
11913.1
9937.76
12046.6
10945
14634.8
10203.4
14854.9
10266.4
18831.1
13388.1
19054.4
13597.9
11813.2
9071.56
11935.7
9289.61
8765.69
8302.65
5909.92
8172.11
9413.32
9290.48
6545.24
8800.95
8457.59
7721.15
5482.47
8101.76
8781.92
7603.7
5570
7728.69
21516.7
22675.9
27026.1
22416.5
18653.3
19710.7
25318.6
21116.3
15189.6
16003.4
21883
18594
17038.6
16185.2
14927.5
14734.4
16232.8
16517.6
13971.6
13695.9
20655.3
17961.9
13506.2
13059.8
12038.1
12068.3
12499.4
12443.6
13387.4
12989.6
21847.1
18156.4
6468.72
4006.55
2816.2
2516.96
6673.18
4096.01
2855.26
2543.65
6193.87
3893.78
2755.47
2507.03
6488.76
4003.24
2805.4
2505.73
5736.14
3723.79
2696.48
2406.97
6113.87
3892.21
2790.59
2399.03
6119.15
3820.6
2699.11
2443.77
6039.83
3730.15
2610.12
2384.33
5519.69
3559.59
2626.44
2338.91
4474.33
3101.92
2404.42
2167.57
5233.77
3467.49
2606.12
2213.73
4377.92
3107.76
2402.19
2119.22
5648.48
3586.3
2593.31
2351.85
4503.49
3084.31
2383.47
2166.58
5664.3
3567.27
2554.63
2300.77
4469.08
3049.27
2345.61
2097.92
6032.19
3825.22
2748.67
2427.64
5326.76
3544.16
2638.5
2288.76
5711.8
3719.37
2702.97
2399.3
5017.38
3458.53
2600.54
2282.41
5240.46
3553.64
2643.84
2342.92
4593.07
3327.06
2529.05
2278.01
4741.87
3304.76
2503.81
2257.51
4278.65
3195.28
2466.48
2207.01
4224.45
3095.87
2373.24
2066.46
4089.13
3178.27
2205.97
636.068
1896.88
2932.62
2019.26
638.76
3906.06
3142.67
2199.07
660.946
1874.1
2904.27
2007.95
640.044
3635.76
3063.44
2148.83
637.766
1806.66
2846.36
1965.98
624.497
3608.52
2995.23
2127.97
665.374
1952.85
2793.45
1932.39
623.698
3633.85
2916.03
2109.3
717.128
2054.01
2709.16
1882.48
616.395
3112.25
2672.73
2014.05
663.961
945.993
2405.71
1785.49
591.545
3427.19
2798.33
2059.95
678.372
1341.82
2556.21
1829.34
600.901
2855.95
2558.73
1938.8
594.183
650.211
2288.14
1725.1
562.503
2683.86
2488.68
1878.2
559.036
742.419
2226.72
1677.66
542.784
2324.81
1726.28
1175.75
680.841
222.739
2305.66
1719.67
1173.51
679.982
222.502
2343.56
1723.41
1172.12
678.668
222.04
2302.8
1712.29
1167.99
676.933
221.547
2339.03
1718.8
1167.8
676.159
221.24
2254.93
1696.35
1158.41
671.964
220.029
2236.02
1667.25
1142.45
664.175
217.706
2173.15
1635.8
1125.74
656.019
215.272
2293.78
1693.91
1154.2
669.43
219.222
2353.21
1702.34
1155.36
669.533
219.207
2322.15
1712.45
1162.8
673.409
220.377
2395.64
1714.13
1160.58
671.933
219.901
2249.86
1672.38
1143.64
664.461
217.762
2301.03
1680.54
1145.05
664.723
217.801
2176.79
1637.03
1125.21
655.527
215.109
2235.24
1645.65
1126.86
655.962
215.216
2355.13
1735.58
1178.52
681.837
223.006
2425.46
1744.25
1180.39
682.446
223.166
2368.45
1735.08
1176.21
680.308
222.499
2437.95
1744.13
1178.48
681.147
222.734
2389.19
1733.6
1172.82
678.195
221.808
2466.27
1743.01
1175.37
679.201
222.097
2421.19
1728.96
1168.18
675.62
220.991
2485.84
1735.86
1170.64
676.709
221.303
2425.09
1721.91
1164.23
673.647
220.394
10826.1
14485.5
10792.8
14461.4
10835.3
14468.7
11218.2
15077.9
11740.7
16407.7
10707.4
13132.1
11033.4
13995.3
10651.1
13017.1
10546.3
13031.8
7756.71
1343.32
289.525
64.2603
11.2424
8977.31
2442.98
587.145
131.78
22.8617
7756.56
1306.35
277.679
61.2323
10.6673
8965.94
2420.66
576.679
128.095
22.1783
7789.68
1277.61
266.749
58.2975
10.1116
9011.8
2402.54
565.409
124.609
21.4715
7892.99
1243.76
254.704
55.339
9.59163
9170.1
2393.38
557.191
122.328
21.0627
7984.58
1215.55
248.185
54.3216
9.48743
9352.04
2391.27
557.138
123.184
21.3574
7667.9
1386.78
313.896
72.9753
13.202
8611.58
2458.67
616.671
144.064
25.9297
7819.38
1318.01
284.509
64.1675
11.3976
8916.8
2434.16
588.307
133.447
23.5432
7601.69
1435
333.941
79.1719
14.507
8531.47
2479.35
634.491
151.007
27.5637
7567.26
1416.89
330.979
79.065
14.5775
8500.06
2464.93
634.713
152.147
27.9131
34949.9
49082.4
43783.6
32003.3
23965.8
28425.6
23797.5
28457.9
26713.2
41455.8
28795.2
45089.8
216.076
232.677
269.709
328.853
411.039
517.541
230.127
246.562
282.978
340.409
419.99
523.501
204.598
198.86
221.495
215.718
259.683
254.133
322.541
319.214
410.437
413.627
526.511
542.905
648.643
820.075
1060.87
1425.01
1784.63
2074.12
654.067
818.521
1024.21
1265.6
1489.2
1638.48
578.595
848.971
1066.96
1219.69
1298.35
622.834
913.423
1147.42
1311.2
1395.48
721.55
1057.25
1326.95
1515.39
1612.25
878.958
1286.05
1611.99
1839.16
1955.78
1097.06
1601.7
2003.83
2283.29
2426.61
1378.26
2005.73
2502.54
2846.94
3023.64
616.072
903.67
1135.39
1297.66
1381.18
659.824
967.294
1214.68
1387.73
1476.73
756.775
1108.29
1390.41
1587.39
1688.62
909.416
1329.72
1665.85
1900.03
2020.26
1120.26
1634.21
2043.28
2327.65
2473.62
1393.07
2025.23
2525.34
2872.54
3051.14
547.904
804.082
1010.75
1155.61
1230.23
532.543
781.591
982.569
1123.48
1196.06
592.985
869.864
1092.98
1249.22
1329.64
577.544
847.301
1064.76
1217.09
1295.49
694.86
1018.46
1278.66
1460.55
1554.05
680.061
996.924
1251.83
1430.06
1521.7
862.275
1262.06
1582.38
1805.68
1920.3
853.457
1249.36
1566.69
1787.93
1901.48
1095.65
1600.06
2002.09
2281.36
2424.47
1104.17
1612.48
2017.52
2298.73
2442.73
1402.26
2040.76
2545.93
2895.52
3074.53
1445.61
2102.99
2622.22
2980.74
3163.97
1721.29
2492.2
3097.45
3516.96
3733.23
2162.91
3104.72
3835.71
4346.12
4613.61
2766.01
3907.29
4779.1
5406.82
5751.67
3635.84
4982.06
5990.19
6790.89
7285.39
4428.67
5855.8
6923.68
7905.91
8629.12
5034.39
6467.38
7549.95
8693.97
9636.67
1734.2
2508.27
3115.96
3538.54
3757.42
2158.1
3097.27
3827.76
4339.99
4609.84
2677.66
3798.86
4661.87
5280.46
5617.96
3270.23
4567.13
5555.96
6296.39
6725.49
3799.9
5221.53
6301.89
7158.41
7693.35
4144.31
5631.98
6764.36
7704.69
8323.11
219.094
241.853
285.591
352.236
442.738
558.196
233.201
255.882
298.923
363.454
450.455
561.207
207.551
201.77
230.55
224.672
275.53
269.879
346.353
343.132
443.477
447.093
571.16
590.665
697.321
873.889
1113.62
1465.09
1807.81
2081.01
697.642
864.943
1068.47
1301.26
1511.84
1646.12
586.689
860.913
1082.08
1237.09
1316.92
647.529
949.958
1193.73
1364.52
1452.46
764.332
1120.65
1407.47
1608.23
1711.56
942.064
1379.86
1731.51
1977.34
2103.79
1182.85
1729.85
2167.89
2473.71
2631.04
1488.77
2171.9
2716.73
3096.91
3292.85
624.334
915.886
1150.88
1315.5
1400.25
684.926
1004.49
1261.89
1442.14
1534.92
799.762
1172.08
1471.54
1681.05
1788.86
971.65
1422.34
1784
2036.75
2166.79
1202.75
1757.5
2201.24
2511.09
2670.64
1495.55
2179.34
2724
3104.42
3300.87
555.831
815.774
1025.53
1172.61
1248.37
540.356
793.111
997.131
1140.21
1213.91
617.336
905.848
1138.54
1301.63
1385.61
601.612
882.846
1109.74
1268.8
1350.71
737.521
1081.62
1358.8
1552.87
1652.76
722.435
1059.63
1331.33
1521.62
1619.56
926.519
1357.52
1703.95
1946.17
2070.76
917.98
1345.21
1688.74
1928.96
2052.51
1185.12
1733.78
2173.4
2480.3
2638.11
1194.87
1748.26
2191.74
2501.31
2660.45
1523.78
2223.83
2782.36
3171.89
3372.44
1575.9
2300.04
2877.7
3280.34
3487.5
1854.46
2694.47
3360.77
3826.73
4068.34
2311.8
3334.69
4139.86
4708.48
5008.41
2915.24
4144.95
5102.09
5800.06
6185.42
3755.31
5184.03
6277.71
7154.67
7695.89
4503.3
5990.7
7123.82
8169.23
8935.85
5058.62
6514.02
7621.59
8791.8
9753.8
1853.3
2688.95
3350.92
3814.74
4056.08
2286.09
3293.99
4086.82
4647.64
4944.44
2801.37
3992.78
4921.9
5593.81
5961.66
3372.07
4731.23
5781.31
6573.36
7032.94
3866.17
5331.36
6456.05
7351.62
7910.78
4167.08
5670.47
6819.21
7774.44
8402.42
4142.06
2967.84
892.044
710.789
862.401
739.914
889.396
3902.87
3808.81
2697.55
3191.19
1647.41
2165.96
1415.08
1584.01
1345.36
3523.79
2203.7
1497.94
1388.49
1657.58
1450.74
1153.92
1177.81
1146.23
1033.37
1285.49
1208.21
3674.8
2426.94
2552.29
1849.25
1590.69
2151.56
1196.61
992.731
1323.67
8796.09
9291.47
9688.93
12118.2
21334
6717.17
7780.69
8604.95
10224.7
12076.6
2362.36
3412.05
4238.71
4820.82
5126.33
1891.14
2749.39
3430.42
3906.15
4152.35
2292.21
3327.39
4145.98
4716.8
5012.28
1969.46
2864.78
3575.22
4070.6
4326.41
2359.84
3417.38
4251.83
4835.99
5140.22
9029.45
10458.1
11194.8
13532.7
22736.7
8875.94
10400.8
11403.8
13513.6
17257.7
6506.3
8167.67
9349.08
10823.9
12245.4
7903.4
9782.99
10823.9
12439
14612.4
4241.07
5881.17
7120.12
8074.91
8661.32
5414.77
7169.77
8436.23
9593.72
10478
3694
5227.54
6406.27
7262.66
7742.48
4101.02
5734.53
6975.1
7903.17
8448.97
3526.82
5020.77
6174.74
7000.42
7451.45
8189.02
9584.82
10319.6
12516.7
21065
5447.82
7102.06
8314.28
9576.9
10614.4
3882.87
5441.41
6634.68
7533.76
8062.46
3613.62
5093.81
6234.84
7084.2
7572.24
4239.1
5826.45
7032.08
8016.66
8654.82
3755.31
5248.28
6391.84
7270
7785.66
3024.06
4302.82
5296.26
6019.27
6415.34
3094.3
4419.33
5450.91
6191.93
6593.94
3027.33
4355.39
5393.4
6123.25
6508.71
2735.83
3949.47
4902.56
5570.76
5920.87
3373.43
4810.34
5924.54
6722.87
7158.21
3176.64
4542.13
5605.18
6364.83
6775.7
8177.72
9103.08
9643.08
11897.7
20403.5
5745.89
7088.66
8095.5
9460.71
10805.8
6524.04
8270.04
9224.59
11011.8
12866.6
4650.69
6199.79
7345.3
8432.16
9167.95
4080.01
5611.73
6767.85
7715.89
8292.33
5388.01
7023.47
8165.92
9449.43
10316.3
3135.96
4462.73
5493.13
6241.38
6651.93
2626.75
3789.25
4702.57
5345.32
5683.38
3452.97
4882.37
5986.79
6802.41
7262.56
9208.92
8573.06
7565.24
6279.26
4560.76
1779.99
19009
20234.6
21698.2
22330.2
20520.2
20795.1
20909.9
21471.9
16550.1
18912
18745.1
18894.4
24974
17369
27039.5
17937.4
19227.2
20410.9
20645.3
19754.1
20970
20020.1
21177.5
17081
25041.9
19252
24376.9
25865.5
21133.1
31215.2
16737.9
17850.6
18614.9
18485.1
18665.6
20372.8
18707.7
20493
19291.9
24235.4
21654.5
23892.1
27028.1
23710.3
30043.9
15568.4
16600.8
16908
16569.8
17706.9
19969.9
17381.2
19737.6
17559.8
22346
19573.9
21248
23834.8
20971.3
27074.6
14407.4
15464.7
15567
15171
16847.4
19519.5
16075.9
18345.3
15585.7
18219
17626
17061.8
20838.7
17816.4
21852.9
13292
14323.9
14492.3
14087.7
15475.7
17658.1
15003.2
16957.1
13474.4
14725
15424.4
14299.1
18361
15070.6
19111.7
22008.1
22151.4
22850.1
23847.6
22760.2
23459.6
21931.2
22758.7
18966.6
12159.2
20120.4
12000.3
20231.4
16747.6
17261.2
21072
21522.8
21267.8
21766.2
22152.5
22939
20782.3
21776.8
16912.4
12163.1
17698.1
11879
17545.4
15797.6
16022.1
18550.7
19025.7
19067.4
19113.8
19802.2
20469.4
19073.6
20408.6
15652.2
12892.4
16556.5
12283.3
17056.4
14313.1
16612.7
16126.4
16753.1
17021.4
16784.8
17744
18435.9
17553.6
19011.3
13863.2
13942.4
14837
13098
15479.8
13047.8
17503.8
14515.8
15283
15524.8
15204
16419.7
17672
16083.7
17435.3
12942.7
15387.5
14323
15248.8
15670.3
14359.4
19890.8
13088.1
13955.5
14377.5
14018.4
15576.5
17294.8
14953.5
16532.8
12616.7
16594.3
14445.1
17230.8
16397.8
15132.9
22117.2
12498.9
6738.17
22254.4
14535.6
21438.4
18211.5
31622.8
39150
48126.9
60899.6
25495.6
22376.3
15702
10789.6
10003.9
5570.27
21282.2
19234.4
19223.6
19057.7
24437.7
23476.2
28208.4
24302.8
7354.88
5195.65
3797.01
2656.09
10961.1
7084.76
6079.24
3942.87
21590
22881.4
19394
15847.9
15695.1
12242.9
13280.5
12677.4
17763.6
17443.8
36123
39771.6
25907.5
27378.6
18646.2
14676.3
19059.6
13388.1
8096.21
6983.78
5927.83
8742.5
2932.66
3956.26
8003.83
11916.6
5032.35
6869.62
8171.25
14279.4
6229.58
10194.2
1950.14
6851.18
342.611
4905.88
18270.8
21991.8
19149.6
21754.9
23090.8
23535.8
23510.6
22948.3
17035.3
20592.4
17048.2
20312.6
19175.8
21578.5
18811.1
21425.7
23670.8
22603.6
23664.6
22407
15988.5
20620
14581.2
20522.3
17517.4
18704.3
22065.4
30801.5
18332.5
21543.4
21935.2
33594
16582.1
16591.6
21954.1
29277.5
15940.7
15247.1
21924.7
28530.5
4346.41
5503.42
11817.9
19331.1
5301.15
5925.07
14864.3
21917.6
6323.2
6583.18
18187.2
24754
24918.6
27775.1
20882.2
19025.6
25729.7
28318.2
24408.7
20911.5
17598.3
29055.1
25956.3
23837.8
19915.5
20318.5
37840.9
1568.69
2068.43
4205.99
8654.23
2271.88
3139.61
5681.26
10234
3420.64
3303.7
7624.07
12213.8
27695.4
27781.7
22905.6
22048.8
19199
17189.4
13965.2
12430.7
10709.6
15868.2
24482.5
22238.6
22529.9
21256.3
18931.8
17595.1
16207.6
14398.6
12761.7
17420.4
23096.6
24626.4
23876.7
26240.1
23376.4
21638.6
23681.3
22736.9
20784.8
21039.6
20508.4
20414.7
24268.6
26867.3
24064.7
26580.2
23960.1
23665
23655.9
23461
20586.8
20876
20830.5
21017.1
17771.9
17583.5
12177.5
14525.8
17924.6
17320
12524
15010.5
17284.3
17333
12031.7
14546.3
17435
17137.7
11916.3
14198.5
1787.37
1469.7
1092.77
1008.02
874.447
865.323
2726.69
1954.29
1538.69
2377.31
2136.83
1862.97
2914.9
2849.37
3044.51
4288.62
3756.93
3457.76
26669.4
23914.6
21965.4
22150.4
20904.5
19838.4
15102.1
14540.7
14249.9
10665.3
10171.7
9969.47
6968.26
5190.88
4265.97
21080.4
19569.2
18459.6
20981.6
19678
18912.2
15592.9
13964.8
13066.6
11191.8
9938.89
9376.62
7371.91
5491.25
4514.01
28288.1
29371.9
30076.1
27663.3
27590.2
27626.8
32882.4
28370.3
17922
19870.9
17816.6
17709.6
23993.7
21107.8
23455.2
18517.6
25834.5
26988
22137
24890.1
29052.2
25478.7
28743.8
29816.3
30415.5
32572.3
24721.7
25339.3
21493.7
21167.3
24565.2
23703.4
16609.5
9422.77
15507.2
10431.6
16131.9
9243.66
14941.9
10113.6
14748.5
8549.74
13873.3
9607.94
13620.5
9981.9
13073.4
9967.27
22645.4
17939
22133.2
18014.3
25294.2
22700.2
25302.8
22273.7
20416.5
14195.3
21268.5
13756.8
22514.8
18043.6
23092.4
17990
25858.5
22097.9
26268.8
21980
19831.7
14350.4
19669.5
14337.9
12138.6
8346.67
10760.4
6787.76
11231.3
7461.13
10088
6207.13
12401.9
8854.81
11052
7114.74
12467.7
9193.86
11123.8
7310.2
2663.13
1431.6
4946.72
2740.04
2769.3
1672.5
5026.6
3047.8
3014.5
2235.95
4972.29
3516.36
13607.9
22739.7
8799.66
7948.81
5601.6
23286.4
15015.8
8406.4
7459.2
4336.06
22452.5
16285.7
11934.5
8705.89
5276.67
1016.02
990.773
1856.04
1756.62
1290.43
1009.1
2291.23
2093.58
1825.11
1616.23
2789.68
2506.7
23672.4
22722
15126.2
13886.2
9493.29
9174.91
7256.75
6995.29
3983.76
3605.54
20641.2
17798
15082.2
13043.8
11274.9
10323.7
7956.34
7693.04
4886.29
5521.01
14247.3
11337.5
14363
10674.8
18152.7
13494
18388.5
13237.5
11710.5
9493.17
11597.3
10143
14811.9
10162.9
14918.3
10259.5
19254.9
13564.2
19184.3
13649.2
11778.4
8901.15
11956.2
9256.03
8335.26
7684.6
5416.48
7351.97
8459.48
8066.49
5514.65
7261.87
8299.38
7461.03
5259.14
7681.78
8726.53
7518.85
5477.03
7592.99
2414.78
1933.79
1516.3
9150.53
4482.15
3432.38
2249.81
2109.75
1797.21
9626.86
5259.87
4243.27
2774.7
2949.54
2959.76
10093.2
6461.06
5663.74
20513.3
18641.7
17304.2
13128.9
12369.6
11857.6
9509.79
9153.17
8956.36
8338.96
7896.57
7704.72
11566.6
8417.69
7541.77
15215.1
13698.6
12680.5
11581.5
10594.9
10016
10182.6
9193.23
8482.15
9736.56
8699.68
8142.03
14895.7
10473.3
9559.66
5061.85
3038.44
2219.7
2062.53
5682.84
3281.07
2310.77
2115.08
4909.15
2988.57
2211.62
2087.37
5641.82
3289.1
2334.5
2131.71
4639.73
2919.41
2230.08
2056.56
5484.3
3318.64
2396.01
2095.33
5757.73
3457.46
2415.51
2220.16
5922.64
3605.4
2516.13
2306.17
4944.28
3096.1
2313.65
2084.54
3965.41
2700.9
2151.62
1960.89
4268.57
2792.01
2202.48
1913.25
3542.04
2500.4
2055.59
1865.04
5344.92
3318.7
2403.36
2190.94
4228.24
2858.41
2223.54
2023.38
5574.22
3477.37
2486.38
2242.79
4378.72
2975.41
2289.22
2048.64
3805.44
2627.94
2075.58
1946.44
2463.44
2135.27
1886.77
1793.88
3681.86
2582.97
2070.55
1945.82
2446.08
2128.32
1883.29
1804.04
3493.51
2516.88
2069.75
1932.88
2513.18
2157.24
1886.9
1838.33
3287.74
2412.98
2025.12
1923.45
2530.99
2160.95
1917.61
1840.54
2986.94
2302.74
1937.15
1796.1
984.624
1669.04
1499.86
468.755
-758.884
1408.48
1305.36
449.2
1160.6
1733.66
1526.39
495.327
-492.135
1485.42
1328.12
457.276
1432.56
1828.37
1551.9
492.826
-91.4064
1604.15
1354.93
459.403
1807.12
1945.1
1589.32
524.357
366.577
1748.87
1398.93
476.01
2326.02
2101.06
1657.56
586.282
809.122
1883.65
1442.08
489.625
2672.86
2283.31
1701.2
547.352
692.162
2031.63
1533.37
509.788
2626.8
2202.96
1662.97
550.052
759.715
1975.63
1483.91
496.605
2647.4
2342.78
1739.61
515.277
572.694
2083.74
1572.73
511.038
2632.81
2420.71
1811.12
531.98
731.607
2163.37
1627.69
525.596
1961.92
1508.01
1053.72
619.969
204.36
1966.13
1509.62
1054.91
620.641
204.571
1998.27
1521.04
1059.7
622.68
205.144
1997.52
1524.81
1062.54
624.231
205.629
2019.62
1534.49
1066.05
625.563
205.976
2006.86
1545.16
1073.51
629.533
207.21
2075.54
1572.86
1089.07
637.387
209.601
2112.91
1598.93
1104.72
645.434
212.063
2074.47
1562.18
1080.45
632.585
208.09
2131.91
1570.59
1081.94
632.893
208.139
2037.96
1549.04
1072.74
628.623
206.864
2116.99
1562.32
1077.23
630.489
207.394
2101.8
1577.7
1089.8
637.435
209.585
2156.96
1585.84
1091.01
637.586
209.589
2126.99
1604.96
1106.75
646.215
212.282
2186.45
1612.28
1107.5
646.169
212.239
1958.91
1506.91
1052.48
619.233
204.127
1988.43
1507.99
1051.85
618.803
203.992
1983.33
1517.43
1057.07
621.239
204.695
2010.84
1517.45
1055.89
620.55
204.487
2018.97
1530.89
1062.76
623.724
205.396
2055.28
1530.39
1061.18
622.841
205.129
2071.81
1545.71
1069.05
626.546
206.201
2100.5
1542.63
1066.82
625.407
205.848
2104.16
1555.13
1073.5
628.641
206.821
8406.19
13012.1
8902.41
13424.6
9670.61
14031.6
10588
15091.3
11606.9
16909.1
10733.7
13246.8
11017.5
14186.3
10681.3
13089.9
10557.5
13055.6
6757.98
1205.43
264.885
59.4976
10.4831
8040.02
2218.85
539.979
122.406
21.3784
6929.12
1194.4
257.502
57.2775
10.0305
8222.65
2235.01
536.572
120.001
20.8769
7226.8
1200.38
252.417
55.4069
9.63742
8554.29
2275.4
536.449
118.554
20.478
7585.98
1201.06
246.263
53.5332
9.28423
8980.45
2325.57
539.871
118.446
20.3992
7887.62
1199.92
244.431
53.4071