/*--------------------------------*- C++ -*----------------------------------*\
| =========                 |                                                 |
| \\      /  F ield         | OpenFOAM: The Open Source CFD Toolbox           |
|  \\    /   O peration     | Version:  2412                                  |
|   \\  /    A nd           | Website:  www.openfoam.com                      |
|    \\/     M anipulation  |                                                 |
\*---------------------------------------------------------------------------*/
FoamFile
{
    version     2.0;
    format      ascii;
    arch        "LSB;label=32;scalar=64";
    class       volScalarField;
    location    "2.3";
    object      gradTz;
}
// * * * * * * * * * * * * * * * * * * * * * * * * * * * * * * * * * * * * * //

dimensions      [0 -1 0 1 0 0 0];

internalField   nonuniform List<scalar> 
5712
(
7236.71
21991.3
5487.69
24063.2
3008.34
25498.6
5135.73
40416.4
8394.77
50758.8
8600.71
35994.4
9177.23
31982.2
9043.15
27468.3
4252.58
2305.56
12817.5
6044.33
3967.69
1820.21
13826.2
5561.34
5531.86
4070.21
16334.4
11922.3
3707.94
2910.65
16431.1
12420.6
8326.73
3025.11
6299.65
2282
2872.94
7715.33
39507.5
12075.2
11854.7
5480.97
47987
15047.6
11069.9
5206.67
26140
8715.35
13319.9
6073.38
21262.3
6762.2
4901.14
2658.45
8669.29
3503.23
4352.29
2754.77
9103.49
3431.14
5838.3
3710.38
5710.84
2393.31
10179.3
3673.69
4008.34
1479.85
12433.9
9352.9
7544.51
6763.42
13926
12201.9
7555.31
8059.6
6987.23
5993.42
9102.53
7786.34
5620
4833.43
3265.49
2805.72
5606.27
5592.07
3208.72
3212.15
5378.48
4216.24
3143.9
2217.26
5995.34
3373.96
6015.58
6641.91
7961.97
6063.61
8602.74
11354.7
4382.94
1875
3866.5
3993.65
2483.34
867.518
1774.09
1533.76
5595.6
11331.4
4087.36
12826.3
6050.38
11481.4
4873.34
13657.5
7984.57
11408
6762.3
13908.4
8877.49
10687.6
6828.73
6854.03
8388.02
7049.05
7751.29
10675.1
12455.3
18270.4
9527.15
7681.75
7317.38
9278.22
14786.1
14137.8
13701.2
16530.1
16662.1
13802.5
13837
16584
16521.5
12734.2
13233.3
15908
16085.3
8877.53
9428.65
8660.03
9152.99
10516.6
10539.5
12302.9
11989
15537.4
15735.3
8101.38
8897.76
9149.87
9775.65
10210
11035.4
11764.7
12922.7
15488.7
16852.1
9474.11
6464.38
7670.09
7740.53
10625.8
12105
8641.32
11441
7033.85
7159.36
8945.73
6420.02
3234.14
5588.85
1323.83
2081.45
5351.67
8483.93
2098.89
3178.48
2710.32
4898.36
1011.87
1784.62
6689.24
5714.48
6834.81
4277.85
9416.9
6717.98
10711.2
7155.25
3120.98
3643.17
3889.41
2210.56
2408.66
2629.68
2685.23
2038.83
11901.5
7831.7
2559.63
12891.8
8107.93
2802.24
11721.4
7658.74
2602.47
12876.9
8085.28
2738.46
11199.8
7206.54
2414.74
12659.4
7961.73
2736.94
6741.39
3843.69
1000.5
7986.5
5451.6
1771.85
9167.37
6457.04
2177.87
10138.6
6599.13
2161.98
12259.5
7704.75
2724.52
7440.84
4077.25
1334.6
7187.43
4648.25
1612.83
8076.4
5321.95
1819.11
9593.2
6157.36
2102.1
11628.9
6779
2346
-494.338
990.999
448.619
2642.33
1774.25
1795.06
4576.44
4010.87
601.891
974.393
637.834
1022.24
339.685
944.345
627.266
1384.45
1896.96
1136.31
3824.23
2705.71
1751.75
2883.44
2929.89
835.427
5866.51
1864.93
-4117.81
-591.809
679.933
711.229
35.4307
195.377
10328.3
4552.86
2742.25
1633.69
10176.2
4620.01
2991.87
1932.12
9849.31
5066.61
4036.84
2879.03
3098.36
2034.57
1745.39
1582.55
13110.8
11464
5749.2
7347.84
14668.5
13699.5
7142.18
8566.81
5245.01
6328.26
11153.3
9208.75
3661.76
4796.06
2114.47
2792.68
4777.16
5584.06
2762
3201.67
2987.92
4176.58
1683.03
2543.72
4690.85
3359
5327.1
3618.1
8055.13
4845.65
7162.83
4755.16
2795.87
2298.65
3698.72
2485.8
1577.14
1452.38
2342.67
1536.24
12069.1
8099.88
5950.68
6233.4
11964.7
8065.54
5887.36
6114.46
12093.6
7732.26
6001.9
5684
13217.3
12749.1
12353.3
9525.96
5540.3
7767.54
9378.23
9936.02
9352.36
6613.21
11032.7
9904.82
8232.08
6683.74
4407.86
6984.77
6974.98
7041.46
8584.69
6940.67
6737.16
6874.71
8390.09
6595.7
6338.09
6524.59
8015.29
8728.28
8253.34
8148.52
7018.16
6120.54
6148.02
5938.91
6219.78
5697.13
7544.93
6401.08
7255.59
5364.22
6107.17
4793.9
5492.78
4728.7
5696.82
4337.24
6924.07
4734.92
3796.53
3240.74
1723.31
7261.01
5519.41
5867.67
3702.38
2481.19
1423.12
3673.53
3317.38
4226.74
1832.32
1973.11
1085.82
5489.89
3136.21
2260.82
1557.4
3441.48
1469.79
1756.39
882.072
2115.52
2535.8
2640.26
4471
3191.23
3904.72
3188.55
5814.33
2535.6
1855.26
1935.86
3200.12
1151.92
463.471
431.574
814.792
5525.08
2534.52
729.411
5968.19
1591.45
420.423
5366.56
2633.25
821.724
5920.71
1636.21
453.067
4873.93
2409.05
621.843
5626.79
1513.2
341.959
5577.28
3045.56
801.571
4697.05
2519.51
701.286
4611.16
2316.23
660.545
4553.07
2157.39
500.711
5329.11
1333.89
226.682
6190.36
3253.9
1007.02
5345.78
2913.91
959.335
4838.59
2539.54
833.935
4664.44
1916.01
519.097
5539.32
1376.95
438.201
1766.21
678.854
326.089
14.497
716.293
290.665
151.416
30.8069
1826.86
727.976
388.091
77.4652
868.752
391.166
252.502
118.084
2097.38
870.983
507.286
160.198
1498.87
773.25
440.092
204.217
1111.28
693.7
336.661
109.735
1160.34
790.463
461.64
256.689
1757.62
837.294
437.16
47.9796
1675.62
772.581
455.983
-34.8844
2208.24
931.451
549.703
124.946
1982.55
822.638
508.49
-60.8339
1337.58
732.465
382.644
51.7227
1305.83
683.122
418.554
69.1046
998.388
638.385
402.523
232.949
912.773
571.817
393.056
224.545
2262.41
827.844
400.017
-73.3212
2370.12
806.943
443.411
-243.237
2256.34
840.106
434.137
-41.7952
2275.7
779.182
442.301
-225.981
2273.12
864.432
502.185
9.27658
2039.87
705.983
439.235
-162.134
2113.53
834.225
553.221
145.63
2249.62
800.175
565.665
-156.8
1647.61
648.781
436.621
47.6588
1964.82
592.897
330.052
-229.427
773.59
210.733
100.78
-54.2121
1939.21
601.97
340.624
-204.93
788.037
222.178
111.929
-40.6632
1820.38
587.519
355.651
-159.183
758.621
224.811
125.607
-21.0989
1533.43
504.54
342.444
-108.372
668.595
199.484
134.943
4.18487
1345.47
472.365
334.185
-39.588
602.115
202.536
152.235
40.2462
1058.43
458.545
276.69
18.2959
553.463
282.1
175.155
92.8122
1127.83
416.462
279.881
-10.4627
548.123
226.665
159.454
69.4973
940.752
492.179
298.113
73.1505
561.914
334.136
204.17
126.695
734.114
475.421
319.44
191.162
521.135
360.534
242.543
180.034
15.6188
11.762
7.61244
4.93126
3.70034
8.88483
6.07234
3.87002
2.51764
1.90365
36.5991
24.457
15.1025
9.62558
7.17417
38.3716
23.9603
14.3416
9.03576
6.71108
86.1501
55.6756
33.7831
21.484
16.0285
170.11
102.911
61.5205
38.8609
28.8921
174.728
108.437
65.6746
41.7436
31.1535
189.496
114.12
68.3549
43.2878
32.3061
113.963
74.3972
45.6752
29.1659
21.7044
89.8074
58.5071
35.985
23.0609
17.1932
118.463
74.3632
44.8735
28.5791
21.3029
91.7353
52.6209
31.2212
19.8401
14.7325
127.414
86.9869
54.0117
34.6292
25.8808
123.291
80.4333
49.4304
31.6337
23.6209
168.952
104.219
62.7287
39.7799
29.6806
162.185
100.486
60.5822
38.434
28.64
7.04248
9.34133
6.324
4.1306
3.10945
0.0922265
3.49522
2.48619
1.65642
1.26739
19.4885
16.3013
10.4179
6.71744
5.05217
2.73898
5.09022
3.43565
2.25628
1.72795
32.1191
25.0375
15.6884
10.1159
7.64113
18.4621
13.1059
7.85841
4.93971
3.72736
99.2469
61.4823
36.6753
23.3922
17.5506
49.5384
30.569
18.03
11.4434
8.6051
126.136
67.6909
39.1026
24.5885
18.2638
2417.3
4194.24
2276.97
4068.21
2116.91
3783.25
2060.6
3635.35
2254.76
4161.62
1316.38
1937.63
1836.16
2910.07
867.466
1158.23
335.11
461.6
7150.87
1720.79
394.347
87.2861
21.8395
1904.24
504.602
135.046
30.225
6.73028
7099.78
1684.63
383.189
84.1921
20.9676
1967.29
572.425
140.618
32.5753
8.15076
6856.42
1598.78
359.682
78.4095
19.4159
1909.87
553.898
135.022
30.9599
7.67287
6440.54
1472.06
328.092
71.2405
17.6244
1838.36
521.16
124.489
28.0842
6.86177
5656.23
1272.78
283.327
61.7463
15.376
1713.69
463.614
108.221
24.1066
5.8355
3182.49
764.286
176.122
39.2618
9.94457
872.663
221.692
48.1634
9.93396
2.26383
4438.75
1036.26
234.572
51.6539
12.979
1217.63
318.395
72.769
16.0098
3.85481
1995.77
491.557
114.908
25.8642
6.58775
557.797
144.933
30.9553
6.07557
1.31928
732.97
182.651
43.0284
9.7514
2.49707
270.816
63.9159
12.8292
3.47219
0.496782
-1235.18
628.075
4162.59
-3552.75
972.885
1037.67
2600.19
3171.34
2146.81
3465.7
2860.95
4322.8
2727.74
3563.83
1304.52
1902.19
1422.67
1656.68
994.213
1030.15
2870.91
2265.87
-363.809
-922.337
-1002.64
-1341.27
-707.911
11925.4
3108
4049.87
3300.91
350.693
-46.0172
3299.47
-1008.44
-448.459
-837.301
-288.698
5889.13
3026.85
1351.77
753.159
3288.24
1508.13
215.387
384.401
-1133.75
-1123.2
852.413
726.534
9294.56
4589.46
4490.62
2591.83
3436.06
3171.63
-29.0037
-1099.96
289.514
2022.81
1799.08
1595.05
1506.41
1166.5
1823.61
1487.48
1218.76
909.552
364.637
-326.923
-272.464
-200.206
-119.822
-39.5292
-823.95
-688.932
-516.8
-319.749
-108.159
-895.779
-748.669
-560.638
-346.004
-116.888
-1199.48
-1003.98
-753.399
-465.981
-157.616
-626.224
-516.362
-380.142
-230.78
-77.2622
8929.07
8288.9
7186.59
6849.98
6513.72
2922.99
2424.62
2240.19
1917.78
888.072
3329.97
2689.62
2291.99
1848.01
872.648
2575.01
2044.41
1712.83
1304.77
502.113
300.601
215.511
231.116
191.405
102.507
29.7424
91.189
120.511
105.037
41.8055
2753.91
2220.74
1745.72
1224.34
470.179
-641.067
-343.756
-175.267
-79.8533
-25.8278
-359.606
-256.999
-155.641
-74.1138
-19.8434
-609.734
-396.574
-234.165
-119.614
-37.056
-269.203
-228.999
-167.346
-97.6842
-31.0604
4100.56
4076.22
3600.28
3615.37
3701.3
2516.53
2000.62
1691.84
1314.64
527.408
1246.01
1098.47
908.186
634.311
233.575
667.029
567.814
459.957
318.044
116.271
2762.11
2215.14
1702.1
1142.23
418.224
1356.33
1146.66
901.389
590.691
195.83
186.276
157.861
132.697
96.1319
35.212
350.242
305.467
248.781
168.94
59.7276
-984.522
-796.223
-577.37
-347.342
-115.707
-990.006
-812.969
-596.12
-360.575
-120.336
757.918
642.809
506.582
336.727
120.323
645.05
546.26
430.648
286.177
101.77
6185.01
5043.73
4523.01
4445.06
3770.31
3608.44
2879.62
2333.99
1748.09
735.013
3591.6
3069.98
2619.56
2185.06
942.237
2078.12
1726.86
1401.44
1030.31
466.939
2955.97
2419.37
1863.81
1229.6
435.231
2665.78
1933.51
1603.69
1199.49
227.199
-20.9031
-6.21041
15.1467
24.9434
10.9002
-976.986
-809.178
-597.977
-363.772
-121.799
273.257
248.485
218.037
158.681
55.9736
-28506.8
-44648
-21561.7
-37957.4
-22961.8
-53395.5
-30217.9
-64913.8
-16111.6
-10783.5
-17921.3
-9617.99
-15048.4
-9871.66
-18075.4
-8567.01
-23428
-16452.2
-32499
-23414.3
-18435
-13481.2
-27991.2
-20950
-14164
-14364.3
-9898.52
-9519.02
-12007
-12729
-42744.3
-13139.8
-13634.5
-6488.38
-50321.3
-15974.4
-12380.2
-5954.97
-29871.9
-9846.99
-15155.7
-7073.84
-25068.3
-7652.27
-11222.6
-4770.97
-15398.9
-5788.21
-9763.16
-4361.38
-14248.4
-5080.75
-10167.6
-4907.21
-8704.88
-3323.33
-12338
-4382.81
-4836.92
-1790.86
-10115
-7270.62
-8259.72
-6144.37
-8786.2
-7487.25
-7349.18
-6434.23
-8248.46
-6017.79
-9521.42
-7465.63
-6205.03
-4546.36
-3686.06
-2610.09
-5618.07
-4719.03
-3220.75
-2575.97
-6256.25
-4289.58
-3752.66
-2287.95
-7360.09
-3896.38
-6275.75
-6761.13
-9550.6
-6703.57
-8900.5
-11486.1
-5250.59
-2205.12
-4058.02
-4081.85
-3063.12
-1094.79
-1925.7
-1602.54
-9840.05
-12536.4
-5626.16
-14131.4
-9751.98
-12231.8
-6145.64
-14618.4
-10797
-11820.2
-7641.66
-14325.4
-6023.04
-3710.12
-7723.05
-8966.91
-9208.06
-5540.41
-7673.37
-11498.4
-13145.4
-18610.3
-4969.78
-5662.58
-6899.44
-9395.95
-14890.6
-13252.1
-10917.3
-16428
-13626.9
-12871
-11209.6
-16445.5
-13737.1
-11770.9
-10425.9
-15548.4
-13650.2
-8160.51
-7656.56
-8114.63
-7332.95
-9313.58
-8280.6
-10702.1
-9467.3
-14931.8
-13703.1
-6741
-7392.77
-7489.37
-7308.06
-8569.05
-8327.53
-10394.5
-10311.9
-14894.4
-14639.9
-7952.78
-5417.25
-6665.42
-6814.04
-8343.01
-10507.1
-7024.29
-9954.05
-6524.74
-6592.89
-8100.13
-5714.87
-2542.42
-4877.29
-717.76
-1484.49
-4160.7
-7381.73
-1106.64
-2275.85
-2366.39
-4469.4
-691.135
-1415.31
-6480.27
-5412.52
-6764.7
-4140.28
-8996.22
-6248.01
-10546.9
-6820.38
-2977.94
-3420.89
-3826.39
-2109.73
-2253.51
-2420.03
-2607.96
-1930.01
-7960.82
-3076.08
-8479.02
-2951.03
-8152.56
-3054.26
-8897.16
-3278.17
-7801.72
-2875.77
-9633.14
-3807.88
-4302.9
-1013.37
-5114.64
-1833.54
-5915.33
-2306.72
-7163.26
-2716.13
-9598.44
-3722.2
-5250.38
-852.419
-4503.88
-1509.06
-5178.81
-1907.57
-6732.65
-2496.78
-8701.12
-2846.1
-6156.27
-5995.69
-3939.59
-3827.6
-9781.22
-7767.4
-7541.34
-5970.42
-5369.1
-4999.61
-2055.26
-1697.79
-5021.15
-4892.91
-1749.76
-1673.95
-2416.27
-5697.55
-3665.48
-6888.91
-4731.11
-1967.43
-3045.17
-647.58
-6521.37
-2205.96
4104.05
1318.14
-142.261
56.6906
1109.57
1305.68
-2658.44
-1474
-1049.33
-431.345
-2647.17
-1623.17
-1132.48
-407.498
-2901.27
-1946.49
-1213.62
-237.12
-993.711
347.137
383.443
1051.84
-5042.43
-4972.89
-3694.6
-4229.52
-7239.96
-6993.44
-5883.42
-5901.58
-2509.23
-3226.91
-4099.21
-3937.72
-2484.64
-2837.46
-1158.13
-1217.33
-4162.69
-4060.57
-2299.41
-2047.89
-1259.18
-2011.17
-245.847
-695.073
-1620.92
-997.42
-2597.61
-1556.44
-2764.93
-2093.45
-3234.04
-2399.56
-640.044
-197.06
-1573.82
-622.152
272.977
559.29
-408.079
258.324
-3025.09
-3111.25
-2590.23
-4152.02
-3115.21
-3264.93
-2731.45
-4256.56
-3680.55
-3390.3
-3100.48
-4171.26
-2181.79
-2596.92
-2808.81
-2786.13
-2623.07
-4342.34
-3498.3
-3355.47
-4203.26
-4591.53
-4436.41
-3412.2
-2951.46
-2801.38
-2230.68
-4191.58
-5346.49
-7215.06
-12493
-3998.96
-4526.94
-6778.01
-11613.6
-4040.45
-4932.05
-6221.48
-10389.8
-7488.86
-6471.35
-6053.88
-5329.64
-4316.67
-4787.27
-4624.22
-5638
-5349.93
-9301.45
-5071.68
-5896.52
-3723.14
-4815.62
-3130.7
-4382.24
-3416.6
-5086.56
-3226.98
-7406.15
-2300.69
-2457.4
-1227.51
-269.204
-4664.86
-4121.23
-3881.52
-2237.71
-614.629
-85.6609
-1623.38
-2154.52
-2518.93
-605.271
-462.881
15.2091
-3898.21
-1909.89
-929.861
-486.115
-1788.57
-344.309
-206.514
165.121
-593.924
-1554.2
-1540.38
-4030.08
-1646.28
-3161.22
-2264.03
-5833.47
-1091.91
-933.664
-661.364
-2520.9
316.123
487.779
897.717
-7.86044
-4499.65
-1476.68
-9183.98
-1300
-3876.76
-1602.38
-8672.51
-1288.9
-3464.93
-1031.09
-7209.95
-675.025
-3503.77
-760.114
-3092.1
-735.008
-3548.03
-1067.76
-3414.96
-567.852
-6466.31
-574.991
-4290.7
-542.677
-3839.58
-577.705
-3900.21
-771.283
-4048.16
-419.847
-6407.12
-656.668
-680.524
-199.789
-70.2455
166.571
-211.08
-51.7232
-23.1689
47.1389
-654.18
-161.468
-62.8949
162.892
-85.9704
34.1147
5.16029
56.1455
-705.705
-130.443
-34.6906
240.416
193.181
275.003
316.236
415.697
707.42
528.782
535.443
532.527
1026.59
737.113
595.201
432.298
-283.024
93.3082
223.721
477.409
-279.854
137.645
168.108
529.904
-813.278
-125.472
2.28619
393.028
-642.63
-14.3992
16.2637
533.781
203.09
313.319
356.367
496.003
97.2496
290.122
279.605
467.757
610.221
495.459
423.878
369.671
494.613
435.864
350.717
349.667
-1121.34
-338.306
-157.483
291.431
-1536.41
-416.515
-295.249
477.182
-1093.45
-307.26
-159.482
288.034
-1489.76
-393.937
-289.728
460.06
-1087.5
-269.831
-185.512
274.436
-1343.84
-341.364
-281.857
401.3
-743.211
-93.6538
-108.137
305.325
-1264.7
-259.611
-296.933
505.067
-550.78
-23.5416
-14.614
457.793
-1520.06
-324.346
-236.992
413.936
-666.837
-119.507
-60.5053
114.785
-1363.78
-275.375
-218.321
397.782
-618.183
-104.393
-57.2931
110.123
-1105.58
-187.714
-198.271
352.19
-514.403
-71.8263
-50.2755
104.222
-859.773
-120.861
-172.148
300.959
-432.957
-53.4824
-50.5828
92.1464
-574.525
-34.6949
-91.0547
289.803
-238.726
5.22621
-18.0793
95.7658
-206.767
116.51
136.843
363.871
151.879
190.136
156.855
197.17
-486.197
-15.4371
-3.99946
305.808
-23.8632
92.5392
60.039
136.594
122.048
269.835
247.596
381.617
275.8
276.927
231.292
236.102
430.844
391.933
300.229
305.305
387.243
336.213
254.018
224.245
50.2245
18.1301
8.5071
4.92852
3.58884
21.6431
8.41019
4.06225
2.35639
1.70383
71.2678
30.3446
15.8105
9.55692
7.0639
53.3063
26.1035
14.5868
9.04236
6.73248
131.23
61.4065
33.6462
20.6265
15.2832
196.955
106.589
61.1664
38.1223
28.422
205.564
113.744
65.4296
40.7084
30.2676
201.392
116.023
68.1821
42.8024
31.8821
167.754
82.8375
45.9903
28.3101
21.0889
137.135
65.2287
35.8779
21.9733
16.341
163.207
78.2202
43.379
26.6233
19.7652
104.362
52.3178
29.3904
18.0668
13.4713
190.747
97.6229
54.7449
33.7597
25.0779
170.129
88.0042
49.6495
30.6785
22.8379
188.237
107.128
62.7079
39.302
29.2604
182.25
103.829
60.6815
37.9956
28.3008
54.2274
16.3002
7.20462
4.09702
2.96423
25.261
6.4097
2.66504
1.46635
1.03596
62.8377
22.3847
10.932
6.45159
4.70677
27.3206
7.85248
3.55815
2.03467
1.44737
78.6395
30.2163
15.4643
9.22609
6.71812
36.5937
14.8181
7.96783
4.89856
3.57748
133.495
61.2412
33.7545
20.5544
15.1165
63.9445
29.4615
16.4323
10.0557
7.37306
115.58
62.7775
36.193
22.4627
16.7249
-2817.67
-4257.73
-2690.17
-4167.25
-2478.84
-3876.92
-2342.17
-3692.1
-2353.42
-4028.71
-1328.36
-1895.95
-1871.4
-2837.7
-844.28
-1112.23
-288.101
-406.003
-7865.23
-1866.65
-423.384
-92.9403
-23.0809
-2073.59
-546.881
-145.37
-32.2772
-7.12558
-7719.35
-1811.54
-408.675
-89.1827
-22.0698
-2150.76
-621.303
-151.275
-34.764
-8.63507
-7298.02
-1691.89
-378.869
-82.2427
-20.276
-2080.22
-597.48
-144.433
-32.8803
-8.09728
-6691.31
-1528.15
-340.259
-73.7679
-18.2099
-1967.62
-554.068
-131.666
-29.56
-7.19124
-5753
-1298.28
-289.43
-63.0982
-15.7052
-1782.65
-482.985
-112.677
-25.0541
-6.05316
-3183.04
-766.363
-177.006
-39.5264
-10.0239
-877.341
-225.051
-49.2535
-10.2141
-2.33895
-4460.6
-1044.7
-237.036
-52.2688
-13.1427
-1240.18
-326.763
-74.9384
-16.5036
-3.97524
-1988.97
-491.152
-115.093
-25.9604
-6.62393
-550.537
-144.758
-31.2348
-6.19402
-1.36024
-723.546
-181.285
-42.9145
-9.76988
-2.51231
-256.637
-61.7137
-12.6111
-3.48624
-0.514918
738.556
-1481.67
-5359.56
1842
-6576.36
-2885.64
-6444.62
-2921
-10913.3
-5938.96
-12791.5
-6988.93
-123.275
-499.403
-774.763
-893.919
-785.745
-422.848
-196.326
-758.707
-1152.32
-1274.77
-1039.03
-387.283
-97.3433
-95.2314
-363.412
-340.961
-467.856
-450.62
-329.557
-338.059
-213.468
-250.159
-366.041
-277.875
481.25
1760.01
3426.19
2733.11
2483.9
1203.13
746.223
2238.44
3716.47
4111.77
3503.32
1614.81
-111.174
-93.982
-71.2212
-44.3834
-15.0709
-451.018
-381.962
-290.015
-181.016
-61.5196
-699.626
-592.426
-449.768
-280.716
-95.4041
-806.872
-682.895
-518.2
-323.31
-109.859
-708.827
-599.458
-454.478
-283.321
-96.222
-381.906
-323.023
-244.458
-151.908
-51.4556
-176.97
-149.522
-113.257
-70.5578
-23.9557
-684.888
-579.723
-439.973
-274.538
-93.2931
-1039.97
-880.079
-667.831
-416.71
-141.612
-1149.76
-972.363
-737.494
-460.064
-156.334
-936.389
-791.249
-599.728
-373.991
-127.071
-349.655
-295.809
-224.159
-139.583
-47.3606
-87.8425
-74.3194
-56.3662
-35.1471
-11.9377
-85.9894
-72.8034
-55.2569
-34.476
-11.7138
-328.308
-278.153
-211.273
-131.902
-44.8314
-308.089
-261.078
-198.347
-123.852
-42.0993
-422.605
-357.987
-271.871
-169.715
-57.6798
-407.051
-344.818
-261.876
-163.48
-55.563
-297.686
-252.163
-191.471
-119.491
-40.6
-305.215
-258.394
-196.118
-122.367
-41.5767
-192.694
-163.013
-123.506
-76.8828
-26.0764
-225.434
-190.413
-144.168
-89.7713
-30.4662
-329.476
-277.638
-209.399
-129.818
-43.9235
-249.863
-210.408
-158.727
-98.5028
-33.362
428.407
358.941
272.304
171.401
58.7641
1561.3
1304
988.032
622.541
213.736
3006.29
2494.64
1898.55
1213.26
421.969
2385.81
2001.71
1544.22
1007.51
368.923
2181.21
1833.31
1415.68
918.471
322.009
1087.79
930.482
722.873
464
158.545
665.456
557.536
421.594
263.942
90.115
1991.12
1665.4
1259.78
790.508
270.528
3288.43
2742.32
2078.21
1312.24
451.97
3624.24
3021.65
2298.35
1462.28
508.889
3084.44
2572.74
1963.17
1254.83
436.895
1435.28
1208.17
928.473
595.311
207.049
286.57
659.513
928.085
1037.13
917.243
563.929
421.428
977.077
1354.33
1446.69
1167.65
472.778
221.541
194.881
479.258
434.794
564.559
529.859
393.74
388.205
263.077
238.758
493.345
308.564
-319.426
-1528.1
-3008.69
-2184.28
-1805.69
-445.188
-683.5
-2136.6
-3477.44
-3681.39
-2869.85
-849.384
259.242
220.009
167.412
104.676
35.6088
596.302
505.705
384.532
240.299
81.724
838.884
711.196
540.619
337.767
114.859
937.193
794.306
603.637
377.075
128.216
828.842
702.426
533.741
333.358
113.337
510.922
433.975
330.083
206.079
70.0092
381.17
323.414
246.051
153.829
52.3282
883.125
748.669
569.1
355.572
120.918
1223.56
1036.78
787.792
492.093
167.328
1306.3
1106.28
840.267
524.78
178.438
1053.78
891.971
677.267
422.944
143.816
427.743
362.858
275.814
172.215
58.5274
200.431
170.113
129.452
80.9427
27.5349
176.311
149.637
113.865
71.1933
24.2175
433.39
367.621
279.583
174.732
59.4248
393.199
333.539
253.669
158.538
53.9176
510.413
432.849
329.112
205.648
69.9313
479.023
406.203
308.832
192.967
65.6185
356.065
302.041
229.696
143.533
48.8057
350.877
297.462
226.103
141.249
48.026
238.164
202.23
153.863
96.1331
32.6772
215.755
182.861
138.944
86.7689
29.4946
446.323
378.599
287.714
179.579
61.0098
278.785
236.181
179.34
111.917
38.0287
-280.686
-232.123
-174.615
-109.708
-37.6625
-1350.22
-1123.46
-849.586
-535.525
-184.054
-2624.35
-2165.83
-1644.97
-1053.43
-367.36
-1871.38
-1547.26
-1183.65
-774.148
-289.039
-1538.22
-1259.67
-954.373
-613.85
-214.273
-366.224
-283.205
-198.648
-114.738
-34.3607
-608.707
-509.39
-384.99
-241.088
-82.3474
-1899.63
-1588.47
-1201.9
-754.754
-258.46
-3071.33
-2557.15
-1936.75
-1223.71
-421.88
-3227.54
-2677.4
-2030.22
-1291.38
-450.285
-2495.55
-2056.83
-1556.78
-992.593
-345.894
-720.853
-579.205
-430.196
-271.863
-94.3519
-1935.64
-1400.94
763.765
1260.77
1327.07
1839.27
1201.94
-9988.38
-1555.36
-3025.27
-1332.16
675.628
-4049.48
993.048
2409.03
848.724
-4908.7
-1987.5
-524.327
-257.937
-2922.9
-730.91
218.781
180.17
1884.58
1830.31
-460.972
-264.19
-8314.75
-3821.04
-3541
-1806.32
-2902.65
-2183.7
701.184
1851.18
346.085
-1041.04
-871.742
-784.234
-902.981
-915.818
-976.459
-710.593
-572.529
-463.667
-201.043
695.657
592.762
449.99
279.225
94.4019
1135.57
959.264
727.404
454.076
154.378
1196.15
1010.84
766.114
477.693
162.337
1656.94
1399.74
1060.96
661.836
224.972
1084.54
917.324
695.18
433.163
147.229
-7234.37
-6989.17
-6361.96
-6653.48
-7147.84
-1081.46
-694.538
-809.164
-943.087
-476.494
-2297.95
-1749.67
-1536
-1364.39
-711.528
-901.359
-631.747
-618.709
-574.402
-199.896
599.72
495.8
365.762
221.81
74.9867
-3363.97
-2705.86
-2123.34
-1487.44
-569.83
888.319
743.364
556.457
342.704
115.252
2094.53
1716.24
1292.12
821.289
287.592
765.854
646.382
486.461
299.841
100.554
-3178.09
-3263.55
-2986.99
-3320.76
-3861.99
-1475.74
-1031.44
-895.364
-786.983
-340.481
-418.282
-331.488
-278.451
-215.965
-85.1722
-191.688
-139.421
-115.911
-94.0601
-38.2377
-2444.09
-1954.34
-1515.87
-1038.45
-387.589
-610.994
-473.159
-356.61
-231.403
-67.9599
218.712
198.652
148.778
85.1604
27.625
179.943
164.052
123.969
72.3969
24.1924
1684.24
1411.79
1064.96
663.823
226.065
1646.14
1387.53
1048.67
652.38
221.537
-386.103
-310.133
-240.507
-163.63
-60.0451
-210.385
-161.299
-125.534
-89.2388
-33.5267
-5269.5
-4240.28
-3894.57
-4091.07
-3767.81
-2882.56
-2231.77
-1815.37
-1411.54
-620.099
-2641.27
-2221.95
-1921.1
-1724.86
-763.782
-1333.7
-1061.33
-868.235
-684.664
-352.909
-2458.01
-1982
-1519.78
-1009.18
-358.18
-1722.01
-1058.11
-893.645
-733.629
-41.9599
650.232
562.138
425.318
259.743
87.976
1668.84
1409.89
1066.97
663.849
225.348
335.338
300.694
225.253
132.251
46.3193
-92.3102
-192.555
-230.095
-281.369
-412.124
-576.957
-20017.2
-16475.4
-15497.6
-18561.7
-14097.9
-10804.2
-12967.7
-9854.98
-17620.1
-14010.8
-14814
-12606.2
-12733.2
-9677.85
-12054.7
-16871.8
-14783.8
-13154.5
-14939.7
-12539.9
-9728.28
-11175
-8396.97
-16320.9
-13762.5
-14702.2
-12881.4
-12711.1
-10611.5
-12328.6
-13159.6
-12057.4
-10562.2
-11497.1
-10497.6
-8681.16
-9395.04
-8055.72
-13575.2
-12413.1
-12884.2
-11974.2
-11753.8
-10191.4
-11450.1
-9051.29
-8681.61
-7522.76
-7822.87
-8039.46
-7532.94
-7177.91
-7163.56
-9802.24
-10857
-9489.08
-10412.4
-9057.58
-8254.39
-9871.67
-5828.94
-5739.21
-4843.85
-4921.42
-5665.37
-5738.49
-4785.57
-4954.49
-6863.29
-8373.76
-6745.38
-7801.71
-6636.81
-6434.23
-7419.64
-2130.45
-2116.99
-1743.49
-1760.06
-2132.28
-2238.1
-1718.16
-1711.34
-2810.08
-3520.65
-2743.92
-3100.2
-2725.21
-2699.53
-2951.42
-7517.55
-7570.02
-10584.5
-11660.1
-7594.07
-7194.97
-9848.07
-8206.75
-7139.13
-4628.77
-7276.3
-4551.2
-7371.18
-7399.69
-4645.75
-7150.81
-6995.33
-9764.61
-10548.4
-6761.93
-5961.63
-8885.18
-7293.11
-5031.84
-1916.37
-4986.06
-2155.39
-4251.44
-4052.55
-2506.15
-6016.57
-5915.23
-8231.26
-8678.79
-5952.09
-5495.62
-7717.18
-6932.63
-2668.22
-1841.45
-2645.12
-2452.97
-2588.91
-2853.38
-3147.43
-4436.37
-4456.6
-6045.36
-6182.57
-4597.4
-4545.96
-5950.33
-5858.38
-2756.92
-1712.07
-2974.11
-2686.2
-3262.42
-3825.21
-3638.17
-2755.31
-2775.65
-3853.15
-3887.93
-2722.23
-2736.95
-3830.52
-3786.16
-1536.91
-1263.82
-1745.2
-2125.96
-2234.32
-2733.74
-2858.78
-928.393
-938.663
-1362.99
-1370.35
-936.58
-985.768
-1349.28
-1310.05
-265.594
-522.326
-437.014
-961.287
-762.588
-991.476
-1195.98
7151.7
21538.1
5477.81
24075.3
3004.17
25503.5
5133.62
40414.9
8391.25
50754.4
8593.04
35991.9
9163.86
31978.5
8922.55
26826.2
4250.71
2305.18
12818.8
6044.59
3966.4
1819.79
13825.3
5560.98
5464.12
4019.96
16029.2
11700.2
3699.16
2906.82
16445.3
12437.5
8331.89
3023.47
6300.82
2281.79
2872.82
7722.7
39510.4
12075.4
11855.3
5480.85
47986.5
15047.1
11069.8
5206.33
26146.8
8716.62
13321.6
6073.72
21272
6763.83
4862.72
2624.66
8495.39
3427.27
4355.71
2754.72
9119
3434.72
5840.52
3710.75
5715.85
2394.87
10185
3675.57
4009.73
1480.36
12433.8
9352.91
7544.6
6763.45
13926.1
12202
7555.19
8059.57
6987.71
5993.56
9102.55
7786.41
5620.19
4833.46
3265.33
2805.62
5606.18
5592.03
3208.54
3212.07
5379.07
4216.39
3143.92
2217.22
5996.43
3374.41
6015.81
6642.02
7962.64
6063.8
8602.94
11354.7
4383.96
1875.42
3866.71
3993.77
2483.59
867.638
1774.11
1533.79
5602.9
11357.7
4070.85
12850.6
6055.5
11473.7
4875.4
13649.7
7985.24
11405.1
6762.06
13905.5
8877.52
10687.9
6828.81
6854.86
8387.85
7049.09
7751.16
10674.6
12454.4
18268.9
9527.26
7681.76
7317.38
9278.24
14785.9
14160.3
13711.2
16558.1
16642
13796.1
13834.1
16577.5
16524.1
12731.6
13231.7
15905.8
16085.5
8877.47
9428.49
8659.76
9152.67
10515.9
10538.8
12301.3
11988.1
15536.4
15735.1
8101.31
8897.62
9149.64
9775.4
10209.6
11035.1
11764.2
12922.3
15488.5
16851.9
9473.98
6464.32
7670.03
7740.48
10625.7
12104.9
8641.27
11441
7033.83
7159.36
8945.59
6419.97
3234.14
5588.83
1323.8
2081.44
5351.65
8483.88
2098.87
3178.46
2710.34
4898.37
1011.85
1784.6
6689.28
5714.51
6834.84
4277.86
9416.81
6717.98
10711.2
7155.24
3121.03
3643.19
3889.45
2210.56
2408.66
2629.69
2685.24
2038.82
11899
7823.58
2561.46
12878.1
8095.18
2796.83
11718.1
7656.45
2601.17
12877.2
8084.31
2737.61
11198.4
7205.52
2414.28
12659.5
7961.23
2736.6
6741.22
3843.56
1000.45
7986.2
5451.37
1771.76
9166.88
6456.67
2177.73
10137.9
6598.65
2161.79
12259.4
7704.44
2724.33
7440.7
4077.14
1334.55
7187.21
4648.06
1612.75
8076.1
5321.71
1819
9592.91
6157.11
2101.99
11628.7
6778.73
2345.85
-496.246
990.349
443.936
2641.42
1772.86
1794.46
4573.63
4010.07
591.831
970.75
625.839
1014.49
342.184
946.384
629.986
1386.25
1899.93
1137.86
3824.63
2705.94
1753.56
2886.52
2929.46
835.641
5866.09
1864.77
-4116.55
-590.522
680.237
711.959
37.5414
196.977
10313
4548.49
2736.45
1628.08
10174.8
4621.59
2991.56
1934
9848.46
5066.92
4037.42
2880.31
3099.48
2035.69
1746.74
1583.49
13111
11464.1
5749.02
7347.81
14668.7
13699.6
7141.96
8566.75
5245.07
6328.25
11153
9208.54
3661.72
4796.1
2114.71
2792.84
4777
5584.02
2761.98
3201.69
2988.2
4176.71
1683.52
2543.98
4690.99
3359.32
5327.08
3618.12
8054.61
4845.41
7162.48
4754.83
2796.33
2299.14
3698.89
2485.98
1577.78
1452.89
2342.98
1536.51
12069.8
8114.24
5955.86
6243.34
11962.5
8061.7
5885.83
6107.57
12091.5
7730.05
6000.45
5680.99
13217.5
12749.5
12352.7
9524.81
5539.42
7767.65
9378.19
9935.33
9350.84
6611.45
11032.9
9904.82
8231.77
6683.19
4407.31
6994.94
6978.88
7046.78
8578.63
6937.49
6733.89
6867.62
8386.73
6593.86
6336.77
6521.62
8013.89
8728.3
8253.25
8148.4
7017.99
6120.13
6147.68
5938.05
6219.13
5695.73
7544.25
6401.09
7255.51
5364.19
6107.06
4793.71
5492.59
4728.33
5696.55
4336.6
6923.72
4734.96
3796.52
3240.75
1723.3
7261.08
5519.4
5867.68
3702.36
2481.15
1423.08
3673.43
3317.31
4226.76
1832.34
1973.18
1085.86
5489.89
3136.21
2260.84
1557.41
3441.52
1469.8
1756.49
882.121
2115.45
2535.75
2640.19
4470.97
3191.02
3904.61
3188.3
5814.21
2535.64
1855.28
1935.92
3200.16
1152.04
463.53
431.71
814.869
5523.51
2532.89
730.523
5967.7
1594.48
421.023
5364.28
2634.79
822.483
5919.51
1637.85
453.876
4873.24
2409.47
622.105
5626.29
1513.49
342.163
5577.17
3045.48
801.539
4696.93
2519.46
701.265
4610.98
2316.23
660.558
4552.68
2157.39
500.698
5328.89
1333.97
226.723
6190.26
3253.83
1006.99
5345.68
2913.85
959.305
4838.47
2539.48
833.908
4664.27
1915.9
519.038
5539.21
1376.96
438.222
1760.36
674.995
322.312
11.7081
709.967
287.134
148.666
29.1143
1827.68
728.301
388.348
77.6355
869.598
391.527
252.796
118.267
2097.53
871.059
507.391
160.302
1499.24
773.426
440.277
204.317
1111.61
693.87
336.809
109.807
1160.77
790.694
461.779
256.748
1757.78
837.383
437.248
48.0483
1675.65
772.627
456.042
-34.8231
2208.14
931.436
549.758
125.038
1982.39
822.601
508.521
-60.762
1337.81
732.597
382.737
51.7794
1305.96
683.217
418.63
69.1634
998.671
638.549
402.625
233.005
912.967
571.947
393.144
224.602
2264.28
827.703
398.434
-75.4628
2375.01
808.239
443.251
-244.715
2255.6
839.812
434.034
-41.8071
2272.56
778.112
441.83
-225.841
2272.45
864.191
502.131
9.35224
2038.46
705.481
439.063
-162.038
2113.1
834.081
553.236
145.739
2248.82
799.889
565.606
-156.708
1647.35
648.7
436.646
47.7603
1972.37
595.511
331.23
-230.714
778.365
212.247
101.347
-54.6364
1935.71
600.865
340.195
-204.747
787.638
222.115
111.961
-40.6274
1818.79
587.004
355.527
-159.062
758.105
224.663
125.597
-21.0378
1532.72
504.299
342.4
-108.309
668.29
199.385
134.932
4.22585
1345.14
472.254
334.18
-39.5357
601.954
202.484
152.236
40.2804
1058.41
458.559
276.723
18.3442
553.441
282.11
175.182
92.8502
1127.7
416.425
279.892
-10.4169
548.037
226.643
159.467
69.5326
940.818
492.241
298.168
73.2013
561.955
334.183
204.213
126.737
734.247
475.524
319.511
191.213
521.232
360.614
242.599
180.077
14.7182
11.2213
7.26425
4.68877
3.50358
8.34669
5.7309
3.63661
2.34496
1.75861
36.679
24.5088
15.1271
9.63528
7.17485
38.4415
24.005