/*--------------------------------*- C++ -*----------------------------------*\
| =========                 |                                                 |
| \\      /  F ield         | OpenFOAM: The Open Source CFD Toolbox           |
|  \\    /   O peration     | Version:  2412                                  |
|   \\  /    A nd           | Website:  www.openfoam.com                      |
|    \\/     M anipulation  |                                                 |
\*---------------------------------------------------------------------------*/
FoamFile
{
    version     2.0;
    format      ascii;
    arch        "LSB;label=32;scalar=64";
    class       volScalarField;
    location    "2.3";
    object      gradTx;
}
// * * * * * * * * * * * * * * * * * * * * * * * * * * * * * * * * * * * * * //

dimensions      [0 -1 0 1 0 0 0];

internalField   nonuniform List<scalar> 
5712
(
-7862.24
-9605.11
-17975.2
-28067.5
-27139.2
-52957.4
-18772.4
-56490.9
-19372.1
-45306.5
-23818.2
-39154.7
-18227.5
-24091.7
-9803.49
-9946.11
-12743.6
-14400.4
-17503.6
-15855.1
-12174.3
-18326.3
-18169.8
-18191.8
-5140.18
-3718.04
-6971.64
-4980.17
-11653.1
-7538.97
-21572.7
-15021
-17964.8
-18193.4
-18214
-18371
-4166.87
-3741.86
-41858.9
-51770.6
-22258.1
-29716.2
-54007.4
-66462.7
-25012.3
-30780
-31329
-40967.3
-24953.2
-34578.9
-14330.9
-18160
-2921.55
-923.991
-3802
-1316.01
-6534.43
-2685.41
-11349.9
-4161.98
-7428.51
-2466.66
-7527.53
-2130.12
-14816.5
-4312.61
-19430.5
-6088.05
-25077.8
-14315.7
-21224.3
-14657.4
-25743.9
-16577.1
-20434.9
-16540.5
-16415.1
-11828.4
-17987.4
-11357
-20630.3
-15227.2
-21325.5
-15639.9
-20036.6
-16948.1
-20821.9
-17302
-16964.6
-12564.8
-18300
-13049.5
-18073.2
-7403.31
-10283.6
-11714.6
-19421
-8522.94
-10166.1
-12217.2
-18143.5
-6919.06
-10797.2
-11574.2
-18767.9
-6969.66
-11369.7
-11693.5
-2823.35
-3170.02
-991.596
-1955.11
-8143.79
-9549.62
-3335.54
-6320.66
-13233.2
-15708.9
-5933.45
-10616
-17482.5
-9232.77
-17633.9
-21084.3
-10564
-6784.39
-10853.4
-12326.7
-21414.6
-13529.4
-9946.51
-13008.7
-14373.4
-13865.7
-17249.8
-3131.08
-3215.04
-1932.33
-2064.28
-9285.5
-8886.52
-5949.4
-6051.15
-13925.2
-12800.4
-8791.97
-8850.68
-9690.92
-10844.4
-15320.9
-16252.7
-16976.4
-15982.7
-20101.8
-18483.1
-13783.3
-13749.8
-13012.6
-14205.6
-16772
-15442.7
-15751.1
-13286.1
-14056.1
-11350.9
-15541
-12422.8
-14210.1
-7743.87
-11143.3
-10899.4
-15676.6
-18317.1
-16007
-20910.6
-9382.08
-9302.37
-12857.5
-5965.44
-10742.9
-16996.3
-11088.8
-18113.6
-16232.3
-25608.9
-16757.2
-26166.2
-9067.48
-14891.4
-9358.33
-16108.8
-11156.4
-8366.52
-14238.9
-6476.93
-12113.2
-4671.4
-13482.4
-3413.04
-11557.8
-11924.6
-14894.2
-7709.46
-10404.9
-13724
-13665.9
-9790.04
-3020.69
-2821.74
-2452.25
-1949.36
-1913.24
-1681.98
-8200.57
-7115.72
-6250.59
-5331.42
-4488.2
-3812.02
-10760.3
-9184.22
-8436.81
-7672.03
-6223.85
-5661.84
-9782.33
-8006.87
-7638.72
-15202.7
-11423
-9340.39
-13626
-10073
-7870.22
-15127.4
-11941.9
-10116.8
-11624
-7962.73
-5979.52
-18292
-14981.4
-13374.8
-13371.7
-10667.5
-8900.11
-11748
-8895.8
-7046.82
-10445
-7861.6
-6284.02
-11193.8
-6751.51
-4241.51
-11394.1
-18608.2
-9646.74
-13851.8
-9226.03
-19037.2
-7713.69
-15600.9
-194.547
-1730.98
238.712
-1013.35
-3562.61
-6713.15
-2232.07
-4045.58
-1847.59
-3940.4
-10964.1
-16373.6
-8711.75
-6448.23
-11587.7
-10128.4
-15514.3
-16602.9
551.546
5467.13
-8356.95
-5874.85
-6507.33
-3752.57
-1591.36
-1019.51
-1272.52
-776.253
-3904.27
-1268.32
-1928.65
-229.128
-9966.84
-3020.56
-7463.58
-2319.31
-8476.86
-2558.14
-9604.34
-3181.45
-12224.6
-12144.4
-9532.55
-12069.5
-18454.8
-16679.3
-15131.2
-15892.4
-7120.88
-9404.15
-8302.4
-8668.37
-8938.6
-12026.1
-9407.57
-12157.9
-14458.4
-15616.6
-14992.2
-15748.5
-6307.6
-9561.41
-6120.73
-9700.05
-897.887
-1559.89
-7648.66
-4403.61
-875.247
-1334.01
-6692.95
-3731.68
-888.345
-1405.99
-8092.28
-4849.72
-1199.76
-1529.54
-8190.44
-5120.97
165.788
305.139
-490.536
-349.333
818.52
1339.51
-814.706
-571.884
-1246.23
-210.97
-2661.34
-2366.37
7687.28
3909.91
4485.76
2914.56
-141.086
7082.06
10391
4920.18
4914.08
-122.001
-9327.42
-6871.13
-5720.96
-5963.05
-3615.38
521.885
417.446
-209.121
-331.113
1459.42
1640.44
-594.732
-824.626
1214.33
1847.02
-1554.35
-1914.91
3135.93
1673.26
8089.92
5779.01
4297.61
3108.98
3844.62
3212.28
-446.067
-1268.98
-4910.57
-3391.59
493.026
2253.23
626.556
1949.61
-511.014
601.014
-1023.26
-1458.74
-4081.7
-4530.2
-9747.41
-6194.59
-8616.17
-8425.12
-12977.6
-10165.6
-7548.38
-4670.37
-2589.54
-3298.41
-11541.7
-4877.59
-12375.6
-4490.76
-14910.5
-9784.32
-15862.8
-9384.7
-9087.47
-3418
-9872.83
-2957.4
-5820.58
-4810.43
-4574.9
-8002.55
-2929.11
-3892.96
-3063.91
-6748.81
-6402.67
-4518.79
-5522.8
-9176.1
-7695.45
-4296.77
-6471.11
-9110.09
575.088
770.238
906.874
-212.199
144.572
202.869
2095.68
2569.63
2782.75
-318.405
609.866
748.518
2530.68
3663.29
4152.22
-1031.9
1070.99
1511.62
945.084
1499.21
1356.13
4529.26
4885.69
4546.68
3542.69
4193.53
4071.74
3745.64
4774.18
4962.11
-626.877
1559.76
1503.08
-3979.64
-1929.23
-1093.17
1443.28
2687.6
3087.38
1666.86
3036.14
3385.05
980.922
2668.15
3025.84
-1916.5
1057.68
1270.52
-77.0067
7.80689
39.3321
82.4226
109.699
107.135
125.691
127.551
-209.85
8.95442
106.14
218.203
251.222
246.01
273.342
289.755
-424.434
-51.0406
113.652
335.479
42.8569
204.902
242.939
329.602
47.84
133.961
97.9023
108.988
-164.69
-9.63383
50.4191
117.491
-1077.34
-321.316
-117.881
191.847
-1617.76
-512.171
-304.389
267.87
-905.419
-242.446
-39.8034
324.147
-1318.33
-408.97
-262.069
270.559
-995.403
-309.914
-114.355
161.598
-1784.16
-568.063
-323.983
332.062
-1058.29
-363.641
-112.419
216.088
-1871.88
-601.4
-340.979
364.343
-77.2355
-4.23753
15.3495
73.9599
-67.8171
-1.93743
1.5703
77.6267
-211.64
-17.3022
43.6508
196.181
-118.64
18.3765
18.963
211.882
-737.23
-186.229
-34.5383
300.948
-575.698
-118.17
-33.4444
337.8
-375.279
-34.9201
55.9901
333.225
-253.133
-7.41522
4.87643
328.853
-1119.4
-316.786
-189.475
375.232
34.6611
30.7779
22.6335
61.5859
130.215
58.2712
34.9397
37.8208
17.2993
59.4463
42.9534
162.065
316.148
150.428
86.9774
100.12
-99.8148
42.4556
44.9856
253.611
421.404
215.639
130.33
153.528
-135.598
54.7356
56.9207
336.154
425.728
252.352
148.308
181.681
-363.083
7.99238
-16.6701
327.284
215.598
224.983
114.765
168.413
-1153.83
-140.457
-123.465
309.127
-350.498
72.9437
36.125
122.535
-765.941
-42.9778
-79.2489
313.972
-133.336
150.74
73.4322
146.998
-1483.06
-275.524
-185.063
332.738
-496.688
-10.3236
-2.75502
109.337
-1716.2
-421.681
-257.311
328.726
-635.698
-115.607
-52.0516
92.08
33.0717
15.7806
8.36716
4.95907
3.59899
45.2127
23.9023
13.2869
8.06225
5.89811
70.786
33.5581
17.7145
10.5303
7.70319
119.172
65.0378
36.7548
22.5747
16.6249
100.709
48.3291
25.9671
15.6342
11.5164
171.219
92.4675
52.7531
32.6856
24.1815
57.9882
30.3747
17.3664
10.8129
8.0158
32.8171
16.5252
9.21566
5.69635
4.2053
89.0616
40.2418
21.7329
13.2089
9.69967
20.6735
6.02915
2.56638
1.38559
0.971813
131.019
66.2576
37.1648
22.9213
16.9436
36.5973
14.811
7.6673
4.56334
3.3069
31.7215
8.70739
3.45238
1.81397
1.26613
21.4706
6.74498
3.06874
1.74807
1.25903
30.3679
7.94472
3.00692
1.5541
1.0507
15.5229
2.3739
0.379106
0.0377132
-0.0357631
26.8949
11.9115
6.04422
3.48095
2.49379
25.0368
11.2116
5.71778
3.29566
2.36123
61.8247
27.0006
13.7413
7.95244
5.7348
58.148
25.4538
13.0278
7.54178
5.41429
80.5613
33.0226
16.6681
9.62112
6.94515
70.0418
31.2768
16.3823
9.57997
6.95428
94.3971
46.8703
26.0641
15.9445
11.7878
46.6247
22.8625
12.4507
7.4204
5.46953
54.4303
28.2467
16.0309
9.94804
7.37042
-509.4
-613.243
-1402.78
-1741.02
-2145.49
-2783.51
-2607.86
-3685.68
-2606.13
-3679.02
-2352.13
-3102.19
-2194.92
-2644.1
-2659.11
-3597.57
-2748.67
-3749.46
-492.299
-107.707
-23.4197
-4.96432
-1.20398
-211.965
-75.9079
-8.41679
-2.37488
-0.945704
-1589.71
-350.36
-76.6275
-16.3681
-3.99872
-550.264
-117.141
-23.7339
-4.62493
-0.989168
-2801.14
-620.947
-136.601
-29.4438
-7.25645
-961.276
-227.736
-50.1824
-10.911
-2.63078
-4020.32
-896.222
-199.091
-43.4071
-10.8312
-1348.03
-348.444
-82.1194
-18.7868
-4.7537
-5609.57
-1286.31
-291.866
-64.804
-16.4519
-1793.71
-524.511
-131.118
-30.9942
-8.05571
-7569.99
-1894.86
-453.887
-104.899
-27.4614
-2078.82
-645.299
-166.694
-40.1345
-10.6083
-6893.8
-1672.22
-390.894
-88.5849
-22.8318
-2013.77
-630.898
-162.715
-39.0834
-10.2425
-7891.88
-2002.27
-485.614
-113.477
-29.9687
-2122.55
-640.522
-162.917
-38.7849
-10.2215
-8131.32
-2057.11
-501.127
-117.758
-31.261
-2121.58
-642.06
-163.185
-36.0654
-10.0764
-252.054
-6504.14
-6392.93
-3618.61
3680.76
5063.35
10206.5
13416.1
5790.62
11696.9
2256.6
7076.12
5728.79
9506.07
10430.6
14382.7
12575.5
14303
7181.88
8124.45
-18884.6
-14129
-4467.75
-3492.12
-2724.59
-4384.25
-3061.88
-12380.2
-12201.3
-10453.8
-11080.4
-9138.8
-6333.19
-8686.37
-5350.16
-4107.97
-5093.53
-3261.95
-20425.9
-10200.4
-3068.54
-5125.7
-7717.35
-5257.27
-6234.3
-4713.03
-2304.32
-3903.44
-3403.96
-3966.08
-18970.9
-11829.9
-11890.6
-7576.84
-8068.77
-8089.22
-4074.74
-5201.39
-5350.01
-12854.9
-12332.3
-10658.4
-10690.3
-9866.06
-10123.1
-7577.38
-6347.01
-5332.1
-2468.72
-3957.63
-3289.7
-2472.06
-1542.26
-525.028
-3123.62
-2619.44
-1974.89
-1229.05
-417.433
-2420.7
-2013.9
-1506.28
-931.647
-315.484
-3922.81
-3288.65
-2475.72
-1537.29
-521.351
-2721.76
-2267.19
-1699.83
-1054.49
-357.773
-8263.67
-7071.44
-5715.9
-5407.81
-5947.6
-6707.56
-5339.3
-3818.72
-3143.92
-2661.29
-7261.97
-4978.67
-3792.86
-2869.33
-1283.95
-6004.91
-4513.98
-3143.6
-2476.82
-1750.68
-4641.36
-3243.91
-2160.9
-1780.25
-1067.56
-5050.86
-3806.65
-2712.64
-1692.87
-601.183
-6233.41
-4324.25
-3082.83
-2043.44
-822.073
-3755.14
-2473.97
-1677.38
-1061.73
-405.126
-3398.88
-2639.34
-1892.81
-1161.6
-399.167
-4110.77
-3107.16
-2185.83
-1328.12
-456.101
-2729.45
-2138.3
-1535.23
-935.672
-318.134
-13964.5
-11613.8
-9741.24
-9164.33
-8695.33
-7866.82
-5894.56
-4526.16
-3272.75
-1401.9
-2557.95
-2006.08
-1456.89
-906.452
-314.503
-4353.52
-3485.66
-2582.33
-1632.87
-570.762
-6384.26
-5020.41
-3766.67
-2481.39
-907.872
-4501.59
-3634.11
-2717.19
-1729.14
-601.274
-5433.48
-4448.37
-3331.07
-2094.31
-715.184
-4114.98
-3372.38
-2511.23
-1564.07
-534.294
-1989.83
-1607.68
-1176.63
-720.623
-243.808
-3436.76
-2834.13
-2108.2
-1302.61
-441.643
-2899.7
-2316.41
-1690.86
-1042.48
-356.116
-3437.15
-2795.84
-2070.31
-1286.56
-440.101
-12821.2
-11555.9
-9984.25
-9737.37
-8753.57
-8806.33
-6626.04
-5406.77
-4304.14
-1963.25
-9592.07
-7842.45
-6292.6
-4980.59
-2246.87
-6216.74
-4727.61
-3641.11
-2519.14
-811.168
-6817.58
-5414.3
-4086.61
-2666.68
-907.117
-6609.65
-4992.59
-3829.21
-2642.66
-827.919
-3523.07
-2862.36
-2129.15
-1334.83
-458.434
-4585.53
-3791.01
-2833.12
-1760.33
-598.767
-4619.26
-3752.43
-2798.05
-1761.51
-606.958
-6237.67
-13682.6
-10973.7
-35657.4
-10359.6
-46589.9
-6933.32
-18320.2
-9047.32
-7609.59
-17741.6
-13854.2
-9221.54
-11099.3
-19427.3
-16146.3
-3913.27
-2664.96
-8999.63
-6315.9
-6866.77
-3585.16
-24806.2
-17466.7
-15044.1
-10473.5
-15594.8
-10151.3
1687.08
-1486.02
-42832.2
-52136.8
-21607.6
-29613.9
-54651.9
-66714.3
-24224.6
-30590.2
-31997.4
-41349.9
-24322.3
-34557.6
-15390.4
-18583.6
-2101.05
-400.961
-4580.41
-1474.11
-3977.43
-1871.89
-12830.1
-4579.48
-2005.87
-947.127
-5637.56
-1559.3
-14876
-4279.54
-19609.1
-6130.65
-18363.5
-11245.3
-18949.2
-13107.6
-17880
-12735.3
-17817
-14681.6
-14885.1
-10678.8
-13653.4
-9177.48
-19718.8
-14505.1
-21099.2
-15432.4
-18964.2
-16115.9
-20525.2
-17060.8
-16403.7
-12015.6
-18173.2
-12890.1
-17210.3
-7204.13
-9476.52
-11406.4
-16767.8
-7858.82
-8573.22
-11641.5
-17892.6
-6858.05
-10415.9
-11416.8
-18736.6
-6963.1
-11257.5
-11647.1
-647.859
-483.654
108.149
-656.165
-2403.01
-2963.29
-1687.42
-4378.74
-3571.27
-4767.11
-3708.85
-8046.23
-16676.7
-16003.4
-13270
-15562.5
-9360.97
-10776.8
-8599.8
-7364.94
-15393.5
-12552.3
-12469.6
-11807.6
-11203.4
-10535.5
-16034
-688.374
-875.461
-438.821
-658.188
-2962.35
-2651.53
-3348.48
-3322.23
-2837.13
-1474.42
-5557.72
-5308.06
-11743
-12631.9
-10988.4
-10954.6
-9880.66
-8231.73
-13294.4
-11450.8
-11781.4
-11161.9
-15124.2
-15629
-14230.3
-12841.1
-11643.8
-9650.52
-10442.4
-8238.19
-13958.6
-10404.6
-13124.6
-7884.14
-10755
-10911.6
-16141
-19134.4
-16107.9
-21181.3
-8755.05
-9111.05
-11225.4
-5695.65
-10604.9
-16927.1
-11047.2
-18082.5
-16317.1
-25835.5
-16765.7
-26175.8
-8818.31
-14723.5
-9288.74
-16057.4
-10583.9
-8166.59
-13929.4
-6379.09
-10734
-4437.9
-12867.2
-3405.15
-11318.3
-11780.6
-14750.1
-7651.68
-10338.1
-13677.1
-13629.7
-9764.17
-1068.04
-813.364
-599.745
-740.373
-2019
-954.534
-2786.34
-2775.96
-396.499
-241.043
-4949.6
-4814.02
-13637.6
-11752.2
-10743.9
-8318.28
-6922.94
-4718.45
-9174.85
-6995.51
-9696.5
-6518.58
-19900.8
-16982.5
-10405.2
-8452.93
-8039.44
-5949.78
-6964.7
-4846.9
-7801.91
-4001.53
-5873.74
-11180.7
-5420.7
-10902.5
-7318.85
-11945.3
-8604.47
-13359.9
-1656.39
-1574.89
-1486.96
-1505.97
-4638.72
-4879.13
-4352.23
-4534.23
-1992.31
-2332.39
-9154.17
-10058.3
-5608.6
-6334.66
-10513.9
-9893.9
-14492.8
-16323
555.379
5305.45
-7802.15
-5823.53
-6291.8
-3783.34
-1407.86
-1340.73
-1535.12
-1314.63
-3160.79
-2147.73
-2510.81
-1565.19
-8343.33
-4169.93
-7812.14
-3805.75
-8607.31
-3403.82
-9686.6
-3527.41
-6723.29
-9706.27
-7579.37
-10734.4
-11369.1
-12896
-12645.6
-14026.3
-6038.59
-8794.66
-5269.35
-7823.87
-8139.98
-11456.2
-9170.19
-11994
-13404.3
-14810.1
-14681.4
-15515.4
-5885.28
-9310.04
-5998.29
-9630.08
-1070.07
-2059.92
-7684.25
-4694.61
-1237.07
-2185.2
-6934.51
-4167.3
-1098.59
-1804.67
-8131.39
-5058
-1290.23
-1695.07
-8188.67
-5213.63
-1293.59
-1474.56
-1358.38
-1552.83
-3163.2
-3528.62
-2411.25
-2793.3
-7668.71
-8318.57
-4504.12
-4975.59
-4234.95
-9449.31
-2897.77
-675.342
-1732.81
-4178.93
-1228.64
-2007.68
1649.39
-1199.12
-13702.5
-10097
-7903.37
-7805.83
-4526.76
-1779.48
-1957.35
-1823.2
-2250.08
-4187.8
-4509.34
-3321.92
-4182.4
-8853.11
-9997.36
-5036.94
-6431.01
-6181.96
-7502.06
-2219.98
-4239.37
-3549.76
-4859.32
-1183.57
-2056.22
-2251.46
-3490.58
-11303.4
-8830.16
-6293.88
-4337
-4812.02
-3302.99
-4715.43
-3271.13
-2880.45
-3582.12
-7554.33
-8065.64
-11362.5
-7755.33
-11233.8
-11229.6
-13990.7
-11406.5
-9479.57
-6280.7
-5992.64
-6699.29
-12331.2
-5771.88
-12592.8
-4701.4
-15376
-10520.4
-15973.8
-9537.37
-10083.2
-4339.15
-10162.1
-3196.33
-7719.45
-6343.7
-6280.06
-9808.12
-5917.52
-6897.1
-5240.63
-9601.01
-7429.6
-5439.39
-6558.72
-10267.4
-8014.29
-4577.6
-6804.87
-9398.33
-1648.11
-1716.76
-1609.97
-1280.6
-4898.08
-5524.8
-2594.6
-1471.32
-10798.4
-8941.27
-3880.34
-478.644
-9366.8
-8105.04
-6055.98
-5022.13
-5143.32
-4067.55
-2010.62
-918.062
-2474.42
627.582
-8449.36
-6995.99
-4183.92
-2901.59
-2855.39
-1382.38
-2352.34
-657.845
-4178.59
429.49
-315.582
-133.331
-44.1411
35.9349
-336.66
-170.169
-47.2536
19.791
-813.006
-347.515
-95.4012
121.041
-769.736
-397.702
-147.02
-3.94603
-1223.8
-527.256
-180.317
171.165
-1200.48
-600.696
-337.715
-125.151
-715.086
-377.2
-244.479
-89.9755
-496.11
-238.393
-103.77
23.4371
-1523.35
-608.223
-336.803
22.2561
-1765.85
-576.11
-364.556
272.29
-1538.56
-610.148
-324.716
57.458
-1509.1
-492.752
-339.482
275.131
-1338.25
-536.842
-256.848
109.13
-1897.58
-619.654
-380.04
304.788
-1205.78
-463.82
-178.349
183.701
-1921.61
-626.151
-363.191
357.57
-297.144
-113.358
-43.3106
52.2409
-298.1
-99.1717
-55.398
58.8486
-770.313
-298.59
-109.027
140.587
-757.516
-262.236
-139.998
165.929
-1361.15
-514.012
-228.43
249.855
-1316.53
-461.658
-247.317
280.239
-1359.45
-553.558
-280.218
112.924
-998.537
-371.044
-202.259
283.351
-1530.8
-514.796
-354.289
326.813
-218.031
-72.3043
-29.5191
37.1114
-127.174
-51.2208
-17.8153
4.17761
-603.3
-201.51
-96.8177
96.6565
-356.911
-146.205
-61.5759
6.25501
-849.687
-294.905
-150.047
155.148
-511.349
-229.839
-97.8932
10.0949
-1013.17
-375.415
-200.387
198.278
-678.628
-312.892
-140.558
6.27481
-1216.56
-422.71
-288.518
169.236
-920.896
-366.052
-200.489
-28.7207
-2095.18
-687.709
-466.42
113.829
-1122.84
-394.936
-234.559
-44.113
-1808.29
-596.631
-426.317
114.682
-1168.27
-411.628
-241.748
-51.7471
-2096.37
-656.934
-424.987
200.203
-968.456
-322.248
-185.699
2.59641
-1922.01
-554.976
-341.285
283.42
-787.528
-221.574
-114.749
56.1529
-6.77007
-10.6484
-7.76681
-5.2769
-4.0406
-26.0023
-19.724
-12.8279
-8.42199
-6.39062
-14.7936
-22.4103
-16.2796
-10.9982
-8.3553
-82.677
-56.477
-35.5352
-22.9741
-17.3165
-36.3191
-36.0203
-24.391
-16.1057
-12.1313
-127.156
-82.8001
-50.7584
-32.4075
-24.3024
-42.157
-27.3405
-16.6536
-10.5846
-7.92733
-19.1891
-13.6623
-8.6548
-5.57473
-4.21424
-33.8978
-30.9653
-20.1804
-13.1239
-9.91017
7.6716
-1.86731
-2.13637
-1.5758
-1.23467
-86.5082
-57.8404
-35.4399
-22.6064
-16.9399
-6.56625
-10.4444
-7.15211
-4.73079
-3.60928
12.5687
-1.36332
-2.43583
-1.8919
-1.50132
3.91866
-2.845
-2.53164
-1.76981
-1.36554
14.7314
-0.618705
-2.0537
-1.66902
-1.39792
14.0752
1.85082
0.0801417
-0.169363
-0.217942
-0.131534
-7.05957
-5.66597
-3.96639
-3.06699
-2.86601
-7.17912
-5.46383
-3.78589
-2.92046
-3.86031
-17.2143
-13.1918
-9.10558
-6.98723
-8.84194
-17.4704
-12.8113
-8.77031
-6.74116
-3.52697
-22.1789
-16.5601
-11.3465
-8.67774
-23.8151
-25.3346
-17.064
-11.4264
-8.67977
-62.736
-41.8539
-25.5611
-16.3675
-12.2451
-31.3378
-21.4186
-13.2901
-8.67982
-6.50161
-45.249
-26.0859
-15.3606
-9.6705
-7.21764
-183.112
-304.101
-616.295
-976.398
-1206.13
-1835.2
-1781.64
-2796.92
-2025.6
-3059.6
-2266.64
-3039.64
-1946.89
-2473.36
-2636.84
-3574.16
-2746.78
-3745.02
-488.377
-109.045
-23.8678
-5.06885
-1.22977
-148.446
-68.8903
-6.6882
-2.14166
-0.934191
-1595.41
-356.897
-78.4184
-16.7681
-4.09527
-389.974
-90.2381
-19.2417
-3.874
-0.845012
-2814.05
-631.068
-139.39
-30.0812
-7.41319
-766.707
-194.997
-44.7216
-10.0175
-2.46408
-4020.92
-904.536
-201.721
-44.0523
-10.9982
-1173.34
-318.345
-76.9981
-17.9388
-4.59575
-5592.4
-1290.63
-293.787
-65.3402
-16.6031
-1680.31
-503.311
-127.365
-30.3665
-7.94102
-7544.42
-1891.62
-453.743
-104.984
-27.509
-2061.04
-640.411
-165.615
-39.9266
-10.566
-6868.24
-1671.88
-391.71
-88.9055
-22.9392
-1962.64
-619.16
-160.435
-38.683
-10.168
-7873.46
-1999.17
-485.224
-113.464
-29.9828
-2117.64
-639.012
-162.548
-38.7092
-10.2048
-8125.09
-2056
-500.966
-117.747
-31.2642
-2121.12
-641.869
-163.129
-36.0541
-10.0736
-158.322
-6377.13
-5931.82
-2896.04
-1485.57
-875.478
-3179.78
-2495.14
-5443.63
-5926.54
-3101.16
-2916.97
-409.151
-620.772
-1042.61
-1610.81
-2272.59
-2924.26
-281.932
-586.205
-1188.54
-2012.63
-2955.97
-3897.44
-318.895
-138.708
-561.418
-348.524
-1038.08
-774.789
-1655.58
-1427.06
-2264.12
-2241.95
-2773.61
-3037.47
-3595.18
-4299.45
-5154.51
-7194.28
-7530.03
-9068.72
-4727.19
-5286.75
-5397.95
-5146.35
-4233.02
-3773.3
-369.779
-313.424
-238.179
-148.763
-50.5772
-560.719
-474.958
-360.709
-225.19
-76.543
-941.139
-796.613
-604.595
-377.285
-128.216
-1452.7
-1228.4
-931.544
-581.031
-197.419
-2046.64
-1728.17
-1309.14
-816.148
-277.272
-2627.37
-2213.52
-1674.41
-1043.49
-354.554
-254.69
-215.792
-163.925
-102.354
-34.7909
-529.264
-448.109
-340.177
-212.311
-72.1535
-1072.45
-907.407
-688.476
-429.559
-145.971
-1814.37
-1533.7
-1162.83
-725.275
-246.44
-2660.96
-2246.16
-1701.41
-1060.89
-360.495
-3500.62
-2948.83
-2231.18
-1391.23
-472.936
-288.302
-244.415
-185.771
-116.05
-39.463
-125.406
-106.319
-80.8101
-50.481
-17.1665
-507.271
-429.808
-326.5
-203.871
-69.3067
-314.947
-266.89
-202.764
-126.617
-43.0453
-937.375
-793.696
-602.543
-376.062
-127.811
-699.746
-592.602
-449.948
-280.846
-95.4527
-1493.53
-1263.27
-958.126
-597.615
-203.047
-1287.46
-1089.02
-825.942
-515.125
-175.007
-2039.4
-1722.21
-1304.49
-813.044
-276.157
-2019.1
-1704.57
-1290.58
-803.997
-273.001
-2491.36
-2097.95
-1585.96
-987.705
-335.445
-2726.98
-2294.41
-1732.32
-1077.44
-365.621
-3217.2
-2700.56
-2039.21
-1271.32
-432.362
-3819.33
-3186.21
-2401.85
-1501.79
-512.375
-4515.28
-3725.49
-2807.97
-1773.95
-610.767
-6145.21
-4976.1
-3777
-2458.28
-864.758
-6118.52
-4838.33
-3764.9
-2634.67
-1021.84
-7077.53
-5506.47
-4391.77
-3263.49
-1333.26
-4231.38
-3554.01
-2686.09
-1676.29
-570.547
-4707.8
-3938.06
-2974.23
-1861.06
-635.306
-4767.84
-3964.72
-2995.34
-1886.19
-647.983
-4480.3
-3688.94
-2795.43
-1787.03
-622.641
-3583.97
-2906.48
-2226.89
-1476.31
-536.835
-3089
-2462.14
-1916.96
-1330.86
-506.091
-433.035
-693.373
-1165.95
-1784.02
-2493.62
-3174.71
-313.075
-680.797
-1347.69
-2231.99
-3218.87
-4167.86
-343.972
-158.162
-638.179
-409.064
-1171.02
-883.2
-1848.31
-1596.97
-2523.42
-2534.38
-3077.08
-3543.27
-3860.56
-4570.26
-5423.66
-7379.24
-7654.73
-9116.13
-4956.71
-5428.49
-5430.08
-5080.36
-4144.59
-3734.47
-391.468
-331.917
-252.321
-157.641
-53.6042
-626.695
-531.256
-403.795
-252.259
-85.7763
-1053.36
-892.521
-678.123
-423.544
-144.007
-1610.62
-1363.74
-1035.59
-646.649
-219.849
-2248.82
-1902.12
-1443.45
-901.15
-306.388
-2857.81
-2413.19
-1829.73
-1142.41
-388.557
-282.976
-239.904
-182.358
-113.925
-38.7362
-615.2
-521.418
-396.267
-247.539
-84.1682
-1217.23
-1031.12
-783.305
-489.211
-166.333
-2014.37
-1705.07
-1294.58
-808.357
-274.84
-2901.48
-2453.14
-1861.28
-1162.09
-395.162
-3749.51
-3164.6
-2399.12
-1498.23
-509.728
-311.05
-263.794
-200.577
-125.338
-42.6284
-143.049
-121.339
-92.277
-57.6706
-19.6166
-576.982
-489.247
-371.954
-232.407
-79.0375
-369.894
-313.708
-238.54
-149.064
-50.6967
-1058.29
-896.985
-681.687
-425.833
-144.797
-798.31
-676.768
-514.413
-321.372
-109.281
-1669.25
-1413.86
-1073.9
-670.627
-228.005
-1442.5
-1222
-928.288
-579.721
-197.099
-2276.57
-1926.25
-1462.02
-912.734
-310.304
-2286.86
-1935.24
-1468.92
-917.006
-311.741
-2770.55
-2339.88
-1774.16
-1107.57
-376.643
-3191.56
-2696.23
-2044.38
-1275.95
-433.822
-3464
-2917.09
-2209.86
-1381.18
-470.361
-4075.95
-3416.14
-2586.96
-1623.14
-554.769
-4778.98
-3969.79
-3011.3
-1911.22
-659.459
-6346.71
-5179.51
-3960.7
-2591.95
-913.585
-6267.69
-4995.54
-3914.66
-2752.78
-1069.91
-7139.49
-5574.55
-4460
-3321.32
-1357.21
-4445.16
-3741.95
-2834.53
-1772.04
-603.7
-4843.98
-4061.99
-3075.56
-1928.33
-658.977
-4806.23
-4006.88
-3035.62
-1916.16
-659.161
-4430.93
-3657.16
-2780.25
-1783.3
-622.575
-3512.69
-2853.81
-2194.36
-1461.8
-533.605
-3057.89
-2439.2
-1903.09
-1325.3
-505.075
-18804.2
-14187.1
-4868.93
-3901.87
-3281.85
-5075.44
-3572.18
-13132.4
-14245.5
-11875.5
-13655.7
-7357.77
-11481.8
-5373.38
-5640.42
-3976.84
-21154.2
-11065.6
-3591.39
-5751.32
-8355.58
-5643.38
-6899.58
-5266.8
-2574.63
-4615.7
-4035.44
-4479.16
-18855.8
-12055.2
-12418.1
-7968.36
-8436.87
-8544.71
-4739.59
-5892.87
-5798.7
-12836.7
-12376.7
-10757
-10865.7
-10044.6
-10218.4
-7685.85
-6463.34
-5444.52
-2518.42
-4340.07
-3634.38
-2751.05
-1725.92
-589.331
-3503.88
-2952.31
-2236.58
-1397.19
-475.518
-2942.6
-2475.67
-1873.47
-1169.99
-398.382
-4564.09
-3849.89
-2916.9
-1820.75
-619.294
-3200.19
-2690.78
-2036.66
-1273.01
-433.727
-9786.26
-8918.16
-7658.72
-7249.2
-7509.83
-10129
-9393.67
-7828.64
-6675.54
-5142.69
-9220.69
-7008.07
-5686.34
-4376.56
-1949.57
-10049.3
-8754.13
-7064.16
-5803.51
-3661.77
-6269.56
-5057.98
-3834.65
-2503.78
-911.117
-9330.61
-7200.73
-5556.51
-3861.42
-1571.41
-4672.81
-3833.21
-2893.74
-1845.84
-647.704
-4887.07
-3996.87
-3017.79
-1931.34
-680.899
-3481.29
-2870.85
-2165.51
-1372.1
-476.945
-15314.3
-13229.6
-11447.3
-10789.7
-9994.22
-8936.84
-7019.6
-5579.34
-4090.33
-1745.68
-3118.24
-2557.03
-1935.74
-1241.62
-437.83
-5006.28
-4120.82
-3132.52
-2017.32
-711.635
-7098.48
-5747.45
-4425.36
-2965.39
-1093.79
-4909.18
-4035.34
-3069.32
-1978.07
-692.726
-6082.27
-5045.66
-3824.88
-2425.7
-832.309
-4664.38
-3886.79
-2941.8
-1855.15
-638.026
-2281.47
-1900.41
-1434.44
-900.74
-309.146
-4118.77
-3451.56
-2609.83
-1633.88
-558.065
-3546.1
-2934.99
-2217.23
-1403.58
-486.486
-3956.45
-3290.17
-2489.58
-1572.96
-542.941
-12917.1
-11817.4
-10369.1
-10251
-9313.99
-9114.17
-6953.97
-5731.89
-4585.36
-2092.62
-10350.9
-8686.48
-7144.04
-5711.75
-2591.51
-6657.63
-5172.6
-4046.57
-2821.8
-912.338
-7233.18
-5838.14
-4473.86
-2951.51
-1011.02
-7147.51
-5538.5
-4335.72
-3025.76
-962.979
-4172.96
-3461.89
-2625.15
-1667.89
-576.753
-5248.96
-4392.85
-3322.95
-2084.15
-712.566
-5082.58
-4201.35
-3185.83
-2031.07
-704.733
-470.362
-1283.49
-1953.58
-2572.1
-3198.46
-3769.99
-2347.59
-6062.13
-5704.96
-2359.68
-6919.16
-6212.09
-7436.91
-9930.62
-1325.9
-174.562
-2509.97
1205.91
-9814.66
-8144.61
1899.44
-1716.36
-4806.21
-4625.94
-1819.76
-5284.05
-2945.34
-5936.61
-6107.86
-588.727
887.638
-1086.67
3317.12
-6934.29
-4437.66
3711.25
-1066.85
-3291.08
-3398.5
-1258.22
-3320.61
-516.963
-4449.55
-4474.77
-171.835
1079.06
68.5732
3492.47
-4289.2
-462.306
4237.24
-719.233
-2366.43
-2758.13
-973.395
-1812.8
791.225
-3772.28
-4236.84
27.3585
786.53
400.622
2943.11
-3277.53
1504.54
4056.01
-624.177
-2229.82
-2645.2
-896.759
-1697.75
513.634
-4012.58
-5468.86
103.415
606.491
508.765
2576.49
-3125.19
1527.83
2836.47
-603.308
-2200.1
-2583.77
-871.626
-2084.6
-228.548
-3943.53
-5378.83
149.982
950.914
418.667
2683.55
-3610.14
665.265
2133.31
-1319.81
-3142.59
-4168.31
-1696.2
-6448.94
-11518.4
-6950.69
-12283.1
-1624.48
-1450.13
-5226.45
-4409.81
-2391.19
-9522.59
-4760.22
-1294.4
-3065.93
-3731.07
-1472.86
-6112.29
-9853.75
-6256.84
-9017.04
-1697.2
-1344.22
-5109.93
-4220.2
-1754.57
-8819.69
-4653.64
-1202.25
-2868.63
-3124.77
-1198.23
-5547.68
-8615.14
-5292.99
-8019.61
-1466.73
-1728.54
-4515.32
-5023.17
-2035.07
-7827.45
-5232.87
-1211.84
-3133.75
-2898.38
-1066.02
-5897.44
-8458.32
-5233.6
-7879.62
-1538.8
-2143.42
-4676.75
-6193.3
-2573.52
-8599.76
-6353.74
-1224.38
-3117.34
-2854.79
-1031.09
-5819.22
-9111.58
-5248.96
-8660.39
-1671.65
-2744.99
-5038.84
-7901.27
-3651.18
-10198.2
-8276.52
-1240.61
-3116.56
-2823.92
-1020
-5912.5
-9351.7
-5138.09
-8562.93
-1880.04
-3420.93
-5561.1
-9042.04
-4857.17
-11257.7
-9281.41
7211.87
8731.64
17971.3
28020
27142.2
52941.4
18775.2
56486.4
19375.7
45301.5
23830.6
39149.6
18258.3
24079.6
8452.18
8551.33
12745.6
14400.7
17499
15853.7
12176.8
18327.7
18169.9
18192.2
4737.02
3442.21
6392.86
4571.37
11659.9
7535.25
21538.8
14993.2
17950.9
18191.7
18208.4
18368
4163.14
3727.11
41859.8
51771.5
22257.9
29716.4
54007.4
66462.8
25012.6
30780.2
31329.9
40968.7
24952.1
34579.4
14333.5
18161.6
2740.18
874.451
3509.11
1221.54
6519.38
2686.8
11325.9
4156.83
7420.82
2464.4
7516.83
2126.88
14816.7
4312.52
19431.7
6088.43
25076.9
14315.3
21223.3
14657
25744.3
16577.3
20435
16540.5
16413.4
11827.7
17985.8
11356.1
20629.9
15226.9
21325.4
15639.7
20036.7
16948.1
20821.9
17302
16964.1
12564.4
18299.9
13049.2
18070.3
7402.55
10282.6
11714.3
19417.3
8522
10164.6
12216.7
18142.9
6918.91
10796.8
11574.1
18768.1
6969.76
11369.4
11693.5
2645.73
2957.77
936.048
1824.52
8117.1
9507.76
3334.93
6302.91
13221.5
15694.3
5930.06
10610.1
17481.6
9232.45
17632.2
21079
10562.9
6784.06
10852.7
12325.5
21408.7
13528
9946.49
13008.2
14372.1
13863
17248.7
2888.96
2963.53
1762.29
1911.03
9275.34
8862.51
5967.97
6055.17
13918.6
12792.9
8794.53
8852.31
9690.64
10844.2
15320.2
16252.1
16975.1
15981.7
20098.3
18480.3
13784.2
13751.1
13012.4
14205.3
16771.3
15442.3
15749.9
13285.5
14054.6
11350.1
15541.1
12423.4
14209.6
7743.69
11143
10899.3
15676.5
18317
16007
20910.5
9381.64
9302.2
12856.8
5965.2
10742.7
16996.1
11088.6
18113.4
16232.2
25608.7
16757.1
26166
9067.21
14891.3
9358.14
16108.7
11156
8366.44
14238.9
6476.99
12112.5
4671.24
13482.4
3413.22
11557.6
11924.5
14894.2
7709.51
10404.8
13724
13666
9790.09
2752.84
2568.65
2243.07
1809.16
1776.66
1565.34
8190.04
7105.73
6245.7
5335.35
4491.54
3817.64
10756.2
9181.56
8435.92
7673.44
6225.34
5664.33
9782.17
8006.8
7638.7
15202.3
11422.8
9340.34
13625.4
10072.7
7870.18
15125.8
11941.1
10116.6
11624.9
7963.53
5980.62
18291.8
14981.3
13374.8
13371.5
10667.4
8900.07
11747.7
8895.67
7046.82
10444.6
7861.44
6284.06
11194.1
6751.78
4241.89
11403.2
18611.8
9658.66
13855
9230.8
19040
7718.86
15602.9
209.965
1602.85
-191.919
932.061
3524.66
6697.94
2192.03
4035.51
1839.69
3933.24
10962.3
16371.1
8704.84
6442.07
11588.7
10128.9
15515.2
16603.4
-552.278
-5467.26
8356.56
5875.03
6506.81
3752.53
1448.11
944.508
1151.33
710.026
3909.65
1261.37
1932.16
227.157
9965.46
3017.57
7462.52
2317.54
8476.36
2557.6
9604.4
3181.33
12225.9
12144.9
9533.39
12069.9
18456.3
16679.9
15132
15892.7
7120.66
9404.19
8301.95
8668.33
8939.09
12026.4
9407.97
12158.2
14458.9
15616.8
14992.5
15748.7
6307.63
9561.55
6120.94
9700.29
897.056
1559.06
7648.51
4403.3
874.135
1332.54
6692.68
3731.13
887.933
1405.58
8092.29
4849.6
1199.74
1529.39
8190.59
5120.98
-157.71
-283.025
460.434
327.809
-815.223
-1337.56
807.277
562.504
1246.19
211.25
2657.6
2363.08
-7687.06
-3909.77
-4485.72
-2914.77
139.621
-7081.97
-10390.8
-4920.04
-4913.79
120.74
9327.59
6871.31
5720.87
5962.77
3614.48
-495.204
-389.803
177.607
290.318
-1451.33
-1638.21
599.619
828.293
-1211.68
-1844.04
1555.38
1917.46
-3135.77
-1673.09
-8089.54
-5778.54
-4297.15
-3108.3
-3843.25
-3210.28
446.21
1270.18
4910.71
3391.73
-492.708
-2252.83
-626.189
-1949.03
511.52
-600.18
1023.3
1459.42
4082.03
4530.47
9747.65
6194.76
8616.4
8425.24
12977.8
10165.7
7548.56
4670.54
2589.81
3298.76
11541.9
4877.73
12375.7
4490.9
14910.6
9784.38
15862.9
9384.75
9087.62
3418.14
9873.01
2957.55
5820.67
4810.57
4574.87
8002.68
2929.33
3893.35
3063.93
6749.2
6402.75
4518.9
5522.8
9176.2
7695.59
4296.91
6471.2
9110.23
-550.054
-721.976
-847.892
170.058
-152.78
-203.389
-2081.42
-2558.29
-2774.8
332.519
-601.256
-743.026
-2524.78
-3658.28
-4148.6
1036.54
-1067.39
-1509.08
-944.912
-1499.02
-1355.94
-4528.71
-4885.16
-4546.22
-3541.74
-4192.63
-4071.02
-3742.73
-4771.46
-4959.96
628.69
-1558.08
-1501.72
3979.78
1929.4
1093.37
-1442.84
-2687.14
-3086.95
-1666.15
-3035.44
-3384.42
-979.847
-2667.05
-3024.83
1917.47
-1056.79
-1269.81
73.3659
-6.24551
-35.2737
-75.3508
-102.723
-99.7537
-116.362
-117.534
208.344
-9.49275
-106.735
-218.497
-249.877
-245.493
-273.132
-289.448
423.457
50.6179
-114.06
-335.691
-42.9435
-204.975
-243.114
-329.67
-48.0146
-134.043