/*--------------------------------*- C++ -*----------------------------------*\
| =========                 |                                                 |
| \\      /  F ield         | OpenFOAM: The Open Source CFD Toolbox           |
|  \\    /   O peration     | Version:  2412                                  |
|   \\  /    A nd           | Website:  www.openfoam.com                      |
|    \\/     M anipulation  |                                                 |
\*---------------------------------------------------------------------------*/
FoamFile
{
    version     2.0;
    format      ascii;
    arch        "LSB;label=32;scalar=64";
    class       volScalarField;
    location    "2.3";
    object      T;
}
// * * * * * * * * * * * * * * * * * * * * * * * * * * * * * * * * * * * * * //

dimensions      [0 0 0 1 0 0 0];

internalField   nonuniform List<scalar> 
5712
(
540.903
557.094
528.29
547.696
511.423
533.84
485.276
509.66
488.702
513.334
512.916
537.173
524.032
546.185
534.469
553.603
502.747
486.988
519.648
495.232
477.037
459.915
492.902
467.015
548.5
555.019
561.2
564.453
538.945
547.497
553.949
559.012
537.808
525.34
513.002
506.125
539.018
549.247
539.137
544.594
503.05
509.969
515.938
521.622
474.825
480.861
550.38
555.22
522.016
531.185
560.498
566.012
559.672
567.447
566.964
570.66
552.897
564.92
562.186
568.916
543.618
560.604
552.329
565.066
558.649
567.244
562.469
568.606
473.823
459.646
480.956
462.635
440.77
428.06
448.294
431.801
507.687
490.232
501.549
487.208
485.88
464.675
488.755
465.767
453.596
434.29
456.633
435.627
512.329
492.292
515.007
493.328
532.56
558.637
517.483
548.284
527.009
554.96
513.79
545.076
536.469
560.47
519.666
550.141
538.559
561.235
520.627
551.291
555.567
546.188
564.637
557.608
548.123
538.705
561.517
553.59
537.242
527.164
556.087
546.977
459.465
421.19
493.24
519.518
548.159
419.922
457.548
489.278
514.238
540.106
419.201
454.467
483.606
508.818
538.597
527.411
510.089
531.173
514.684
522.234
504.893
529.153
512.255
513.618
496.653
525.537
508.419
413.124
400.493
450.567
438.284
480.244
465.548
502.553
486.486
521.967
504.677
411.922
397.918
446.172
433.033
474.195
459.98
497.859
482.05
519.163
501.201
444.823
434.232
443.725
433.09
410.835
390.865
409.509
387.469
472.972
464.709
473.566
464.501
443.073
431.919
443.662
432.631
409.373
386.045
410.424
387.54
472.325
463.766
472.92
464.439
499.398
491.565
521.879
514.797
499.054
490.155
521.164
512.081
498.892
490.814
521.895
515.235
499.022
491.047
521.787
514.672
490.04
473.427
464.346
493.049
475.744
466.522
485.414
468.473
459.401
490.341
472.344
462.86
476.431
459.019
449.596
485.881
466.86
456.907
384.172
372.394
366.39
421.437
405.931
397.556
447.767
430.279
420.455
466.587
448.748
439.174
480.745
460.475
449.771
380.347
367.92
361.15
417.622
403.543
396.19
442.925
426.84
418.278
461.581
443.06
433.142
474.996
454.609
444.106
416.331
403.141
420.163
407.433
445.214
429.427
453.538
435.58
388.504
368.386
389.743
370.378
389.331
368.84
391.116
371.437
389.238
386.009
388.656
382.197
367.788
372.031
410.199
413.101
439.879
443.703
390.843
393.247
391.223
393.009
374.442
376.113
346.822
327.983
352.414
331.356
348.312
327.704
353.862
331.565
349.375
327.172
356.194
332.237
359.311
334.511
361.481
336.373
381.871
370.215
389.091
375.142
408.562
395.603
416.614
400.543
368.44
355.027
360.997
350.365
393.18
378.086
395.658
379.716
421.412
403.504
424.213
405.029
372.259
357.864
374.417
359.503
351.115
329.445
339.286
323.524
344.492
325.195
335.409
320.706
354.93
332.319
341.82
325.449
357.182
334.331
343.44
326.728
329.331
318.233
321.171
313.827
330.444
319.826
320.865
313.943
331.877
323.35
320.356
314.734
362.018
386.194
344.863
333.637
319.402
384.251
358.568
338.88
327.005
315.114
384.5
360.508
342.828
330.111
317.379
309.143
300.395
306.042
297.502
311.611
302.817
307.063
298.723
315.911
307.622
308.79
300.792
377.533
365.167
351.739
340.603
333.647
325.055
321.689
313.485
311.036
303.495
377.294
364.535
354.085
343.176
337.004
327.729
324.487
315.619
313.807
306.213
357.145
343.661
358.21
342.962
378.614
362.219
379.454
359.906
341.261
329.047
340.08
328.954
359.136
342.457
360.544
343.862
380.676
358.116
382.156
359.553
342.175
329.183
343.411
330.342
326.99
316.974
316.279
306.764
326.701
316.324
315.577
306.566
327.224
317.663
316.667
306.777
328.787
318.417
317.359
307.988
289.517
283.539
281.215
282.535
278.347
276.958
292.652
286.341
283.719
283.839
279.482
277.907
297.636
291.044
288.417
285.853
281.135
279.473
351.608
342.187
337.736
329.875
322.433
319.218
314.995
308.349
305.772
302.989
296.274
293.555
287.777
282.95
281.055
350
339.841
334.953
331.128
322.382
318.129
316.653
309.005
305.478
303.619
297.27
294.814
288.981
284.357
282.06
313.195
303.989
298.092
293.189
314.68
304.584
298.375
293.234
313.078
304.021
298.202
293.353
314.923
304.797
298.621
293.469
312.799
304.029
298.379
293.619
315.24
305.1
298.951
293.775
316.47
305.835
299.284
293.907
317.701
306.65
299.674
294.07
314.209
304.864
298.948
293.999
311.936
304.115
298.57
294.186
312.184
303.931
298.487
293.917
310.578
303.433
298.219
294.142
315.747
305.68
299.301
294.067
313.079
304.765
298.899
294.308
316.968
306.422
299.704
294.28
314.045
305.384
299.291
294.576
310.731
303.067
297.704
293.211
307.819
302.023
297.227
293.318
310.569
303.057
297.761
293.341
307.846
302.072
297.277
293.427
310.29
303.031
297.848
293.569
308.134
302.251
297.415
293.629
309.824
302.966
297.92
293.863
308.281
302.383
297.561
293.88
309.251
302.851
297.897
294.098
305.149
301.162
296.685
293.774
303.611
300.748
296.449
293.961
305.56
301.332
296.793
293.862
304.087
300.935
296.555
294.042
306.233
301.626
296.974
294.012
304.879
301.262
296.736
294.185
307.047
301.986
297.241
294.235
305.856
301.68
296.993
294.379
308.08
302.46
297.564
294.473
306.798
302.124
297.261
294.584
309.536
303.385
298.05
294.845
308.097
303.048
297.824
295.028
308.86
302.904
297.797
294.663
307.54
302.592
297.54
294.805
310.166
303.89
298.309
295.013
308.667
303.543
298.108
295.25
310.931
304.459
298.667
295.269
309.435
304.106
298.467
295.528
288.185
284.704
282.15
280.487
279.67
288.197
284.712
282.156
280.491
279.673
288.253
284.737
282.169
280.499
279.678
288.28
284.756
282.181
280.506
279.684
288.328
284.775
282.19
280.511
279.687
288.4
284.825
282.22
280.53
279.702
288.57
284.924
282.279
280.568
279.729
288.736
285.026
282.34
280.607
279.758
288.491
284.866
282.242
280.544
279.711
288.526
284.872
282.243
280.544
279.711
288.408
284.816
282.212
280.525
279.697
288.474
284.842
282.225
280.533
279.703
288.59
284.926
282.279
280.567
279.729
288.622
284.931
282.279
280.567
279.729
288.765
285.037
282.346
280.61
279.761
288.793
285.039
282.344
280.609
279.76
288.174
284.695
282.144
280.484
279.667
288.175
284.69
282.141
280.481
279.665
288.228
284.72
282.158
280.492
279.673
288.222
284.712
282.152
280.488
279.67
288.299
284.753
282.175
280.502
279.68
288.29
284.742
282.168
280.497
279.677
288.378
284.79
282.195
280.514
279.689
288.357
284.776
282.186
280.508
279.685
288.432
284.818
282.211
280.524
279.696
539.358
534.963
538.648
534.206
537.3
532.837
535.667
531.007
534.266
529.279
534.757
531.817
534.399
530.762
534.91
532.116
535.132
532.317
565.901
571.438
572.647
572.922
572.98
560.023
569.858
572.289
572.845
572.962
565.998
571.487
572.661
572.925
572.981
559.966
569.889
572.302
572.849
572.963
565.984
571.521
572.673
572.928
572.982
559.763
569.896
572.312
572.853
572.964
565.994
571.559
572.684
572.931
572.983
559.482
569.877
572.312
572.853
572.965
566.002
571.569
572.685
572.93
572.982
559.226
569.821
572.296
572.848
572.963
564.833
571.152
572.568
572.901
572.974
558.586
569.417
572.161
572.811
572.952
565.299
571.338
572.623
572.915
572.978
558.819
569.604
572.229
572.831
572.958
564.521
571.028
572.53
572.89
572.971
558.446
569.307
572.119
572.798
572.948
564.632
571.045
572.53
572.889
572.97
558.52
569.306
572.111
572.794
572.946
423.653
461.572
458.623
421.304
403.02
404.854
410.109
413.257
422.901
426.113
449.072
456.032
453.389
460.034
431.272
433.798
422.169
424.572
413.713
415.68
363.987
346.283
301.949
296.366
300.554
296.97
301.554
363.864
358.089
340.129
347.443
341.78
320.131
330.274
325.223
314.823
318.041
313.302
358.157
332.727
317.369
315.03
321.408
317.189
309.644
309.82
307.987
305.077
312.009
310.28
358.305
337.502
344.143
327.295
321.092
332.884
310.569
304.359
313.65
348.334
333.617
320.505
306.232
286.423
335.901
324.708
312.723
299.175
282.484
299.054
294.988
289.657
283.389
276.531
294.072
290.82
286.518
281.434
275.866
297.817
293.955
288.87
282.89
276.359
294.613
291.272
286.854
281.641
275.936
298.706
294.697
289.431
283.242
276.479
348.104
332.015
318.061
303.568
285.396
341.922
326.385
312.774
298.795
282.343
330.483
319.566
307.812
295.071
280.746
333.538
319.699
307.212
294.518
280.739
329.334
316.31
304.504
292.572
279.841
314.591
307.44
298.748
288.976
278.434
322.564
313.378
302.977
291.639
279.394
318.469
310.156
300.523
289.991
278.774
310.204
304.02
296.269
287.43
277.895
312.817
305.997
297.646
288.253
278.173
308.921
302.999
295.518
286.959
277.732
344.459
329.819
316.723
302.696
284.891
325.124
315.873
305.272
293.42
280.093
312.419
305.853
297.681
288.354
278.224
310.472
304.34
296.607
287.706
278.005
315.86
308.646
299.827
289.781
278.741
312.37
305.92
297.831
288.507
278.282
305.842
300.611
293.879
286.029
277.431
305.992
300.721
293.936
286.043
277.433
304.374
299.366
292.888
285.362
277.194
301.823
297.277
291.348
284.421
276.877
307.852
302.188
294.97
286.651
277.634
306.38
301.021
294.136
286.152
277.467
344.323
330.209
317.521
303.67
285.264
329.063
319.288
308.31
295.832
281.112
334.821
322.862
310.929
297.557
281.144
320.969
312.865
303.177
292.062
279.529
315.735
308.658
299.926
289.873
278.75
325.475
316.178
305.59
293.638
280.007
306.648
301.266
294.355
286.316
277.528
301.186
296.753
290.966
284.192
276.802
309.307
303.419
295.943
287.3
277.865
504.709
544.153
496.951
534.308
473.397
514.604
480.579
525.592
487.843
477.075
514.739
491.105
463.848
451.713
489.156
463.899
522.068
536.244
552.429
558.217
516.235
530.595
546.045
553.22
531.902
510.164
508.655
496.174
525.912
544.095
537.517
544.251
501.285
509.541
514.56
521.283
473.533
480.531
548.616
554.88
520.256
530.77
559.13
565.801
548.743
563.697
563.207
569.385
542.444
561.469
558.413
567.666
535.188
557.841
548.585
563.806
557.286
566.742
562.197
568.497
470.907
460.282
479.204
463.022
440.634
431.461
448.014
433.663
505.255
489.764
497.235
486.226
485.083
464.943
488.553
465.875
453.502
435.299
456.626
435.973
511.219
492.121
514.713
493.292
530.243
557.77
516.793
547.98
522.683
553.329
512.39
544.464
535.426
560.069
519.371
550.011
538.283
561.125
520.548
551.256
537.626
525.253
558.637
550.227
531.2
519.392
556.225
547.159
523.659
512.569
551.985
542.367
461.965
432.506
489.214
513.308
545.723
432.726
460.167
483.875
506.232
537.012
429.117
457.27
482.182
506.295
537.52
506.34
491.439
521.689
508.38
502.989
487.959
521.39
507.421
499.071
484.542
520.501
505.986
425.663
415.366
453.113
442.439
475.616
462.99
495.81
482.188
519.232
504.229
421.989
409.223
450.028
439.317
474.202
463.022
496.619
483.715
518.523
502.592
447.858
438.588
445.857
435.977
417.101
398.554
413.42
392.374
473.902
466.314
474.489
466.736
444.298
433.527
444.06
433.134
411.409
388.52
411.063
388.303
472.956
464.743
473.136
464.755
499.702
492.353
521.993
515.18
499.039
491.207
521.081
512.629
499.178
491.338
522.028
515.495
499.136
491.236
521.838
514.761
480.212
474.281
496.19
490.495
476.434
469.944
494.719
487.768
472.912
466.128
492.195
483.33
404.688
398.848
432.381
425.373
452.806
444.971
470.533
462.412
488.523
477.704
394.803
390.056
429.364
423.4
452.267
444.852
469.929
460.428
483.347
472.6
408.842
400.924
417.084
407.236
435.485
424.359
450.643
433.896
390.456
372.333
394.881
375.838
388.589
372.224
393.56
375.908
390.57
385.346
390.43
383.8
371.731
375.688
410.469
413.248
439.277
443.565
392.005
393.723
392.477
393.474
376.827
377.001
358.659
340.089
360.751
341.013
359.229
339.022
361.071
340.046
359.238
337.266
361.896
338.986
362.747
338.712
362.662
337.825
387.884
378.949
392.095
380.07
411.727
402.219
418.007
404.142
373.054
360.739
369.601
360.004
394.763
380.708
396.145
380.586
422.137
405.395
424.44
405.658
374.692
360.968
375.169
360.538
356.999
335.318
345.117
328.768
354.697
334.014
344.778
328.521
358.09
335.727
345.079
328.493
358.162
335.437
344.543
327.746
354.912
351.457
337.713
333.89
355.21
351.844
336.427
332.651
354.539
351.375
334.429
330.907
382.377
404.711
364.676
351.276
331.54
405.635
383.096
364.142
349.493
329.294
400.731
378.107
359.306
344.398
327.857
347.214
340.731
327.742
317.196
347.953
341.966
327.075
317.038
347.615
341.596
325.97
316.574
399.039
389.773
377.679
369.966
360.354
354.441
345.624
338.863
325.572
317.036
393.47
381.271
372.375
362.091
354.481
345.587
339.586
330.589
324.795
316.941
367.817
354.35
364.401
349.184
388.061
372.339
384.976
365.982
347.497
334.904
350.634
338.998
362.279
345.512
361.522
344.794
383.439
361.1
383.009
360.463
345.4
332.085
344.429
331.238
332.633
321.986
321.188
310.802
336.175
324.819
323.219
313.115
330.259
320.254
319.391
308.9
329.819
319.261
318.183
308.623
333.783
330.936
297.87
294.927
336.823
333.418
298.647
295.481
335.332
330.551
299.242
295.431
380.752
375.485
362.519
358.23
347.345
343.21
330.506
325.448
299.477
294.971
368.968
365.052
351.524
347.718
335.406
331.66
318.713
315.598
297.48
293.977
321.604
309.391
301.68
295.539
322.088
309.52
301.73
295.46
320.979
309.125
301.599
295.569
321.489
309.214
301.648
295.482
319.891
308.655
301.497
295.679
320.561
308.728
301.461
295.434
319.916
308.234
300.925
294.949
318.925
307.515
300.274
294.464
318.603
307.874
301.058
295.443
315.883
306.861
300.531
295.627
318.248
307.943
301.234
295.776
316.13
307.166
300.767
295.91
318.445
307.574
300.673
295.058
315.452
306.457
300.151
295.28
317.888
307.077
300.177
294.615
314.842
305.959
299.721
294.913
320.564
309.072
301.585
295.745
318.928
308.584
301.336
296.046
319.956
308.841
301.508
295.79
318.445
308.413
301.259
296.077
318.957
308.45
301.385
295.904
317.681
308.108
301.142
296.151
317.454
307.834
301.144
296.044
316.87
307.762
301.011
296.23
316.12
307.322
300.848
296.111
316.985
308.103
300.907
296.814
315.604
307.849
300.755
297.19
316.758
307.997
300.884
296.815
315.42
307.745
300.723
297.176
316.3
307.777
300.804
296.793
315.056
307.537
300.634
297.137
315.833
307.491
300.739
296.782
314.677
307.256
300.538
297.092
315.217
307.098
300.621
296.751
314.093
306.889
300.388
297.02
313.438
306.167
299.994
296.363
311.94
305.853
299.778
296.592
314.414
306.686
300.361
296.612
313.062
306.415
300.129
296.854
312.479
305.599
299.529
295.992
310.916
305.255
299.321
296.233
311.688
305.03
299.079
295.602
310.162
304.672
298.873
295.858
289.513
285.478
282.608
280.775
279.884
289.48
285.466
282.602
280.772
279.882
289.484
285.452
282.59
280.764
279.875
289.427
285.428
282.578
280.756
279.87
289.445
285.422
282.57
280.751
279.866
289.325
285.365
282.539
280.732
279.852
289.15
285.265
282.481
280.695
279.824
288.963
285.16
282.42
280.657
279.796
289.295
285.335
282.519
280.719
279.842
289.329
285.339
282.519
280.718
279.841
289.399
285.388
282.549
280.737
279.855
289.393
285.371
282.537
280.729
279.849
289.172
285.27
282.483
280.696
279.825
289.206
285.276
282.484
280.696
279.825
288.964
285.155
282.416
280.654
279.794
289.001
285.163
282.418
280.655
279.794
289.557
285.493
282.614
280.779
279.887
289.595
285.503
282.618
280.781
279.889
289.542
285.475
282.602
280.771
279.881
289.584
285.488
282.608
280.774
279.883
289.519
285.45
282.585
280.759
279.872
289.564
285.465
282.591
280.763
279.875
289.48
285.419
282.564
280.746
279.862
289.516
285.433
282.572
280.75
279.865
289.437
285.393
282.55
280.736
279.855
534.572
530.734
534.648
530.783
534.571
530.687
534.173
530.066
533.786
529.292
534.834
532.002
534.337
530.931
534.999
532.258
535.167
532.367
565.14
571.304
572.621
572.916
572.979
558.759
569.594
572.237
572.835
572.96
565.364
571.374
572.639
572.921
572.98
558.91
569.664
572.257
572.841
572.962
565.541
571.439
572.657
572.925
572.981
559.034
569.732
572.278
572.846
572.963
565.747
571.51
572.674
572.929
572.982
559.088
569.778
572.29
572.849
572.964
565.91
571.547
572.68
572.929
572.982
559.089
569.774
572.284
572.846
572.962
564.844
571.152
572.567
572.9
572.974
558.619
569.418
572.16
572.811
572.952
565.28
571.33
572.621
572.914
572.978
558.808
569.59
572.224
572.829
572.957
564.538
571.03
572.53
572.89
572.971
558.481
569.312
572.119
572.798
572.948
564.639
571.046
572.53
572.889
572.97
558.534
569.308
572.111
572.794
572.946
423.548
461.219
457.28
420.475
414.167
420.414
411.993
419.647
441.135
457.105
445.036
460.167
280.951
281.551
282.889
285.016
287.941
291.671
281.461
282.053
283.363
285.419
288.239
291.848
280.532
280.322
281.145
280.935
282.529
282.329
284.794
284.677
287.926
288.041
291.992
292.559
296.139
301.735
309.038
318.877
327.184
333.222
296.29
301.686
308.104
315.154
321.241
325.13
280.195
279.107
277.648
275.906
273.989
280.737
279.566
277.996
276.124
274.063
281.946
280.59
278.774
276.609
274.228
283.865
282.214
280.006
277.378
274.489
286.502
284.444
281.697
278.433
274.847
289.859
287.277
283.842
279.77
275.301
280.656
279.498
277.945
276.092
274.052
281.19
279.95
278.288
276.306
274.124
282.373
280.951
279.048
276.78
274.286
284.227
282.52
280.238
277.523
274.538
286.769
284.668
281.866
278.538
274.883
290.016
287.407
283.94
279.831
275.322
279.816
278.786
277.404
275.754
273.937
279.626
278.625
277.281
275.677
273.911
280.37
279.255
277.76
275.976
274.013
280.18
279.094
277.638
275.9
273.987
281.62
280.315
278.565
276.479
274.183
281.44
280.162
278.449
276.406
274.159
283.665
282.046
279.879
277.299
274.462
283.56
281.957
279.811
277.257
274.448
286.49
284.434
281.69
278.428
274.846
286.593
284.521
281.756
278.469
274.859
290.149
287.521
284.026
279.884
275.34
290.659
287.951
284.35
280.084
275.408
293.869
290.651
286.392
281.358
275.841
298.865
294.836
289.55
283.329
276.512
305.325
300.21
293.603
285.872
277.383
313.889
307.257
298.943
289.286
278.57
320.938
313.006
303.37
292.235
279.653
325.962
317.082
306.56
294.432
280.478
294
290.76
286.476
281.412
275.86
298.822
294.803
289.53
283.32
276.51
304.519
299.559
293.122
285.573
277.281
310.724
304.71
297.023
288.043
278.134
316.029
309.097
300.364
290.191
278.889
319.395
311.877
302.499
291.584
279.385
281.064
281.896
283.49
285.906
289.163
293.267
281.577
282.404
283.968
286.299
289.416
293.329
280.642
280.431
281.485
281.27
283.126
282.922
285.7
285.586
289.203
289.339
293.754
294.464
298.102
304.003
311.449
321.032
328.7
333.772
298.041
303.618
310.044
316.839
322.398
325.543
280.297
279.194
277.714
275.948
274.003
281.05
279.832
278.2
276.251
274.106
282.49
281.054
279.128
276.831
274.303
284.673
282.904
280.534
277.709
274.602
287.614
285.394
282.424
278.89
275.003
291.313
288.522
284.798
280.372
275.507
280.76
279.587
278.013
276.134
274.066
281.509
280.222
278.495
276.436
274.169
282.922
281.419
279.405
277.004
274.362
285.027
283.203
280.76
277.851
274.65
287.839
285.582
282.567
278.979
275.033
291.364
288.561
284.826
280.389
275.513
279.916
278.871
277.469
275.794
273.951
279.724
278.709
277.345
275.717
273.924
280.678
279.517
277.96
276.102
274.055
280.484
279.353
277.835
276.024
274.029
282.162
280.776
278.917
276.7
274.259
281.977
280.619
278.798
276.625
274.233
284.488
282.747
280.415
277.636
274.577
284.385
282.661
280.35
277.595
274.563
287.651
285.426
282.449
278.906
275.009
287.774
285.531
282.53
278.956
275.026
291.755
288.897
285.083
280.55
275.568
292.396
289.441
285.496
280.807
275.655
295.661
292.19
287.578
282.107
276.098
300.944
296.63
290.94
284.211
276.815
307.551
302.146
295.116
286.84
277.716
315.904
309.033
300.352
290.2
278.888
322.373
314.286
304.401
292.915
279.893
326.488
317.555
306.946
294.691
280.571
295.6
292.133
287.533
282.08
276.088
300.591
296.328
290.709
284.067
276.766
306.305
301.106
294.326
286.34
277.545
312.284
306.072
298.091
288.728
278.371
317.106
310.043
301.112
290.675
279.057
319.781
312.218
302.77
291.761
279.447
364.84
347.042
304.725
298.616
303.967
299.69
304.787
372.594
370.79
349.034
361.667
327.263
338.971
321.33
325.912
319.452
364.021
338.991
323.329
320.175
326.969
321.578
312.894
313.981
313.405
309.686
317.555
315.113
360.943
339.649
348.53
330.392
324.883
337.818
314.371
308.206
318.228
349.242
334.484
321.276
306.828
286.668
336.655
325.407
313.312
299.592
282.638
301.602
297.191
291.366
284.475
276.904
296.128
292.587
287.88
282.296
276.161
300.948
296.659
290.966
284.221
276.816
297.1
293.411
288.506
282.686
276.294
301.674
297.262
291.422
284.507
276.914
357.835
341.544
326.488
309.818
287.993
356.381
340.263
324.891
307.657
285.916
339.592
328.166
315.089
300.119
282.617
349.689
334.803
320.1
303.681
284.331
321.497
313.716
303.853
292.355
279.629
331.39
321.643
309.881
296.335
281.099
316.377
309.54
300.694
290.321
278.906
320.368
312.817
303.165
291.892
279.455
314.743
308.199
299.681
289.675
278.68
350.703
335.861
322.031
306.605
286.507
331.278
321.545
309.971
296.602
281.241
318.086
310.931
301.762
291.027
279.16
315.315
308.64
300.034
289.935
278.781
321.167
313.423
303.688
292.326
279.638
316.501
309.587
300.756
290.411
278.946
308.856
303.245
295.947
287.357
277.889
309.859
304.109
296.601
287.757
278.025
309.393
303.749
296.327
287.569
277.957
306.069
300.962
294.221
286.254
277.508
313.056
306.792
298.625
289.018
278.456
310.884
304.979
297.258
288.164
278.164
347.105
332.828
319.809
305.375
285.978
331.154
321.198
309.889
296.911
281.506
339.23
326.952
314.379
299.947
281.964
323.92
315.516
305.321
293.48
280.024
319.316
311.848
302.48
291.544
279.333
330.287
320.578
309.217
296.08
280.869
310.183
304.365
296.795
287.885
278.07
304.732
299.83
293.364
285.722
277.328
313.595
307.207
298.948
289.247
278.541
280.054
293.573
305.773
316.269
324.611
330.841
486.025
480.829
457.475
462.689
472.959
466.417
449.859
441.078
505.683
522.878
501.688
518.298
496.306
487.287
513.387
476.053
472.265
449.759
453.774
465.728
460.904
443.38
436.528
495.206
508.844
492.642
505.673
488.257
480.794
501.895
462.135
459.788
438.812
441.587
455.091
452.332
433.958
428.86
479.445
493.126
477.856
491.184
475.111
469.976
488.675
448.134
446.555
427.245
429.394
443.067
441.342
423.207
418.76
464.591
478.262
463.534
476.729
461.335
457.044
474.651
438.035
436.665
418.78
420.763
433.283
431.349
414.831
409.828
453.332
465.802
452.575
465.212
450.701
446.638
463.595
431.037
429.711
413.053
414.981
426.36
424.342
409.188
404.273
444.837
457.552
444.113
457.39
442.569
438.764
455.786
407.728
404.812
430.819
434.557
400.932
393.738
425.186
416.215
384.79
365.57
382.373
364.952
377.228
375.829
363.925
403.611
400.743
425.222
428.469
396.978
390.119
420.085
412.005
379.793
363.249
377.265
362.921
372.656
371.681
361.835
397.536
394.867
416.885
419.53
391.331
385.263
412.511
405.768
377.605
361.555
375.306
360.654
370.993
369.958
359.011
390.709
388.014
407.586
409.943
383.939
377.438
403.436
396.541
373.493
358.652
370.954
356.898
366.319
364.468
354.198
385.721
382.998
400.786
403.069
378.994
372.439
396.662
389.722
370.257
357.068
367.376
354.044
362.302
359.593
350.033
382.673
379.916
396.31
398.569
375.954
369.353
392.23
385.47
369.166
355.534
366.029
351.62
360.068
356.756
346.984
541.53
557.512
528.288
547.668
511.424
533.83
485.281
509.66
488.712
513.336
512.926
537.167
524.049
546.174
535.307
554.169
502.745
486.986
519.643
495.229
477.04
459.916
492.902
467.015
548.946
555.346
561.478
564.655
538.937
547.481
553.919
558.984
537.797
525.333
512.996
506.12
539.007
549.233
539.135
544.593
503.049
509.968
515.938
521.622
474.825
480.861
550.377
555.219
522.013
531.183
560.495
566.011
559.928
567.562
567.123
570.725
552.877
564.915
562.163
568.909
543.607
560.6
552.319
565.063
558.646
567.243
562.467
568.606
473.822
459.645
480.954
462.634
440.77
428.06
448.294
431.8
507.683
490.23
501.545
487.206
485.879
464.674
488.754
465.765
453.596
434.289
456.633
435.627
512.327
492.291
515.005
493.326
532.555
558.635
517.481
548.283
527.003
554.958
513.788
545.075
536.466
560.469
519.665
550.141
538.557
561.234
520.626
551.29
555.815
546.421
564.773
557.758
548.095
538.673
561.51
553.58
537.228
527.151
556.083
546.973
459.463
421.189
493.237
519.512
548.157
419.922
457.546
489.275
514.231
540.104
419.2
454.466
483.603
508.815
538.595
527.612
510.256
531.311
514.792
522.219
504.875
529.163
512.261
513.61
496.646
525.539
508.421
413.123
400.492
450.565
438.283
480.241
465.546
502.548
486.482
521.966
504.678
411.922
397.917
446.171
433.032
474.193
459.978
497.857
482.049
519.162
501.201
444.822
434.232
443.724
433.089
410.834
390.865
409.509
387.469
472.97
464.708
473.564
464.499
443.072
431.918
443.661
432.63
409.372
386.045
410.424
387.54
472.324
463.765
472.919
464.439
499.397
491.564
521.879
514.796
499.053
490.153
521.163
512.081
498.891
490.814
521.895
515.234
499.021
491.047
521.786
514.671
490.211
473.612
464.549
493.164
475.884
466.679
485.403
468.466
459.399
490.346
472.349
462.868
476.427
459.017
449.596
485.883
466.863
456.911
384.172
372.394
366.39
421.436
405.931
397.556
447.766
430.279
420.455
466.585
448.747
439.175
480.746
460.476
449.773
380.347
367.92
361.151
417.621
403.543
396.19
442.924
426.84
418.278
461.58
443.06
433.142
474.996
454.61
444.107
416.339
403.145
420.171
407.436
445.221
429.43
453.543
435.582
388.381
368.334
389.59
370.303
389.318
368.828
391.102
371.428
389.236
386.007
388.656
382.198
367.784
372.028
410.201
413.103
439.88
443.704
390.844
393.249
391.224
393.011
374.442
376.114
346.773
327.977
352.351
331.339
348.311
327.696
353.861
331.56
349.373
327.169
356.193
332.235
359.311
334.51
361.482
336.374
381.872
370.216
389.093
375.143
408.564
395.603
416.615
400.544
368.441
355.028
360.997
350.366
393.181
378.087
395.659
379.716
421.413
403.504
424.214
405.029
372.26
357.864
374.418
359.504
351.115
329.445
339.287
323.525
344.492
325.194
335.409
320.706
354.931
332.319
341.82
325.45
357.183
334.332
343.441
326.729
329.291
318.17
321.164
313.803
330.445
319.83
320.857
313.938
331.878
323.352
320.353
314.734
362.019
386.195
344.865
333.638
319.402
384.251
358.569
338.881
327.007
315.114
384.5
360.509
342.829
330.112
317.379
309.062
300.302
306.017
297.47
311.621
302.829
307.07
298.734
315.916
307.629
308.793
300.797
377.533
365.167
351.74
340.605
333.649
325.057
321.692
313.489
311.037
303.498
377.294
364.535
354.086
343.177
337.005
327.73
324.488
315.62
313.808
306.215
357.146
343.661
358.21
342.963
378.614
362.219
379.454
359.906
341.262
329.047
340.08
328.955
359.136
342.457
360.545
343.862
380.676
358.116
382.156
359.553
342.176
329.184
343.411
330.342
326.991
316.975
316.28
306.764
326.702
316.325
315.577
306.566
327.225
317.663
316.668
306.777
328.788
318.418
317.36
307.989
289.428
283.456
281.133
282.529
278.333
276.941
292.672
286.359
283.734
283.854
279.494
277.916
297.646
291.053
288.424
285.86
281.141
279.478
351.609
342.188
337.737
329.877
322.435
319.22
314.998
308.352
305.774
302.994
296.279
293.56
287.781
282.953
281.058
350.001
339.842
334.954
331.129
322.383
318.13
316.655
309.007
305.479
303.621
297.272
294.816
288.982
284.359
282.062
313.196
303.986
298.085
293.181
314.672
304.575
298.363
293.223
313.076
304.02
298.201
293.353
314.923
304.796
298.62
293.469
312.798
304.029
298.379
293.619
315.239
305.1
298.951
293.775
316.47
305.835
299.284
293.907
317.701
306.651
299.674
294.07
314.209
304.864
298.948
293.999
311.937
304.116
298.57
294.186
312.184
303.931
298.487
293.917
310.578
303.433
298.219
294.142
315.747
305.68
299.301
294.067
313.079
304.765
298.899
294.308
316.969
306.423
299.704
294.28
314.045
305.384
299.291
294.576
310.734
303.066
297.7
293.205
307.814
302.02
297.223
293.314
310.567
303.056
297.76
293.341
307.846
302.072
297.276
293.426
310.289
303.031
297.848
293.569
308.134
302.251
297.415
293.629
309.824
302.966
297.92
293.863
308.282
302.383
297.561
293.88
309.252
302.852
297.897
294.098
305.144
301.159
296.683
293.77
303.6
300.743
296.445
293.958
305.564
301.333
296.793
293.861
304.092
300.937
296.555
294.041
306.235
301.627
296.974
294.012
304.881
301.263
296.736
294.185
307.048
301.986
297.241
294.235
305.857
301.681
296.993
294.379
308.081
302.46
297.564
294.473
306.799
302.125
297.261
294.584
309.537
303.385
298.05
294.845
308.097
303.048
297.824
295.028
308.861
302.904
297.797
294.663
307.54
302.593
297.54
294.805
310.166
303.89
298.309
295.013
308.668
303.544
298.108
295.25
310.932
304.459
298.667
295.269
309.436
304.106
298.467
295.528
288.181
284.702
282.149
280.487
279.67
288.193
284.71
282.155
280.49
279.672
288.253
284.737
282.169
280.499
279.678
288.28
284.756
282.181
280.506
279.684
288.328
284.776
282.19
280.511
279.688
288.401
284.825
282.22
280.531
279.702
288.571
284.924
282.279
280.568
279.73
288.736
285.026
282.34
280.607
279.759
288.491
284.866
282.242
280.544
279.712
288.526
284.872
282.243
280.544
279.712
288.408
284.816
282.212
280.525
279.698
288.474
284.842
282.225
280.533
279.703
288.59
284.927
282.279
280.567
279.729
288.622
284.931
282.279
280.567
279.729
288.766
285.037
282.346
280.61
279.761
288.794
285.039
282.344
280.609
279.76
288.171
284.693
282.144
280.483
279.667
288.172
284.688
282.14
280.481
279.665
288.228
284.72
282.158
280.492
279.673
288.222
284.711
282.152
280.488
279.67
288.299
284.753
282.175
280.502
279.68
288.29
284.742
282.168
280.497
279.677
288.378
284.79
282.196
280.514
279.689
288.357
284.776
282.187
280.508
279.685
288.432
284.818
282.211
280.524
279.696
539.415
535.026
538.663
534.221
537.308
532.844
535.67
531.01
534.267
529.28
534.757
531.817
534.4
530.762
534.91
532.116
535.131
532.316
565.936
571.447
572.649
572.922
572.98
560.049
569.865
572.291
572.846
572.962
566.01
571.491
572.662
572.925
572.981
559.98
569.894
572.303
572.85
572.964
565.988
571.523
572.674
572.928
572.982
559.77
569.899
572.312
572.853
572.965
565.996
571.56
572.685