/*--------------------------------*- C++ -*----------------------------------*\
| =========                 |                                                 |
| \\      /  F ield         | OpenFOAM: The Open Source CFD Toolbox           |
|  \\    /   O peration     | Version:  2412                                  |
|   \\  /    A nd           | Website:  www.openfoam.com                      |
|    \\/     M anipulation  |                                                 |
\*---------------------------------------------------------------------------*/
FoamFile
{
    version     2.0;
    format      ascii;
    arch        "LSB;label=32;scalar=64";
    class       surfaceScalarField;
    location    "40/topAir";
    object      phi;
}
// * * * * * * * * * * * * * * * * * * * * * * * * * * * * * * * * * * * * * //

dimensions      [1 0 -1 0 0 0 0];

oriented        oriented;

internalField   nonuniform List<scalar> 
3140
(
9.0694914e-06
1.1689133e-07
8.2586566e-08
8.8417229e-06
1.2354674e-07
1.0422174e-07
8.6167671e-06
1.1488753e-07
1.1006827e-07
8.3926964e-06
1.1097084e-07
1.1309987e-07
8.1710471e-06
1.0745835e-07
1.1419098e-07
7.9556409e-06
1.0234119e-07
1.1306506e-07
7.7489668e-06
9.6379101e-08
1.1029505e-07
7.5523285e-06
9.0076257e-08
1.0656211e-07
7.366736e-06
8.3287715e-08
1.0230491e-07
7.1934863e-06
7.5453639e-08
9.7796239e-08
7.0348297e-06
6.5371168e-08
9.3285601e-08
6.8954165e-06
5.0298023e-08
8.911556e-08
6.7824932e-06
2.7135701e-08
8.5790278e-08
6.6782429e-06
1.9180092e-08
8.5131522e-08
6.5798067e-06
9.7669383e-09
8.878264e-08
6.483601e-06
1.7055503e-11
9.6346294e-08
6.390419e-06
-1.3228829e-08
1.0660392e-07
6.2991373e-06
-2.6876214e-08
1.1837785e-07
6.2102598e-06
-4.1538398e-08
1.3065402e-07
6.1247889e-06
-5.6829044e-08
1.425485e-07
6.043752e-06
-7.2081565e-08
1.5337006e-07
5.9678468e-06
-8.6401769e-08
1.6255563e-07
5.8971373e-06
-9.8609365e-08
1.6955961e-07
5.8307458e-06
-1.0712369e-07
1.7374466e-07
5.7665554e-06
-1.0986856e-07
1.7427491e-07
5.7007089e-06
-1.0394892e-07
1.6999682e-07
5.6272959e-06
-8.5803181e-08
1.5940326e-07
5.5381231e-06
-5.1119595e-08
1.4046602e-07
5.4250387e-06
3.1052104e-09
1.1013952e-07
1.0628998e-07
6.5193611e-08
9.3012801e-06
-5.1643964e-11
8.462373e-08
9.3178766e-06
-1.117863e-10
1.0706195e-07
9.3191699e-06
-2.0889825e-10
1.1380312e-07
9.3123254e-06
-3.7458261e-10
1.1818992e-07
9.2996358e-06
-6.5815717e-10
1.208061e-07
9.2818221e-06
-1.142103e-09
1.2129701e-07
9.2599289e-06
-1.9625437e-09
1.2023487e-07
9.2350884e-06
-3.339801e-09
1.1825654e-07
9.2082695e-06
-5.6222014e-09
1.1572886e-07
9.1802331e-06
-9.3382449e-09
1.1282828e-07
9.1511976e-06
-1.5217774e-08
1.0962449e-07
9.1193912e-06
-2.3974143e-08
1.0607861e-07
9.0793383e-06
-3.4804369e-08
1.0199306e-07
9.0453567e-06
-4.3633489e-08
9.6796599e-08
9.0139104e-06
-4.9344342e-08
9.0561455e-08
8.9853803e-06
-5.5007532e-08
8.3561453e-08
8.9575406e-06
-6.1538742e-08
7.6160433e-08
8.9307394e-06
-6.8730231e-08
6.8670459e-08
8.9045689e-06
-7.6636094e-08
6.1288025e-08
8.8787033e-06
-8.5063236e-08
5.4124263e-08
8.8530383e-06
-9.3528062e-08
4.7140409e-08
8.8277576e-06
-1.0124092e-07
4.0152824e-08
8.8034633e-06
-1.0710172e-07
3.2823448e-08
8.7812094e-06
-1.0956754e-07
2.4737669e-08
8.7629933e-06
-1.0688667e-07
1.5277042e-08
8.7523283e-06
-9.678319e-08
3.5445474e-09
8.7537543e-06
-7.5507518e-08
-1.1674064e-08
8.7717685e-06
-3.8322942e-08
-3.0761248e-08
8.8071872e-06
2.1557996e-08
-5.3818763e-08
1.1561353e-07
-7.749061e-08
9.3012368e-06
-1.1695921e-07
8.462315e-08
9.3177556e-06
-1.2369127e-07
1.0706073e-07
9.3188981e-06
-1.1515219e-07
1.1380074e-07
9.3117769e-06
-1.1143818e-07
1.1818483e-07
9.2985925e-06
-1.0826874e-07
1.2079498e-07
9.2799096e-06
-1.0373221e-07
1.21273e-07
9.2565135e-06
-9.8750869e-08
1.2018435e-07
9.2291207e-06
-9.4100433e-08
1.1815345e-07
9.1980679e-06
-9.0095291e-08
1.1552585e-07
9.1632595e-06
-8.697546e-08
1.1244562e-07
9.1241113e-06
-8.5015486e-08
1.0894593e-07
9.0795388e-06
-8.4376007e-08
1.049744e-07
9.0290802e-06
-8.4746436e-08
1.0040063e-07
8.975481e-06
-8.503782e-08
9.500358e-08
8.9216528e-06
-8.4161298e-08
8.8645279e-08
8.8684442e-06
-8.3175047e-08
8.1376389e-08
8.8162149e-06
-8.2629213e-08
7.3320304e-08
8.765501e-06
-8.2583545e-08
6.4568026e-08
8.7167156e-06
-8.2997258e-08
5.5147875e-08
8.6701536e-06
-8.3609218e-08
4.5109654e-08
8.6265136e-06
-8.3902917e-08
3.4017249e-08
8.5869705e-06
-8.3670086e-08
2.1975214e-08
8.5543715e-06
-8.3055398e-08
8.5563245e-09
8.5330605e-06
-8.1746645e-08
-6.5055331e-09
8.5283189e-06
-7.8559368e-08
-2.3580507e-08
8.5462622e-06
-7.1760583e-08
-4.2959927e-08
8.5945458e-06
-5.9213757e-08
-6.457054e-08
8.6817068e-06
-3.7398549e-08
-8.80776e-08
8.8136168e-06
1.3987282e-09
-1.1174124e-07
5.2016319e-08
-1.3304135e-07
9.0693995e-06
8.2585247e-08
8.8414894e-06
1.0421887e-07
8.6162745e-06
1.1006265e-07
8.3917483e-06
1.130881e-07
8.1693138e-06
1.1416574e-07
7.9525704e-06
1.1301121e-07
7.7436376e-06
1.1018188e-07
7.5432085e-06
1.0632867e-07
7.3512808e-06
1.0183244e-07
7.1674492e-06
9.6856145e-08
6.9909935e-06
9.1440237e-08
6.8210818e-06
8.5535623e-08
6.6573229e-06
7.9012503e-08
6.5005955e-06
7.1689626e-08
6.3529947e-06
6.3439468e-08
6.2155398e-06
5.4279916e-08
6.0885755e-06
4.4335085e-08
5.9722592e-06
3.3732777e-08
5.8671956e-06
2.2066386e-08
5.7742901e-06
9.2965008e-09
5.6951026e-06
-4.7152429e-09
5.6310103e-06
-1.957745e-08
5.5842645e-06
-3.6309172e-08
5.5572135e-06
-5.4695116e-08
5.5535407e-06
-7.4885737e-08
5.578656e-06
-9.6874996e-08
5.6397926e-06
-1.2034921e-07
5.7466349e-06
-1.442394e-07
5.9140184e-06
-1.6598308e-07
-1.8322824e-07
9.1963362e-06
1.1885461e-07
3.6364966e-08
9.1096834e-06
1.255763e-07
6.5298263e-08
9.0235052e-06
1.1667154e-07
7.9574934e-08
8.9365207e-06
1.1301684e-07
8.7067535e-08
8.8491324e-06
1.0991548e-07
9.1663855e-08
8.763007e-06
1.0518829e-07
9.4002207e-08
8.6792488e-06
9.9638731e-08
9.4414535e-08
8.5985667e-06
9.3795864e-08
9.3448415e-08
8.5217561e-06
8.751044e-08
9.1605157e-08
8.4500651e-06
8.0202372e-08
8.9285066e-08
8.3857501e-06
7.0668206e-08
8.6932608e-08
8.3332172e-06
5.6357025e-08
8.5291796e-08
8.2992061e-06
3.3882907e-08
8.5920796e-08
8.2662224e-06
2.5328612e-08
9.2843122e-08
8.2319521e-06
1.4498257e-08
1.0866003e-07
8.1931015e-06
3.2511165e-09
1.3209328e-07
8.1509636e-06
-1.1590962e-08
1.6051428e-07
8.1053643e-06
-2.7259955e-08
1.9144506e-07
8.0570456e-06
-4.3402282e-08
2.2260155e-07
8.0074274e-06
-5.9831536e-08
2.5223625e-07
7.9579419e-06
-7.605348e-08
2.7915192e-07
7.90973e-06
-9.1438479e-08
3.0244836e-07
7.8633534e-06
-1.0508163e-07
3.2125509e-07
7.8184856e-06
-1.1569572e-07
3.3453698e-07
7.7735879e-06
-1.2156886e-07
3.4095953e-07
7.72543e-06
-1.2033587e-07
3.3869686e-07
7.6680537e-06
-1.082779e-07
3.2525159e-07
7.590864e-06
-7.9600243e-08
2.9743865e-07
7.4782425e-06
-2.7288167e-08
2.5022168e-07
7.61491e-08
1.7629397e-07
9.4348867e-06
-5.2891323e-11
3.7605326e-08
9.5996158e-06
-1.1446122e-10
6.8023558e-08
9.7466746e-06
-2.130514e-10
8.3628973e-08
9.8857561e-06
-3.7993362e-10
9.2505162e-08
1.0018541e-05
-6.6336094e-10
9.8599718e-08
1.0143643e-05
-1.1436899e-09
1.0252726e-07
1.0260872e-05
-1.9530789e-09
1.0459786e-07
1.0370918e-05
-3.3048727e-09
1.053109e-07
1.0474614e-05
-5.5352016e-09
1.0507866e-07
1.0572667e-05
-9.1505611e-09
1.0412795e-07
1.0665296e-05
-1.483936e-08
1.0250362e-07
1.0751044e-05
-2.3254421e-08
9.9942258e-08
1.0825125e-05
-3.369383e-08
9.5488975e-08
1.0902111e-05
-4.2442909e-08
8.7582493e-08
1.0978846e-05
-4.853426e-08
7.6861859e-08
1.1056316e-05
-5.5071504e-08
6.4419797e-08
1.113248e-05
-6.2802181e-08
5.1216141e-08
1.1207177e-05
-7.1451226e-08
3.8176535e-08
1.1280187e-05
-8.1026572e-08
2.5918353e-08
1.1351136e-05
-9.1408664e-08
1.4772076e-08
1.1419942e-05
-1.0258239e-07
4.8863543e-09
1.1486786e-05
-1.1362254e-07
-4.4797217e-09
1.1552281e-05
-1.2369937e-07
-1.4024494e-08
1.1617148e-05
-1.3168079e-07
-2.4110665e-08
1.1682495e-05
-1.354591e-07
-3.6144577e-08
1.1749281e-05
-1.3179907e-07
-5.1740402e-08
1.1818898e-05
-1.1645279e-07
-7.3075881e-08
1.1895336e-05
-8.3760793e-08
-1.0299647e-07
1.1985554e-05
-2.7871079e-08
-1.4341004e-07
6.1108943e-08
-1.8924227e-07
9.434843e-06
-1.1892408e-07
3.7603771e-08
9.5994936e-06
-1.2572413e-07
6.8019766e-08
9.7464017e-06
-1.1694154e-07
8.3621154e-08
9.8852089e-06
-1.1349161e-07
9.2489291e-08
1.0017507e-05
-1.1073441e-07
9.8567611e-08
1.014176e-05
-1.0658652e-07
1.0246283e-07
1.0257532e-05
-1.0201098e-07
1.0447016e-07
1.0365122e-05
-9.7803817e-08
1.0506224e-07
1.0464776e-05
-9.4268789e-08
1.04606e-07
1.0556428e-05
-9.1617807e-08
1.0326099e-07
1.0639627e-05
-9.0098117e-08
1.0100499e-07
1.0713567e-05
-8.9848631e-08
9.762933e-08
1.0778134e-05
-9.0564405e-08
9.2703585e-08
1.0836278e-05
-9.1194028e-08
8.5611475e-08
1.0891166e-05
-9.0759244e-08
7.5982302e-08
1.0943806e-05
-9.0316283e-08
6.3981251e-08
1.0994718e-05
-9.0338033e-08
4.9944538e-08
1.1044403e-05
-9.0798843e-08
3.4231167e-08
1.1093469e-05
-9.2147505e-08
1.7203935e-08
1.1141629e-05
-9.4220757e-08
-2.3706982e-10
1.1190836e-05
-9.6685871e-08
-2.1085621e-08
1.1241265e-05
-9.9671484e-08
-4.2402124e-08
1.1293747e-05
-1.022293e-07
-6.5393764e-08
1.1349425e-05
-1.0335905e-07
-9.0501987e-08
1.141105e-05
-1.0211488e-07
-1.1854603e-07
1.1483928e-05
-9.7090081e-08
-1.5054295e-07
1.157624e-05
-8.5809028e-08
-1.8752155e-07
1.1699553e-05
-6.4528168e-08
-2.306174e-07
1.186758e-05
-2.8411658e-08
-2.7922092e-07
2.5013817e-08
-3.2590083e-07
9.1962435e-06
3.6361592e-08
9.1094483e-06
6.5289997e-08
9.0230116e-06
7.9557818e-08
8.9355752e-06
8.703282e-08
8.847413e-06
9.1593606e-08
8.7599771e-06
9.3860543e-08
8.6740174e-06
9.4130625e-08
8.5896584e-06
9.288379e-08
8.5067309e-06
9.0491133e-08
8.4248669e-06
8.7102302e-08
8.3435326e-06
8.26764e-08
8.262214e-06
7.7005649e-08
8.1809372e-06
6.9724929e-08
8.1010579e-06
6.0374911e-08
8.0251163e-06
4.862174e-08
7.9545868e-06
3.4493147e-08
7.890216e-06
1.8367866e-08
7.8315048e-06
1.6451476e-09
7.7806945e-06
-1.9270731e-08
7.736305e-06
-4.0534733e-08
7.697979e-06
-6.3074996e-08
7.6660553e-06
-8.7325074e-08
7.6414456e-06
-1.139285e-07
7.6267089e-06
-1.4331718e-07
7.6257707e-06
-1.76062e-07
7.6446449e-06
-2.1283864e-07
7.6924072e-06
-2.5391977e-07
7.7819065e-06
-2.9826585e-07
7.9319353e-06
-3.444222e-07
-3.8869998e-07
9.1671557e-06
1.1867387e-07
1.9504664e-08
9.0705352e-06
1.2515514e-07
3.676361e-08
8.9865746e-06
1.1572029e-07
4.7815241e-08
8.907622e-06
1.116761e-07
5.4344032e-08
8.8325448e-06
1.0832331e-07
5.8417852e-08
8.7622987e-06
1.0336998e-07
6.0878309e-08
8.697101e-06
9.760265e-08
6.2009616e-08
8.6369076e-06
9.1542071e-08
6.2099898e-08
8.5820696e-06
8.495509e-08
6.148818e-08
8.5337513e-06
7.706896e-08
6.0534641e-08
8.4947018e-06
6.624307e-08
5.9739374e-08
8.4708441e-06
4.9065808e-08
6.0084129e-08
8.4708235e-06
2.2116432e-08
6.3827686e-08
8.47088e-06
1.5983082e-08
7.686784e-08
8.4676085e-06
8.7822327e-09
1.0326846e-07
8.4575027e-06
1.6372598e-09
1.4072779e-07
8.4410485e-06
-8.5667599e-09
1.8573869e-07
8.4180181e-06
-1.955704e-08
2.3426467e-07
8.3898373e-06
-3.1889862e-08
2.8292424e-07
8.3583501e-06
-4.5592387e-08
3.2957995e-07
8.3249586e-06
-6.0185416e-08
3.7299777e-07
8.2902679e-06
-7.4850048e-08
4.1225681e-07
8.2538011e-06
-8.8422042e-08
4.464056e-07
8.2136447e-06
-9.9281898e-08
4.7422751e-07
8.1658901e-06
-1.0499978e-07
4.9395418e-07
8.1040735e-06
-1.0209327e-07
5.0283411e-07
8.0187229e-06
-8.5538669e-08
4.9635519e-07
7.8980165e-06
-4.8368923e-08
4.6671621e-07
7.7286346e-06
1.9273914e-08
4.0052009e-07
1.6263951e-07
2.8373225e-07
9.4051695e-06
-5.5571078e-11
2.012606e-08
9.5603546e-06
-1.2073522e-10
3.8114318e-08
9.709994e-06
-2.2588087e-10
4.9935816e-08
9.8572471e-06
-4.0534826e-10
5.7333443e-08
1.0002482e-05
-7.1293488e-10
6.2401291e-08
1.0143655e-05
-1.2393542e-09
6.5963454e-08
1.0279718e-05
-2.1359679e-09
6.8272926e-08
1.0410658e-05
-3.6507038e-09
6.9564627e-08
1.0536798e-05
-6.1793914e-09
7.0073086e-08
1.0658389e-05
-1.0322536e-08
6.9928058e-08
1.0774971e-05
-1.6883291e-08
6.9048467e-08
1.0883634e-05
-2.650651e-08
6.6851366e-08
1.0977638e-05
-3.8006375e-08
6.160788e-08
1.1076156e-05
-4.6050558e-08
5.1098716e-08
1.1174887e-05
-4.8953848e-08
3.587044e-08
1.1275129e-05
-5.1645159e-08
1.7465469e-08
1.1375417e-05
-5.5467153e-08
-2.1623136e-09
1.1474769e-05
-6.0611051e-08
-2.0108405e-08
1.1572348e-05
-6.736195e-08
-3.6171364e-08
1.1667127e-05
-7.5906674e-08
-4.9671279e-08
1.1758146e-05
-8.5598486e-08
-6.0693448e-08
1.1844555e-05
-9.603405e-08
-6.967514e-08
1.1925521e-05
-1.0594965e-07
-7.7429659e-08
1.2000713e-05
-1.1337972e-07
-8.5168614e-08
1.206976e-05
-1.1547356e-07
-9.4677815e-08
1.2132498e-05
-1.0798266e-07
-1.0854521e-07
1.2188994e-05
-8.4636828e-08
-1.3042786e-07
1.2240283e-05
-3.7316475e-08
-1.6528787e-07
1.2287884e-05
4.8009165e-08
-2.19692e-07
1.8271275e-07
-2.9761723e-07
9.4051234e-06
-1.1874697e-07
2.0124149e-08
9.5602239e-06
-1.2531125e-07
3.810978e-08
9.7096996e-06
-1.1600683e-07
4.9926396e-08
9.8566524e-06
-1.1218328e-07
5.7314374e-08
1.0001349e-05
-1.0920498e-07
6.2363013e-08
1.0141574e-05
-1.0488908e-07
6.5887256e-08
1.0275993e-05
-1.002075e-07
6.812295e-08
1.0404129e-05
-9.599829e-08
6.9274091e-08
1.0525614e-05
-9.2582352e-08
6.9523611e-08
1.0639813e-05
-9.0189676e-08
6.8929667e-08
1.0745642e-05
-8.9075528e-08
6.7367961e-08
1.084162e-05
-8.9324317e-08
6.4468523e-08
1.0927164e-05
-9.0416874e-08
5.9570155e-08
1.1005895e-05
-9.0774827e-08
5.1605149e-08
1.1082018e-05
-8.898505e-08
3.9890489e-08
1.1156534e-05
-8.666472e-08
2.44848e-08
1.1230018e-05
-8.4647545e-08
5.6411544e-09
1.1302601e-05
-8.3326431e-08
-1.5635902e-08
1.1373954e-05
-8.2346519e-08
-3.9163205e-08
1.1444503e-05
-8.2070921e-08
-6.4620167e-08
1.1512721e-05
-8.2922781e-08
-9.1978278e-08
1.157946e-05
-8.4164857e-08
-1.2100798e-07
1.1645332e-05
-8.5152376e-08
-1.520602e-07
1.1712188e-05
-8.4773044e-08
-1.859611e-07
1.1783235e-05
-8.1428918e-08
-2.2363337e-07
1.1864071e-05
-7.2529879e-08
-2.6682685e-07
1.1963419e-05
-5.3738463e-08
-3.1776134e-07
1.2091525e-05
-1.7509976e-08
-3.7852107e-07
1.2267077e-05
4.3399661e-08
-4.5015206e-07
1.2592879e-07
-5.2722638e-07
9.167058e-06
1.9500559e-08
9.070283e-06
3.6753813e-08
8.9860391e-06
4.7794812e-08
8.9065861e-06
5.4302602e-08
8.8306403e-06
5.8334446e-08
8.7589006e-06
6.0711056e-08
8.6911482e-06
6.1675549e-08
8.6265985e-06
6.1435251e-08
8.5643372e-06
6.0170019e-08
8.5033263e-06
5.792357e-08
8.4423712e-06
5.4555973e-08
8.3803285e-06
4.9724092e-08
8.3167581e-06
4.2878428e-08
8.2530332e-06
3.332501e-08
8.1921284e-06
2.0541453e-08
8.1357789e-06
4.1779881e-09
8.0843116e-06
-1.4812359e-08
8.0387134e-06
-3.6083097e-08
7.9966362e-06
-5.9540014e-08
7.9588024e-06
-8.4771716e-08
7.9249772e-06
-1.1217247e-07
7.8956701e-06
-1.4218264e-07
7.8719234e-06
-1.7533392e-07
7.855935e-06
-2.1210149e-07
7.8523443e-06
-2.538996e-07
7.8695004e-06
-3.0252372e-07
7.9219913e-06
-3.601478e-07
8.0353581e-06
-4.291405e-07
8.2431684e-06
-5.0882942e-07
-5.8845627e-07
9.1613066e-06
1.1882174e-07
8.3455663e-09
9.0563317e-06
1.2552895e-07
1.6209593e-08
8.9659743e-06
1.1619639e-07
2.197623e-08
8.882413e-06
1.1217112e-07
2.5734212e-08
8.8039019e-06
1.0880217e-07
2.8126773e-08
8.7313991e-06
1.037774e-07
2.9603811e-08
8.6651819e-06
9.7859515e-08
3.0367356e-08
8.6051761e-06
9.1539167e-08
3.0566655e-08
8.5517987e-06
8.4487387e-08
3.0378365e-08
8.5066348e-06
7.5673504e-08
3.0025364e-08
8.4736919e-06
6.2809789e-08
2.9872917e-08
8.4617688e-06
4.1275121e-08
3.0732801e-08
8.4818321e-06
9.2482532e-09
3.4519309e-08
8.5005624e-06
9.331965e-09
4.888003e-08
8.511777e-06
1.5798965e-08
7.6391768e-08
8.5123933e-06
2.5730082e-08
1.1457157e-07
8.4996919e-06
3.8908388e-08
1.5976511e-07
8.475027e-06
5.1965936e-08
2.0723019e-07
8.4406313e-06
6.3694544e-08
2.5391496e-07
8.3982623e-06
7.3492245e-08
2.9876029e-07
8.3489571e-06
8.138179e-08
3.4123094e-07
8.2929338e-06
8.7895503e-08
3.8069376e-07
8.2293261e-06
9.4025941e-08
4.1629054e-07
8.1557916e-06
1.0125129e-07
4.468038e-07
8.0678546e-06
1.118133e-07
4.7035803e-07
7.95792e-06
1.2914837e-07
4.8388584e-07
7.8136133e-06
1.5876995e-07
4.8214181e-07
7.6144107e-06
2.1034111e-07
4.5581201e-07
7.3234194e-06
3.0318123e-07
3.8854956e-07
4.8993341e-07
2.6580939e-07
9.3993486e-06
-5.834787e-11
8.6183791e-09
9.5462671e-06
-1.2732501e-10
1.6852072e-08
9.6896005e-06
-2.397552e-10
2.3038541e-08
9.8322502e-06
-4.3356009e-10
2.7288432e-08
9.9739758e-06
-7.6927021e-10
3.0247107e-08
1.011272e-05
-1.3504511e-09
3.2346977e-08
1.0247439e-05
-2.3525057e-09
3.3765778e-08
1.0377996e-05
-4.0672261e-09
3.4614691e-08
1.050453e-05
-6.9664687e-09
3.4992664e-08
1.0626969e-05
-1.1767716e-08
3.4929793e-08
1.0743964e-05
-1.939199e-08
3.4255261e-08
1.0850116e-05
-3.0263197e-08
3.223781e-08
1.0936722e-05
-4.2683291e-08
2.6934253e-08
1.1029123e-05
-4.7515604e-08
1.5546058e-08
1.1120405e-05
-4.1333724e-08
1.7244753e-09
1.1212918e-05
-3.1066238e-08
-1.824454e-08
1.1305775e-05
-1.9180722e-08
-3.6918774e-08
1.1397098e-05
-6.7377094e-09
-5.2710903e-08
1.1484782e-05
5.0819982e-09
-6.5219809e-08
1.156726e-05
1.5747058e-08
-7.4374102e-08
1.1642979e-05
2.5379351e-08
-8.0372022e-08
1.1710262e-05
3.4643895e-08
-8.3661162e-08
1.1766928e-05
4.4929239e-08
-8.4946764e-08
1.1809991e-05
5.8333911e-08
-8.5253688e-08
1.1834577e-05
7.8753445e-08
-8.6137147e-08
1.1833419e-05
1.1178364e-07
-8.9948798e-08
1.1795903e-05
1.6640443e-07
-1.0046531e-07
1.1709016e-05
2.5610887e-07
-1.2408007e-07
1.1563501e-05
4.0187884e-07
-1.727762e-07
6.2751877e-07
-2.6805951e-07
9.3992996e-06
-1.1889853e-07
8.6171123e-09
9.5461266e-06
-1.2569367e-07
1.6849058e-08
9.6892817e-06
-1.1650064e-07
2.3032259e-08
9.8316006e-06
-1.1271384e-07
2.7275675e-08
9.9727272e-06
-1.0975424e-07
3.0221424e-08
1.0110403e-05
-1.0543512e-07
3.2295679e-08
1.0243247e-05
-1.0073703e-07
3.366438e-08
1.0370569e-05
-9.6532881e-08
3.4417507e-08
1.0491691e-05
-9.3184076e-08
3.4619366e-08
1.0605554e-05
-9.0959862e-08
3.4258248e-08
1.0710476e-05
-9.0122579e-08
3.3176553e-08
1.0804342e-05
-9.0637329e-08
3.0977165e-08
1.088589e-05
-9.1609157e-08
2.6948095e-08
1.0960527e-05
-9.0311766e-08
1.9764159e-08
1.1034282e-05
-8.4473605e-08
9.275235e-09
1.1108307e-05
-7.6662691e-08
-3.9434021e-09
1.1184753e-05
-6.7499572e-08
-2.2486147e-08
1.1263361e-05
-5.7901125e-08
-4.3078929e-08
1.1343743e-05
-4.8413916e-08
-6.6049101e-08
1.1425178e-05
-3.956461e-08
-9.0741605e-08
1.1506829e-05
-3.1368696e-08
-1.1687791e-07
1.1588113e-05
-2.3249724e-08
-1.4439488e-07
1.1668314e-05
-1.395062e-08
-1.7337655e-07
1.174638e-05
-1.6428017e-09
-2.0404279e-07
1.1819354e-05
1.9478236e-08
-2.3732209e-07
1.188769e-05
5.1166217e-08
-2.7453154e-07
1.1953797e-05
1.004538e-07
-3.1789934e-07
1.2025489e-05
1.7682105e-07
-3.7090062e-07
1.2125126e-05
2.910396e-07
-4.3891509e-07
4.4624342e-07
-5.2734291e-07
9.1612031e-06
8.3428579e-09
9.0560602e-06
1.6203095e-08
8.9653918e-06
2.1962594e-08
8.8812741e-06
2.5706448e-08
8.8017836e-06
2.8070687e-08
8.7275688e-06
2.9490747e-08
8.6583675e-06
3.0139758e-08
8.5931612e-06
3.0108696e-08
8.5306916e-06
2.9455568e-08
8.4694987e-06
2.815655e-08
8.4078831e-06
2.6049039e-08
8.3441859e-06
2.2783908e-08
8.2776503e-06
1.7804983e-08
8.2101905e-06
1.0472973e-08
8.1449843e-06
1.2740932e-09
8.0854981e-06
-1.2998526e-08
8.0320851e-06
-2.8898868e-08
7.9843839e-06
-4.6283009e-08
7.9415415e-06
-6.5111458e-08
7.9034816e-06
-8.6276331e-08
7.8703243e-06
-1.1038366e-07
7.8428827e-06
-1.3799046e-07
7.8234806e-06
-1.6988188e-07
7.8170948e-06
-2.0735748e-07
7.8341544e-06
-2.5147931e-07
7.8864591e-06
-3.0365927e-07
7.9923558e-06
-3.65586e-07
8.1787824e-06
-4.3873835e-07
8.4833049e-06
-5.2229989e-07
-6.0370722e-07
9.1584702e-06
1.1884457e-07
4.1438638e-14
9.049086e-06
1.2559376e-07
1.430414e-14
8.9548345e-06
1.1622771e-07
1.2225549e-14
8.8684499e-06
1.1211882e-07
4.6519275e-15
8.787925e-06
1.0865174e-07
7.79843e-15
8.7140177e-06
1.0351116e-07
4.8516265e-15
8.6469399e-06
9.7445191e-08
3.0152062e-15
8.5865907e-06
9.091604e-08
5.4732239e-15
8.5334647e-06
8.3504597e-08
-1.0406848e-14
8.4895515e-06
7.3938858e-08
-7.7106114e-15
8.4601216e-06
5.930341e-08
-3.7043851e-14
8.4568666e-06
3.3988634e-08
-5.3516763e-14
8.4958629e-06
-4.4732247e-09
-5.4167578e-14
8.5282513e-06
1.6572857e-08
-6.7893524e-14
8.5499848e-06
5.480709e-08
-3.1610643e-14
8.5570602e-06
1.077028e-07
-1.0524079e-14
8.5447412e-06
1.7233803e-07
1.0334315e-13
8.5187262e-06
2.3353495e-07
1.785342e-13
8.4809432e-06
2.9201297e-07
3.0520096e-13
8.4324691e-06
3.4756504e-07
3.6616578e-13
8.3738172e-06
4.0022096e-07
5.10172e-13
8.3044519e-06
4.5039766e-07
5.381866e-13
8.2222726e-06
4.988032e-07
6.3452835e-13
8.1229427e-06
5.464575e-07
7.1425345e-13
7.9986697e-06
5.9494189e-07
9.5307351e-13
7.8359763e-06
6.468751e-07
1.0370993e-12
7.6115345e-06
7.0686325e-07
1.083374e-12
7.2843149e-06
7.832946e-07
1.0627976e-12
6.7827229e-06
8.9038799e-07
8.8593292e-13
1.0623119e-06
5.1553745e-13
9.3964839e-06
-6.0269092e-11
3.9193295e-14
9.5390616e-06
-1.3182723e-10
1.1154659e-14
9.678577e-06
-2.4917228e-10
6.9118415e-15
9.8184369e-06
-4.5267351e-10
3.1503164e-15
9.9581432e-06
-8.0749243e-10
-1.3206855e-15
1.0095427e-05
-1.4261319e-09
-4.9278486e-15
1.022914e-05
-2.501074e-09
-7.753258e-15
1.0359026e-05
-4.3556071e-09
-1.0425512e-14
1.048504e-05
-7.516418e-09
-1.9445214e-14
1.0606689e-05
-1.2780313e-08
-2.2036794e-14
1.0721351e-05
-2.1104039e-08
-1.9614222e-14
1.0820073e-05
-3.2494978e-08
-1.6855663e-15
1.0887342e-05
-4.4808119e-08
5.6681591e-15
1.0960019e-05
-4.055704e-08
2.893158e-14
1.1030533e-05
-1.3977986e-08
-5.2495904e-15
1.1095441e-05
2.4559207e-08
-3.5041832e-14
1.1157177e-05
7.3700015e-08
-7.1140282e-14
1.1209074e-05
1.2895509e-07
-6.9853389e-14
1.1248936e-05
1.8697304e-07
-8.0241272e-14
1.1274379e-05
2.4780383e-07
-6.5594348e-14
1.1283308e-05
3.1099331e-07
-7.3582243e-14
1.1273634e-05
3.7649983e-07
1.085732e-14
1.1242646e-05
4.4495018e-07
2.8980381e-14
1.1186241e-05
5.1773003e-07
2.1054101e-14
1.1097721e-05
5.9746128e-07
3.2389614e-14
1.0966006e-05
6.8879117e-07
1.7944551e-14
1.0772551e-05
8.0001361e-07
6.728896e-15
1.0485972e-05
9.4596514e-07
-6.2646986e-14
1.0050464e-05
1.1532989e-06
-2.1823756e-13
1.4665321e-06
-5.4290677e-13
9.3964331e-06
-1.1892391e-07
4.0473815e-14
9.5389146e-06
-1.2576434e-07
1.6413775e-14
9.6782417e-06
-1.1654396e-07
1.2878424e-14
9.8177503e-06
-1.1268561e-07
3.6860974e-15
9.9568158e-06
-1.0965163e-07
-2.6460558e-15
1.0092949e-05
-1.0526371e-07
-4.0175328e-15
1.0224624e-05
-1.0051153e-07
-7.2312696e-15
1.0350975e-05
-9.6289071e-08
-1.1105303e-14
1.0471056e-05
-9.2978138e-08
-2.41812e-14
1.0583399e-05
-9.0865001e-08
-2.3489536e-14
1.0685654e-05
-9.0183062e-08
-2.0076955e-14
1.0774843e-05
-9.0705908e-08
-3.7508662e-15
1.0847977e-05
-9.0994277e-08
1.2250972e-14
1.0913526e-05
-8.6342429e-08
9.8980509e-15
1.0981573e-05
-7.2749133e-08
-5.00641e-15
1.1054814e-05
-5.2625486e-08
-3.6762399e-14
1.1133538e-05
-2.7508997e-08
-5.6809587e-14
1.1215617e-05
3.7989855e-09
-6.7337084e-14
1.1297004e-05
3.9539693e-08
-9.2782615e-14
1.137536e-05
7.8711301e-08
-1.3683242e-13
1.1448979e-05
1.205051e-07
-1.1827389e-13
1.1515612e-05
1.6548552e-07
-9.7674044e-14
1.1572542e-05
2.1466371e-07
-9.9707872e-14
1.1616522e-05
2.6973487e-07
-1.5741337e-13
1.1643352e-05
3.3334637e-07
-3.220477e-13
1.1647691e-05
4.099697e-07
-3.8913479e-13
1.162264e-05
5.0722674e-07
-5.0629448e-13
1.1559694e-05
6.3808598e-07
-6.0559826e-13
1.1450251e-05
8.2392052e-07
-8.0042138e-13
1.0948096e-06
-1.077188e-12
9.1583629e-06
3.9472784e-14
9.0488016e-06
1.3537303e-14
8.9542202e-06
1.1498485e-14
8.867241e-06
6.0415644e-15
8.7856601e-06
7.9857037e-16
8.7098871e-06
1.5233676e-15
8.6395154e-06
1.7912084e-15
8.573335e-06
-7.478471e-15
8.5098124e-06
-1.1969043e-14
8.447104e-06
-2.8018659e-14
8.38297e-06
-2.939223e-14
8.315048e-06
-3.507749e-14
8.2418587e-06
-3.9436283e-14
8.1659893e-06
-5.0121934e-14
8.0945144e-06
-6.9271061e-14
8.0288905e-06
-1.0509718e-13
7.9724828e-06
-1.6035159e-13
7.929999e-06
-2.0671174e-13
7.9044277e-06
-3.0352565e-13
7.8968635e-06
-4.0913047e-13
7.9069862e-06
-5.1274223e-13
7.9344834e-06
-6.2789151e-13
7.9792687e-06
-7.4862938e-13
8.0416516e-06
-8.5088965e-13
8.123527e-06
-1.0347812e-12
8.22985e-06
-1.1453818e-12
8.371509e-06
-1.2746941e-12
8.5708828e-06
-1.4220727e-12
8.8725405e-06
-1.5900077e-12
-1.7400717e-12
9.1584702e-06
1.1884456e-07
-8.3454937e-09
9.049086e-06
1.2559376e-07
-1.6209567e-08
8.9548345e-06
1.1622771e-07
-2.1976204e-08
8.8684499e-06
1.1211882e-07
-2.5734195e-08
8.787925e-06
1.0865174e-07
-2.8126768e-08
8.7140177e-06
1.0351116e-07
-2.9603804e-08
8.6469399e-06
9.7445196e-08
-3.0367356e-08
8.5865907e-06
9.091604e-08
-3.0566645e-08
8.5334647e-06
8.3504605e-08
-3.037838e-08
8.4895515e-06
7.3938853e-08
-3.0025398e-08
8.4601215e-06
5.9303423e-08
-2.9872988e-08
8.4568666e-06
3.3988622e-08
-3.0732902e-08
8.4958629e-06
-4.473273e-09
-3.4519421e-08
8.5282513e-06
1.6572856e-08
-4.888018e-08
8.5499849e-06
5.48071e-08
-7.639192e-08
8.5570603e-06
1.0770297e-07
-1.1457176e-07
8.5447413e-06
1.7233831e-07
-1.597652e-07
8.5187263e-06
2.3353535e-07
-2.0723023e-07
8.4809433e-06
2.9201343e-07
-2.5391489e-07
8.4324692e-06
3.4756567e-07
-2.9876013e-07
8.3738173e-06
4.0022168e-07
-3.4123062e-07
8.304452e-06
4.5039832e-07
-3.8069333e-07
8.222273e-06
4.9880355e-07
-4.1628998e-07
8.1229429e-06
5.4645858e-07
-4.4680329e-07
7.99867e-06
5.9494303e-07
-4.7035732e-07
7.8359764e-06
6.4687655e-07
-4.8388502e-07
7.6115342e-06
7.0686492e-07
-4.8214091e-07
7.2843139e-06
7.8329641e-07
-4.5581109e-07
6.7827208e-06
8.9038987e-07
-3.8854861e-07
1.0623139e-06
-2.6580849e-07
9.3964839e-06
-6.0264266e-11
-8.6183051e-09
9.5390616e-06
-1.3181902e-10
-1.6852045e-08
9.678577e-06
-2.4916358e-10
-2.3038528e-08
9.8184369e-06
-4.526739e-10
-2.728843e-08
9.9581433e-06
-8.0749682e-10
-3.0247112e-08
1.0095428e-05
-1.4261344e-09
-3.2346994e-08
1.022914e-05
-2.501074e-09
-3.3765801e-08
1.0359026e-05
-4.3556244e-09
-3.4614715e-08
1.048504e-05
-7.5164114e-09
-3.4992696e-08
1.0606689e-05
-1.278033e-08
-3.4929834e-08
1.0721351e-05
-2.1104023e-08
-3.4255293e-08
1.0820073e-05
-3.2494993e-08
-3.2237816e-08
1.0887342e-05
-4.4808139e-08
-2.6934222e-08
1.0960019e-05
-4.0557045e-08
-1.5545972e-08
1.1030533e-05
-1.3977978e-08
-1.7243994e-09
1.1095441e-05
2.4559285e-08
1.8244608e-08
1.1157177e-05
7.3700157e-08
3.6918832e-08
1.1209074e-05
1.2895533e-07
5.2710956e-08
1.1248935e-05
1.8697342e-07
6.5219837e-08
1.1274379e-05
2.4780437e-07
7.4374121e-08
1.1283307e-05
3.1099397e-07
8.0372015e-08
1.1273633e-05
3.7650052e-07
8.3661227e-08
1.1242645e-05
4.4495084e-07
8.4946897e-08
1.118624e-05
5.1773112e-07
8.5253866e-08
1.109772e-05
5.9746262e-07
8.6137363e-08
1.0966004e-05
6.8879287e-07
8.9948972e-08
1.0772549e-05
8.0001563e-07
1.004655e-07
1.0485969e-05
9.4596742e-07
1.2408026e-07
1.005046e-05
1.1533015e-06
1.7277638e-07
1.4665351e-06
2.6805965e-07
9.3964331e-06
-1.1892391e-07
-8.6170435e-09
9.5389146e-06
-1.2576434e-07
-1.6849033e-08
9.6782417e-06
-1.1654397e-07
-2.3032246e-08
9.8177503e-06
-1.1268562e-07
-2.7275674e-08
9.9568158e-06
-1.0965163e-07
-3.0221426e-08
1.0092949e-05
-1.0526371e-07
-3.2295689e-08
1.0224624e-05
-1.0051152e-07
-3.3664401e-08
1.0350975e-05
-9.6289081e-08
-3.4417528e-08
1.0471056e-05
-9.2978127e-08
-3.4619399e-08
1.0583399e-05
-9.0865024e-08
-3.4258289e-08
1.0685654e-05
-9.018305e-08
-3.3176589e-08
1.0774843e-05
-9.0705909e-08
-3.0977176e-08
1.0847977e-05
-9.0994251e-08
-2.6948071e-08
1.0913526e-05
-8.6342431e-08
-1.976413e-08
1.0981573e-05
-7.2749127e-08
-9.2752182e-09
1.1054814e-05
-5.2625479e-08
3.9434051e-09
1.1133538e-05
-2.750895e-08
2.2486157e-08
1.1215617e-05
3.7990855e-09
4.3078952e-08
1.1297004e-05
3.9539854e-08
6.6049115e-08
1.137536e-05
7.8711567e-08
9.0741588e-08
1.1448979e-05
1.2050552e-07
1.1687793e-07
1.1515612e-05
1.6548599e-07
1.4439497e-07
1.1572542e-05
2.1466435e-07
1.7337668e-07
1.1616522e-05
2.6973565e-07
2.0404293e-07
1.1643352e-05
3.3334735e-07
2.3732212e-07
1.164769e-05
4.0997086e-07
2.7453152e-07
1.1622638e-05
5.072282e-07
3.1789929e-07
1.1559692e-05
6.3808768e-07
3.709006e-07
1.1450247e-05
8.2392261e-07
4.3891505e-07
1.0948122e-06
5.2734289e-07
9.1583629e-06
-8.3427874e-09
9.0488016e-06
-1.6203061e-08
8.9542202e-06
-2.1962574e-08
8.8672411e-06
-2.5706435e-08
8.7856601e-06
-2.8070677e-08
8.7098871e-06
-2.9490746e-08
8.6395154e-06
-3.0139761e-08
8.573335e-06
-3.0108706e-08
8.5098124e-06
-2.9455584e-08
8.4471039e-06
-2.8156586e-08
8.3829699e-06
-2.604909e-08
8.315048e-06
-2.2783971e-08
8.2418587e-06
-1.7805051e-08
8.1659893e-06
-1.0473068e-08
8.0945143e-06
-1.2741888e-09
8.0288904e-06
1.2998345e-08
7.9724826e-06
2.8898623e-08
7.9299989e-06
4.6282697e-08
7.9044276e-06
6.5111018e-08
7.8968634e-06
8.627573e-08
7.9069863e-06
1.1038292e-07
7.9344836e-06
1.379896e-07
7.979269e-06
1.6988092e-07
8.0416519e-06
2.0735646e-07
8.1235275e-06
2.5147814e-07
8.2298505e-06
3.0365806e-07
8.3715096e-06
3.6558484e-07
8.5708833e-06
4.3873728e-07
8.8725408e-06
5.2229896e-07
6.0370649e-07
9.1613066e-06
1.1882173e-07
-1.9504599e-08
9.0563317e-06
1.2552895e-07
-3.6763589e-08
8.9659743e-06
1.1619639e-07
-4.7815231e-08
8.882413e-06
1.1217112e-07
-5.4344022e-08
8.803902e-06
1.0880217e-07
-5.8417845e-08
8.7313991e-06
1.0377739e-07
-6.0878312e-08
8.6651819e-06
9.7859521e-08
-6.2009623e-08
8.6051761e-06
9.1539164e-08
-6.209992e-08
8.5517987e-06
8.44874e-08
-6.1488206e-08
8.5066348e-06
7.5673524e-08
-6.0534699e-08
8.4736918e-06
6.280982e-08
-5.9739451e-08
8.4617687e-06
4.1275153e-08
-6.0084225e-08
8.4818321e-06
9.2481964e-09
-6.3827782e-08
8.5005623e-06
9.3318547e-09
-7.6867934e-08
8.5117771e-06
1.5798872e-08
-1.032686e-07
8.5123934e-06
2.5730024e-08
-1.4072794e-07
8.4996921e-06
3.8908325e-08
-1.857388e-07
8.4750271e-06
5.1965949e-08
-2.3426476e-07
8.4406315e-06
6.3694499e-08
-2.8292425e-07
8.3982626e-06
7.3492341e-08
-3.295799e-07
8.3489574e-06
8.1382017e-08
-3.7299766e-07
8.292934e-06
8.789571e-08
-4.1225656e-07
8.2293265e-06
9.4025861e-08
-4.4640523e-07
8.1557918e-06
1.0125156e-07
-4.7422703e-07
8.0678548e-06
1.1181344e-07
-4.9395362e-07
7.95792e-06
1.2914878e-07
-5.0283351e-07
7.813613e-06
1.5877049e-07
-4.9635457e-07
7.61441e-06
2.1034183e-07
-4.667156e-07
7.323418e-06
3.0318216e-07
-4.005195e-07
4.8993484e-07
-2.8373176e-07
9.3993486e-06
-5.8351264e-11
-2.0126001e-08
9.5462671e-06