/*--------------------------------*- C++ -*----------------------------------*\
| =========                 |                                                 |
| \\      /  F ield         | OpenFOAM: The Open Source CFD Toolbox           |
|  \\    /   O peration     | Version:  2412                                  |
|   \\  /    A nd           | Website:  www.openfoam.com                      |
|    \\/     M anipulation  |                                                 |
\*---------------------------------------------------------------------------*/
FoamFile
{
    version     2.0;
    format      ascii;
    arch        "LSB;label=32;scalar=64";
    class       volScalarField;
    location    "40/topAir";
    object      rho;
}
// * * * * * * * * * * * * * * * * * * * * * * * * * * * * * * * * * * * * * //

dimensions      [1 -3 0 0 0 0 0];

internalField   nonuniform List<scalar> 
1200
(
1.1586211
1.1586211
1.1586211
1.158621
1.1586209
1.1586207
1.1586204
1.15862
1.1586194
1.1586185
1.1586174
1.158613
1.1585298
1.1564387
1.1545927
1.1530498
1.1518596
1.1510355
1.1505637
1.1504047
1.1505026
1.1507948
1.15122
1.1517234
1.1522599
1.1527943
1.1533012
1.1537631
1.1541714
1.1545329
1.1586201
1.1586201
1.1586201
1.1586201
1.1586201
1.1586201
1.15862
1.15862
1.15862
1.1586199
1.1586198
1.1586195
1.1586156
1.1585614
1.1584689
1.1583503
1.158211
1.1580607
1.157908
1.1577604
1.1576236
1.1575015
1.1573962
1.157308
1.157236
1.1571783
1.1571316
1.157092
1.157056
1.1570037
1.158619
1.158619
1.158619
1.158619
1.158619
1.158619
1.158619
1.158619
1.158619
1.158619
1.158619
1.1586189
1.1586188
1.1586174
1.158614
1.1586081
1.1585993
1.1585876
1.1585729
1.1585556
1.158536
1.1585146
1.1584919
1.1584682
1.1584441
1.1584198
1.1583955
1.1583711
1.1583431
1.158304
1.158618
1.158618
1.158618
1.158618
1.158618
1.158618
1.1586179
1.1586179
1.1586179
1.1586179
1.1586179
1.1586179
1.1586179
1.1586178
1.1586177
1.1586173
1.1586167
1.1586157
1.1586141
1.1586121
1.1586094
1.158606
1.158602
1.1585973
1.1585919
1.158586
1.1585794
1.1585723
1.1585645
1.1585542
1.1586211
1.1586211
1.158621
1.158621
1.1586208
1.1586206
1.1586203
1.1586198
1.158619
1.158618
1.1586165
1.1586122
1.1585314
1.1561751
1.1540779
1.15231
1.150931
1.1499643
1.1493915
1.1491628
1.1492124
1.1494713
1.1498754
1.1503691
1.1509075
1.1514551
1.1519849
1.1524758
1.1529122
1.153293
1.1586201
1.1586201
1.1586201
1.1586201
1.1586201
1.1586201
1.15862
1.15862
1.15862
1.1586199
1.1586198
1.1586195
1.1586161
1.1585631
1.1584726
1.1583568
1.1582221
1.1580759
1.1579261
1.1577796
1.1576414
1.1575149
1.1574018
1.1573027
1.1572171
1.1571431
1.1570779
1.1570174
1.1569556
1.156874
1.158619
1.158619
1.158619
1.158619
1.158619
1.158619
1.158619
1.158619
1.158619
1.158619
1.158619
1.158619
1.1586189
1.1586177
1.1586149
1.15861
1.1586028
1.1585931
1.158581
1.1585667
1.1585504
1.1585323
1.1585127
1.1584919
1.1584698
1.1584466
1.158422
1.1583954
1.1583654
1.1583246
1.158618
1.158618
1.158618
1.158618
1.158618
1.158618
1.158618
1.1586179
1.1586179
1.1586179
1.1586179
1.1586179
1.1586179
1.1586179
1.1586178
1.1586175
1.1586171
1.1586164
1.1586153
1.1586139
1.1586121
1.1586097
1.1586068
1.1586032
1.1585989
1.1585938
1.1585875
1.1585796
1.1585693
1.1585554
1.1586211
1.1586211
1.158621
1.1586209
1.1586207
1.1586204
1.15862
1.1586192
1.1586181
1.1586165
1.158614
1.158607
1.1584852
1.1548822
1.151706
1.1490684
1.1470715
1.1457599
1.1450754
1.1449057
1.1451252
1.1456176
1.1462843
1.1470471
1.1478456
1.1486348
1.149381
1.1500594
1.1506606
1.1511925
1.1586201
1.1586201
1.1586201
1.1586201
1.1586201
1.1586201
1.15862
1.15862
1.1586199
1.1586198
1.1586196
1.1586192
1.1586145
1.1585379
1.1584058
1.1582346
1.1580354
1.1578196
1.1575989
1.1573825
1.1571769
1.1569866
1.156814
1.1566593
1.1565209
1.1563949
1.1562752
1.1561523
1.1560115
1.1558146
1.158619
1.158619
1.158619
1.158619
1.158619
1.158619
1.158619
1.158619
1.158619
1.158619
1.158619
1.1586189
1.1586188
1.1586172
1.1586132
1.1586062
1.1585958
1.1585819
1.1585643
1.1585431
1.1585184
1.1584902
1.1584584
1.1584228
1.1583825
1.1583365
1.1582823
1.1582161
1.1581253
1.1579944
1.158618
1.158618
1.158618
1.158618
1.158618
1.158618
1.158618
1.1586179
1.1586179
1.1586179
1.1586179
1.1586179
1.1586179
1.1586179
1.1586177
1.1586174
1.1586168
1.1586158
1.1586143
1.1586123
1.1586095
1.1586058
1.158601
1.1585946
1.158586
1.1585742
1.1585576
1.1585333
1.158495
1.1584384
1.1586211
1.1586211
1.158621
1.1586209
1.1586206
1.1586203
1.1586196
1.1586186
1.158617
1.1586144
1.1586104
1.1585984
1.1583994
1.1525794
1.1474627
1.1432342
1.1401054
1.1382502
1.1374553
1.1374456
1.1379788
1.1388639
1.1399584
1.1411588
1.142392
1.1436071
1.1447689
1.1458524
1.1468376
1.1476858
1.1586201
1.1586201
1.1586201
1.1586201
1.1586201
1.15862
1.15862
1.1586199
1.1586198
1.1586197
1.1586194
1.1586187
1.1586113
1.1584899
1.1582669
1.157953
1.1575615
1.1571173
1.1566461
1.1561712
1.1557099
1.1552744
1.1548713
1.1545027
1.1541667
1.153857
1.153563
1.1532683
1.1529477
1.1525684
1.158619
1.158619
1.158619
1.158619
1.158619
1.158619
1.158619
1.158619
1.158619
1.158619
1.158619
1.1586189
1.1586187
1.1586161
1.1586095
1.1585972
1.1585778
1.1585501
1.1585124
1.1584625
1.1583991
1.1583208
1.158226
1.1581119
1.157975
1.1578091
1.1576043
1.1573457
1.1570107
1.156583
1.158618
1.158618
1.158618
1.158618
1.158618
1.158618
1.158618
1.1586179
1.1586179
1.1586179
1.1586179
1.1586179
1.1586179
1.1586178
1.1586176
1.158617
1.1586159
1.158614
1.158611
1.1586064
1.1585995
1.1585894
1.1585746
1.1585535
1.1585222
1.1584758
1.158407
1.158305
1.1581545
1.1579479
1.1586211
1.1586211
1.158621
1.1586208
1.1586206
1.1586201
1.1586194
1.1586182
1.1586161
1.1586128
1.158607
1.1585884
1.1582747
1.149115
1.1410619
1.1343386
1.1293963
1.1272234
1.1267356
1.1272873
1.1284726
1.1300263
1.1317722
1.1335925
1.1354093
1.1371719
1.1388481
1.1404169
1.1418626
1.1431367
1.1586201
1.1586201
1.1586201
1.1586201
1.1586201
1.15862
1.15862
1.1586199
1.1586198
1.1586196
1.1586192
1.1586183
1.1586067
1.158408
1.1579954
1.1573357
1.1564224
1.1553458
1.1541866
1.1530128
1.1518783
1.1508221
1.1498703
1.1490378
1.1483305
1.1477476
1.1472828
1.1469257
1.1466641
1.146483
1.158619
1.158619
1.158619
1.158619
1.158619
1.158619
1.158619
1.158619
1.158619
1.158619
1.158619
1.1586189
1.1586186
1.1586144
1.1586025
1.158576
1.1585229
1.1584312
1.1582911
1.1580948
1.1578376
1.1575178
1.1571366
1.1566972
1.1562033
1.1556577
1.1550604
1.1544057
1.1536803
1.1528818
1.158618
1.158618
1.158618
1.158618
1.158618
1.158618
1.158618
1.1586179
1.1586179
1.1586179
1.1586179
1.1586179
1.1586179
1.1586178
1.1586173
1.1586162
1.1586137
1.1586087
1.1585987
1.1585807
1.1585507
1.1585041
1.1584355
1.1583387
1.1582068
1.158031
1.1578
1.1574975
1.1570998
1.156595
1.1586211
1.1586211
1.158621
1.1586208
1.1586206
1.1586201
1.1586194
1.1586182
1.1586161
1.1586128
1.158607
1.1585884
1.1582747
1.149115
1.1410619
1.1343386
1.1293963
1.1272234
1.1267356
1.1272873
1.1284726
1.1300263
1.1317723
1.1335925
1.1354092
1.1371718
1.138848
1.1404169
1.1418625
1.1431367
1.1586201
1.1586201
1.1586201
1.1586201
1.1586201
1.15862
1.15862
1.1586199
1.1586198
1.1586196
1.1586192
1.1586183
1.1586067
1.158408
1.1579954
1.1573357
1.1564224
1.1553458
1.1541866
1.1530128
1.1518783
1.1508221
1.1498703
1.1490378
1.1483305
1.1477476
1.1472828
1.1469257
1.1466641
1.146483
1.158619
1.158619
1.158619
1.158619
1.158619
1.158619
1.158619
1.158619
1.158619
1.158619
1.158619
1.1586189
1.1586186
1.1586144
1.1586025
1.158576
1.1585229
1.1584312
1.1582911
1.1580948
1.1578376
1.1575178
1.1571366
1.1566972
1.1562033
1.1556577
1.1550604
1.1544057
1.1536803
1.1528818
1.158618
1.158618
1.158618
1.158618
1.158618
1.158618
1.158618
1.1586179
1.1586179
1.1586179
1.1586179
1.1586179
1.1586179
1.1586178
1.1586173
1.1586162
1.1586137
1.1586087
1.1585987
1.1585807
1.1585507
1.1585041
1.1584355
1.1583387
1.1582068
1.158031
1.1578
1.1574975
1.1570998
1.156595
1.1586211
1.1586211
1.158621
1.1586209
1.1586206
1.1586203
1.1586196
1.1586186
1.158617
1.1586144
1.1586104
1.1585984
1.1583994
1.1525794
1.1474627
1.1432342
1.1401053
1.1382501
1.1374552
1.1374456
1.1379788
1.1388639
1.1399584
1.1411588
1.1423919
1.143607
1.1447689
1.1458524
1.1468376
1.1476858
1.1586201
1.1586201
1.1586201
1.1586201
1.1586201
1.15862
1.15862
1.1586199
1.1586198
1.1586197
1.1586194
1.1586187
1.1586113
1.1584899
1.1582669
1.157953
1.1575615
1.1571173
1.1566461
1.1561712
1.1557099
1.1552744
1.1548713
1.1545027
1.1541667
1.1538569
1.1535629
1.1532683
1.1529476
1.1525683
1.158619
1.158619
1.158619
1.158619
1.158619
1.158619
1.158619
1.158619
1.158619
1.158619
1.158619
1.1586189
1.1586187
1.1586161
1.1586095
1.1585972
1.1585778
1.1585501
1.1585124
1.1584625
1.1583991
1.1583208
1.158226
1.1581119
1.157975
1.1578091
1.1576043
1.1573457
1.1570107
1.156583
1.158618
1.158618
1.158618
1.158618
1.158618
1.158618
1.158618
1.1586179
1.1586179
1.1586179
1.1586179
1.1586179
1.1586179
1.1586178
1.1586176
1.158617
1.1586159
1.158614
1.158611
1.1586064
1.1585995
1.1585894
1.1585746
1.1585535
1.1585222
1.1584758
1.158407
1.158305
1.1581545
1.1579479
1.1586211
1.1586211
1.158621
1.1586209
1.1586207
1.1586204
1.15862
1.1586192
1.1586181
1.1586165
1.158614
1.158607
1.1584852
1.1548822
1.151706
1.1490683
1.1470715
1.1457598
1.1450754
1.1449057
1.1451252
1.1456175
1.1462843
1.1470471
1.1478456
1.1486347
1.149381
1.1500594
1.1506605
1.1511925
1.1586201
1.1586201
1.1586201
1.1586201
1.1586201
1.1586201
1.15862
1.15862
1.1586199
1.1586198
1.1586196
1.1586192
1.1586145
1.1585379
1.1584058
1.1582346
1.1580354
1.1578196
1.1575989
1.1573825
1.1571769
1.1569866
1.156814
1.1566593
1.1565209
1.1563949
1.1562752
1.1561523
1.1560115
1.1558146
1.158619
1.158619
1.158619
1.158619
1.158619
1.158619
1.158619
1.158619
1.158619
1.158619
1.158619
1.1586189
1.1586188
1.1586172
1.1586132
1.1586062
1.1585958
1.1585819
1.1585643
1.1585431
1.1585184
1.1584902
1.1584584
1.1584228
1.1583825
1.1583365
1.1582823
1.1582161
1.1581253
1.1579944
1.158618
1.158618
1.158618
1.158618
1.158618
1.158618
1.158618
1.1586179
1.1586179
1.1586179
1.1586179
1.1586179
1.1586179
1.1586179
1.1586177
1.1586174
1.1586168
1.1586158
1.1586143
1.1586123
1.1586095
1.1586058
1.158601
1.1585946
1.158586
1.1585742
1.1585576
1.1585333
1.158495
1.1584384
1.1586211
1.1586211
1.158621
1.158621
1.1586208
1.1586206
1.1586203
1.1586198
1.158619
1.158618
1.1586165
1.1586122
1.1585314
1.1561751
1.1540779
1.15231
1.1509309
1.1499643
1.1493915
1.1491628
1.1492124
1.1494713
1.1498753
1.1503691
1.1509074
1.1514551
1.1519848
1.1524758
1.1529121
1.1532929
1.1586201
1.1586201
1.1586201
1.1586201
1.1586201
1.1586201
1.15862
1.15862
1.15862
1.1586199
1.1586198
1.1586195
1.1586161
1.1585631
1.1584726
1.1583568
1.1582221
1.1580759
1.1579261
1.1577796
1.1576414
1.1575149
1.1574018
1.1573027
1.1572171
1.1571431
1.1570779
1.1570173
1.1569556
1.156874
1.158619
1.158619
1.158619
1.158619
1.158619
1.158619
1.158619
1.158619
1.158619
1.158619
1.158619
1.158619
1.1586189
1.1586177
1.1586149
1.15861
1.1586028
1.1585931
1.158581
1.1585667
1.1585504
1.1585323
1.1585127
1.1584919
1.1584698
1.1584466
1.158422
1.1583954
1.1583654
1.1583246
1.158618
1.158618
1.158618
1.158618
1.158618
1.158618
1.158618
1.1586179
1.1586179
1.1586179
1.1586179
1.1586179
1.1586179
1.1586179
1.1586178
1.1586175
1.1586171
1.1586164
1.1586153
1.1586139
1.1586121
1.1586097
1.1586068
1.1586032
1.1585989
1.1585938
1.1585875
1.1585796
1.1585693
1.1585554
1.1586211
1.1586211
1.1586211
1.158621
1.1586209
1.1586207
1.1586204
1.15862
1.1586194
1.1586185
1.1586174
1.158613
1.1585298
1.1564388
1.1545927
1.1530498
1.1518596
1.1510354
1.1505636
1.1504046
1.1505026
1.1507948
1.1512199
1.1517233
1.1522598
1.1527942
1.1533011
1.153763
1.1541713
1.1545329
1.1586201
1.1586201
1.1586201
1.1586201
1.1586201
1.1586201
1.15862
1.15862
1.15862
1.1586199
1.1586198
1.1586195
1.1586156
1.1585614
1.1584689
1.1583503
1.158211
1.1580607
1.157908
1.1577604
1.1576236
1.1575015
1.1573962
1.157308
1.157236
1.1571782
1.1571316
1.157092
1.157056
1.1570037
1.158619
1.158619
1.158619
1.158619
1.158619
1.158619
1.158619
1.158619
1.158619
1.158619
1.158619
1.1586189
1.1586188
1.1586174
1.158614
1.1586081
1.1585993
1.1585876
1.1585729
1.1585556
1.158536
1.1585146
1.1584919
1.1584682
1.1584441
1.1584198
1.1583955
1.1583711
1.1583431
1.158304
1.158618
1.158618
1.158618
1.158618
1.158618
1.158618
1.1586179
1.1586179
1.1586179
1.1586179
1.1586179
1.1586179
1.1586179
1.1586178
1.1586177
1.1586173
1.1586167
1.1586157
1.1586141
1.1586121
1.1586094
1.158606
1.158602
1.1585973
1.1585919
1.158586
1.1585794
1.1585723
1.1585645
1.1585542
)
;

boundaryField
{
    maxY
    {
        type            calculated;
        value           nonuniform List<scalar> 
300
(
1.1586175
1.1586175
1.1586175
1.1586175
1.1586175
1.1586175
1.1586175
1.1586175
1.1586175
1.1586175
1.1586175
1.1586175
1.1586175
1.1586175
1.1586175
1.1586175
1.1586175
1.1586175
1.1586175
1.1586175
1.1586175
1.1586175
1.1586175
1.1586175
1.1586175
1.1586175
1.1586175
1.1586175
1.1586175
1.1586175
1.1586174
1.1586174
1.1586174
1.1586174
1.1586174
1.1586174
1.1586174
1.1586174
1.1586174
1.1586174
1.1586174
1.1586174
1.1586174
1.1586174
1.1586174
1.1586174
1.1586174
1.1586174
1.1586174
1.1586174
1.1586174
1.1586174
1.1586174
1.1586174
1.1586174
1.1586174
1.1586174
1.1586174
1.1586174
1.1586174
1.1586174
1.1586174
1.1586174
1.1586174
1.1586174
1.1586174
1.1586174
1.1586174
1.1586174
1.1586174
1.1586174
1.1586174
1.1586174
1.1586174
1.1586174
1.1586174
1.1586174
1.1586174
1.1586174
1.1586174
1.1586174
1.1586174
1.1586174
1.1586174
1.1586174
1.1586174
1.1586174
1.1586174
1.1586174
1.1586174
1.1586174
1.1586174
1.1586174
1.1586174
1.1586174
1.1586174
1.1586174
1.1586174
1.1586174
1.1586174
1.1586174
1.1586174
1.1586174
1.1586174
1.1586174
1.1586174
1.1586174
1.1586174
1.1586174
1.1586174
1.1586174
1.1586174
1.1586174
1.1586174
1.1586174
1.1586174
1.1586174
1.1586174
1.1586174
1.1586174
1.1586174
1.1586174
1.1586174
1.1586174
1.1586174
1.1586174
1.1586174
1.1586174
1.1586174
1.1586174
1.1586173
1.1586173
1.1586173
1.1586173
1.1586172
1.1586172
1.1586173
1.1586173
1.1586173
1.1586173
1.1586172
1.1586172
1.1586172
1.158617
1.1586168
1.1586168
1.158617
1.1586172
1.1586172
1.1586172
1.1586168
1.158617
1.1586168
1.1586165
1.1586157
1.1586157
1.1586165
1.1586168
1.158617
1.1586168
1.1586162
1.1586165
1.1586162
1.1586154
1.1586132
1.1586132
1.1586154
1.1586162
1.1586165
1.1586162
1.1586151
1.1586158
1.1586153
1.1586135
1.1586082
1.1586082
1.1586135
1.1586153
1.1586158
1.1586151
1.1586136
1.1586148
1.1586138
1.1586105
1.1585982
1.1585982
1.1586105
1.1586138
1.1586148
1.1586136
1.1586116
1.1586134
1.1586118
1.1586059
1.1585802
1.1585802
1.1586059
1.1586118
1.1586134
1.1586116
1.1586089
1.1586115
1.158609
1.158599
1.1585502
1.1585502
1.158599
1.158609
1.1586115
1.1586089
1.1586055
1.1586092
1.1586053
1.1585888
1.1585036
1.1585036
1.1585888
1.1586053
1.1586092
1.1586055
1.1586015
1.1586063
1.1586005
1.1585741
1.158435
1.158435
1.1585741
1.1586005
1.1586063
1.1586015
1.1585968
1.1586027
1.158594
1.158553
1.1583382
1.1583382
1.158553
1.158594
1.1586027
1.1585968
1.1585914
1.1585984
1.1585855
1.1585217
1.1582063
1.1582063
1.1585217
1.1585855
1.1585984
1.1585914
1.1585854
1.1585932
1.1585737
1.1584753
1.1580305
1.1580305
1.1584753
1.1585737
1.1585932
1.1585854
1.1585789
1.158587
1.1585571
1.1584065
1.1577995
1.1577995
1.1584065
1.1585571
1.158587
1.1585789
1.1585718
1.1585791
1.1585327
1.1583044
1.157497
1.157497
1.1583044
1.1585327
1.1585791
1.1585718
1.1585639
1.1585688
1.1584945
1.1581539
1.1570993
1.1570993
1.1581539
1.1584945
1.1585688
1.1585639
1.1585537
1.1585548
1.1584378
1.1579473
1.1565945
1.1565945
1.1579473
1.1584378
1.1585548
1.1585537
)
;
    }
    minX
    {
        type            calculated;
        value           nonuniform List<scalar> 
40
(
1.1586212
1.1586201
1.1586191
1.158618
1.1586212
1.1586201
1.158619
1.158618
1.1586212
1.1586201
1.158619
1.158618
1.1586212
1.1586201
1.158619
1.158618
1.1586212
1.1586201
1.158619
1.158618
1.1586212
1.1586201
1.158619
1.158618
1.1586212
1.1586201
1.158619
1.158618
1.1586212
1.1586201
1.158619
1.158618
1.1586212
1.1586201
1.158619
1.158618
1.1586212
1.1586201
1.1586191
1.158618
)
;
    }
    maxX
    {
        type            calculated;
        value           nonuniform List<scalar> 
40
(
1.1545407
1.1570066
1.1583046
1.1585543
1.1533015
1.1568765
1.158325
1.1585555
1.1512019
1.1558178
1.1579952
1.1584386
1.1476966
1.1525741
1.1565854
1.1579489
1.1431488
1.1464928
1.1528876
1.1565976
1.1431488
1.1464927
1.1528876
1.1565976
1.1476966
1.1525741
1.1565854
1.1579488
1.1512019
1.1558178
1.1579952
1.1584386
1.1533014
1.1568765
1.158325
1.1585555
1.1545406
1.1570066
1.1583046
1.1585543
)
;
    }
    minZ
    {
        type            calculated;
        value           nonuniform List<scalar> 
120
(
1.1586211
1.1586201
1.158619
1.158618
1.1586211
1.1586201
1.158619
1.158618
1.1586211
1.1586201
1.158619
1.158618
1.158621
1.1586201
1.158619
1.158618
1.1586209
1.1586201
1.158619
1.158618
1.1586207
1.1586201
1.158619
1.158618
1.1586204
1.15862
1.158619
1.1586179
1.15862
1.15862
1.158619
1.1586179
1.1586194
1.15862
1.158619
1.1586179
1.1586185
1.1586199
1.158619
1.1586179
1.1586174
1.1586198
1.158619
1.1586179
1.158613
1.1586195
1.1586189
1.1586179
1.1585298
1.1586156
1.1586188
1.1586179
1.1564387
1.1585614
1.1586174
1.1586178
1.1545927
1.1584689
1.158614
1.1586177
1.1530498
1.1583503
1.1586081
1.1586173
1.1518596
1.158211
1.1585993
1.1586167
1.1510355
1.1580607
1.1585876
1.1586157
1.1505637
1.157908
1.1585729
1.1586141
1.1504047
1.1577604
1.1585556
1.1586121
1.1505026
1.1576236
1.158536
1.1586094
1.1507948
1.1575015
1.1585146
1.158606
1.15122
1.1573962
1.1584919
1.158602
1.1517234
1.157308
1.1584682
1.1585973
1.1522599
1.157236
1.1584441
1.1585919
1.1527943
1.1571783
1.1584198
1.158586
1.1533012
1.1571316
1.1583955
1.1585794
1.1537631
1.157092
1.1583711
1.1585723
1.1541714
1.157056
1.1583431
1.1585645
1.1545329
1.1570037
1.158304
1.1585542
)
;
    }
    maxZ
    {
        type            calculated;
        value           nonuniform List<scalar> 
120
(
1.1586211
1.1586201
1.158619
1.158618
1.1586211
1.1586201
1.158619
1.158618
1.1586211
1.1586201
1.158619
1.158618
1.158621
1.1586201
1.158619
1.158618
1.1586209
1.1586201
1.158619
1.158618
1.1586207
1.1586201
1.158619
1.158618
1.1586204
1.15862
1.158619
1.1586179
1.15862
1.15862
1.158619
1.1586179
1.1586194
1.15862
1.158619
1.1586179
1.1586185
1.1586199
1.158619
1.1586179
1.1586174
1.1586198
1.158619
1.1586179
1.158613
1.1586195
1.1586189
1.1586179
1.1585298
1.1586156
1.1586188
1.1586179
1.1564388
1.1585614
1.1586174
1.1586178
1.1545927
1.1584689
1.158614
1.1586177
1.1530498
1.1583503
1.1586081
1.1586173
1.1518596
1.158211
1.1585993
1.1586167
1.1510354
1.1580607
1.1585876
1.1586157
1.1505636
1.157908
1.1585729
1.1586141
1.1504046
1.1577604
1.1585556
1.1586121
1.1505026
1.1576236
1.158536
1.1586094
1.1507948
1.1575015
1.1585146
1.158606
1.1512199
1.1573962
1.1584919
1.158602
1.1517233
1.157308
1.1584682
1.1585973
1.1522598
1.157236
1.1584441
1.1585919
1.1527942
1.1571782
1.1584198
1.158586
1.1533011
1.1571316
1.1583955
1.1585794
1.153763
1.157092
1.1583711
1.1585723
1.1541713
1.157056
1.1583431
1.1585645
1.1545329
1.1570037
1.158304
1.1585542
)
;
    }
    topAir_to_rightSolid
    {
        type            calculated;
        value           nonuniform List<scalar> 
130
(
1.1345663
1.1389061
1.1430707
1.1467833
1.1498994
1.1523855
1.154284
1.1556783
1.1566651
1.1573369
1.1577719
1.1580292
1.1581483
1.1273806
1.1334942
1.1392012
1.1441309
1.1481428
1.1512549
1.1535737
1.1552408
1.1563998
1.1571772
1.1576746
1.1579664
1.1581006
1.1125729
1.1227696
1.1318164
1.139232
1.1449853
1.1492666
1.1523457
1.1544945
1.1559518
1.1569097
1.1575127
1.1578622
1.1580218
1.0900033
1.1078154
1.1222637
1.1332617
1.1413104
1.1470319
1.1510009
1.1536928
1.1554771
1.1566287
1.1573435
1.1577536
1.1579397
1.0633564
1.093396
1.1142229
1.1286771
1.1386583
1.1454855
1.1500965
1.1531636
1.1551673
1.1564464
1.1572338
1.1576829
1.1578861
1.0633564
1.093396
1.1142229
1.1286771
1.1386583
1.1454855
1.1500965
1.1531636
1.1551673
1.1564464
1.1572338
1.1576829
1.1578861
1.0900033
1.1078154
1.1222637
1.1332617
1.1413103
1.1470318
1.1510008
1.1536928
1.1554771
1.1566287
1.1573435
1.1577536
1.1579397
1.1125727
1.1227695
1.1318162
1.1392319
1.1449852
1.1492666
1.1523456
1.1544945
1.1559518
1.1569097
1.1575127
1.1578622
1.1580218
1.1273804
1.133494
1.139201
1.1441308
1.1481427
1.1512548
1.1535735
1.1552407
1.1563997
1.1571772
1.1576746
1.1579664
1.1581006
1.134566
1.1389058
1.1430704
1.1467832
1.1498992
1.1523854
1.1542839
1.1556782
1.156665
1.1573369
1.1577718
1.1580292
1.1581483
)
;
    }
    topAir_to_heater
    {
        type            calculated;
        value           nonuniform List<scalar> 
40
(
1.1230852
1.124397
1.1269232
1.1304421
1.1112103
1.1130029
1.1165089
1.1214836
1.0860141
1.0887219
1.0942232
1.1024328
1.0453326
1.0490234
1.0571342
1.0707418
0.98816068
0.99165135
1.0006297
1.0197468
0.98816059
0.9916512
1.0006296
1.0197466
1.0453325
1.0490233
1.0571341
1.0707416
1.0860141
1.0887218
1.094223
1.1024325
1.1112104
1.1130028
1.1165087
1.1214833
1.1230854
1.1243969
1.1269229
1.1304417
)
;
    }
    topAir_to_leftSolid
    {
        type            calculated;
        value           nonuniform List<scalar> 
130
(
1.1586211
1.158621
1.1586206
1.1586199
1.1586189
1.1586174
1.1586153
1.1586123
1.1586084
1.1586037
1.1585985
1.1585934
1.1585895
1.158621
1.1586208
1.1586204
1.1586196
1.1586184
1.1586164
1.1586135
1.1586094
1.1586038
1.1585965
1.1585878
1.1585786
1.1585711
1.1586209
1.1586207
1.1586201
1.1586191
1.1586174
1.1586146
1.1586104
1.158604
1.1585947
1.1585816
1.1585644
1.1585438
1.1585237
1.1586208
1.1586205
1.1586197
1.1586184
1.1586162
1.1586126
1.1586067
1.1585974
1.1585829
1.158561
1.1585286
1.158483
1.1584263
1.1586207
1.1586203
1.1586195
1.158618
1.1586155
1.1586112
1.1586041
1.1585925
1.1585736
1.158543
1.1584932
1.1584115
1.1582797
1.1586207
1.1586203
1.1586195
1.158618
1.1586155
1.1586112
1.1586041
1.1585925
1.1585736
1.158543
1.1584932
1.1584115
1.1582797
1.1586208
1.1586205
1.1586197
1.1586184
1.1586162
1.1586126
1.1586067
1.1585974
1.1585829
1.158561
1.1585286
1.158483
1.1584263
1.1586209
1.1586207
1.1586201
1.1586191
1.1586174
1.1586146
1.1586104
1.158604
1.1585947
1.1585816
1.1585644
1.1585438
1.1585237
1.158621
1.1586208
1.1586204
1.1586196
1.1586184
1.1586164
1.1586135
1.1586094
1.1586038
1.1585965
1.1585878
1.1585786
1.1585711
1.1586211
1.158621
1.1586206
1.1586199
1.1586189
1.1586174
1.1586153
1.1586123
1.1586084
1.1586037
1.1585985
1.1585934
1.1585895
)
;
    }
}


// ************************************************************************* //
