/*--------------------------------*- C++ -*----------------------------------*\
| =========                 |                                                 |
| \\      /  F ield         | OpenFOAM: The Open Source CFD Toolbox           |
|  \\    /   O peration     | Version:  2412                                  |
|   \\  /    A nd           | Website:  www.openfoam.com                      |
|    \\/     M anipulation  |                                                 |
\*---------------------------------------------------------------------------*/
FoamFile
{
    version     2.0;
    format      ascii;
    arch        "LSB;label=32;scalar=64";
    class       volScalarField;
    location    "40/topAir";
    object      T;
}
// * * * * * * * * * * * * * * * * * * * * * * * * * * * * * * * * * * * * * //

dimensions      [0 0 0 1 0 0 0];

internalField   nonuniform List<scalar> 
1200
(
300.00001
300.00001
300.00002
300.00004
300.00007
300.00012
300.00019
300.0003
300.00046
300.00067
300.00097
300.00211
300.02365
300.56614
301.04672
301.44954
301.76102
301.97707
302.10091
302.14265
302.11693
302.04022
301.92867
301.7967
301.65619
301.51634
301.38383
301.26318
301.1566
301.06229
300
300
300
300
300
300
300.00001
300.00002
300.00003
300.00005
300.00007
300.00016
300.00116
300.01519
300.03914
300.06987
300.10594
300.1449
300.18448
300.22275
300.25822
300.28989
300.31723
300.34012
300.35879
300.37378
300.38589
300.39617
300.40551
300.4191
300
300
300
300
300
300
300.00001
300.00001
300.00001
300.00001
300.00001
300.00002
300.00005
300.00041
300.00129
300.00282
300.00509
300.00814
300.01194
300.01642
300.02148
300.02702
300.03291
300.03904
300.04528
300.05157
300.05786
300.06421
300.07146
300.08157
300
300
300
300
300.00001
300.00001
300.00001
300.00001
300.00001
300.00001
300.00001
300.00001
300.00001
300.00003
300.00007
300.00016
300.00033
300.00059
300.00098
300.00152
300.00221
300.00308
300.00412
300.00534
300.00673
300.00827
300.00997
300.0118
300.01384
300.0165
300.00001
300.00001
300.00003
300.00005
300.00008
300.00014
300.00022
300.00035
300.00054
300.00081
300.00119
300.00232
300.02322
300.63469
301.18099
301.64307
302.0045
302.25837
302.40899
302.46918
302.45612
302.38799
302.28174
302.15199
302.01066
301.86702
301.7282
301.59967
301.48551
301.38597
300
300
300
300
300
300
300.00001
300.00002
300.00003
300.00005
300.00008
300.00016
300.00102
300.01474
300.03818
300.06819
300.10307
300.14097
300.17979
300.21778
300.25361
300.28642
300.31577
300.34147
300.3637
300.3829
300.39983
300.41555
300.43158
300.45278
300
300
300
300
300
300
300
300.00001
300.00001
300.00001
300.00001
300.00001
300.00004
300.00034
300.00106
300.00233
300.00421
300.00671
300.00984
300.01355
300.01777
300.02245
300.02752
300.03292
300.03862
300.04463
300.051
300.0579
300.06568
300.07624
300
300
300
300
300
300.00001
300.00001
300.00001
300.00001
300.00001
300.00001
300.00001
300.00001
300.00002
300.00005
300.00012
300.00023
300.00041
300.00067
300.00104
300.00152
300.00213
300.00289
300.00381
300.00492
300.00625
300.00788
300.00992
300.01258
300.01619
300.00001
300.00002
300.00003
300.00006
300.00011
300.00018
300.0003
300.00049
300.00078
300.0012
300.00184
300.00365
300.0352
300.97125
301.80128
302.49404
303.02064
303.36752
303.54886
303.59385
303.53564
303.4052
303.22871
303.02707
302.81627
302.60822
302.41175
302.23336
302.07546
301.93588
300
300
300
300
300
300.00001
300.00001
300.00003
300.00005
300.00008
300.00012
300.00023
300.00145
300.02128
300.05548
300.09983
300.15146
300.2074
300.26463
300.32078
300.37413
300.42353
300.46836
300.50854
300.54452
300.57725
300.60836
300.64032
300.67695
300.72817
300
300
300
300
300
300
300.00001
300.00001
300.00001
300.00001
300.00001
300.00002
300.00006
300.00047
300.0015
300.00332
300.006
300.00961
300.01417
300.01966
300.02605
300.03335
300.04158
300.05082
300.06124
300.07317
300.0872
300.10435
300.12787
300.1618
300
300
300
300
300
300.00001
300.00001
300.00001
300.00001
300.00001
300.00001
300.00001
300.00001
300.00003
300.00007
300.00015
300.00031
300.00056
300.00093
300.00146
300.00218
300.00313
300.00439
300.00605
300.00827
300.01131
300.01562
300.02192
300.03182
300.0465
300.00001
300.00002
300.00004
300.00008
300.00013
300.00023
300.00039
300.00065
300.00107
300.00173
300.00279
300.00589
300.05741
301.57258
302.91733
304.03773
304.87212
305.36902
305.58242
305.585
305.44183
305.20444
304.91142
304.59068
304.26188
303.9386
303.63012
303.34302
303.08243
302.85843
300
300
300
300
300
300.00001
300.00002
300.00004
300.00006
300.00011
300.00017
300.00034
300.00226
300.03371
300.09148
300.17282
300.27433
300.38961
300.51198
300.63543
300.75541
300.86879
300.97381
301.06989
301.15755
301.23839
301.31516
301.39215
301.47597
301.57518
300
300
300
300
300
300
300.00001
300.00001
300.00001
300.00001
300.00001
300.00002
300.00008
300.00074
300.00246
300.00565
300.01067
300.01783
300.02759
300.04053
300.05696
300.07722
300.1018
300.13135
300.16684
300.20986
300.26296
300.33006
300.417
300.52811
300
300
300
300
300
300.00001
300.00001
300.00001
300.00001
300.00001
300.00001
300.00001
300.00001
300.00003
300.0001
300.00025
300.00053
300.00102
300.00179
300.00298
300.00477
300.0074
300.01121
300.01668
300.02479
300.0368
300.05462
300.08105
300.12005
300.1736
300.00001
300.00002
300.00005
300.00008
300.00015
300.00026
300.00045
300.00077
300.0013
300.00216
300.00365
300.00849
300.08973
302.48177
304.61653
306.42202
307.76295
308.3562
308.4897
308.33872
308.01486
307.59135
307.11685
306.62369
306.13307
305.65857
305.20869
304.78881
304.40294
304.06366
300
300
300
300
300.00001
300.00001
300.00002
300.00004
300.00008
300.00013
300.00022
300.00047
300.00346
300.05491
300.16182
300.33294
300.57012
300.85019
301.15236
301.45893
301.75585
302.03279
302.2828
302.50181
302.68812
302.84185
302.96455
303.05887
303.12802
303.1759
300
300
300
300
300
300
300.00001
300.00001
300.00001
300.00001
300.00002
300.00003
300.00012
300.0012
300.00426
300.01112
300.02489
300.04864
300.08493
300.13579
300.20247
300.28542
300.38432
300.49843
300.6268
300.76873
300.92426
301.09491
301.28424
301.49292
300
300
300
300
300
300.00001
300.00001
300.00001
300.00001
300.00001
300.00001
300.00001
300.00002
300.00005
300.00016
300.00046
300.0011
300.00239
300.00497
300.00964
300.0174
300.02947
300.04725
300.07231
300.1065
300.15205
300.21193
300.29039
300.3936
300.52471
300.00001
300.00002
300.00005
300.00008
300.00015
300.00026
300.00045
300.00077
300.0013
300.00216
300.00365
300.00849
300.08973
302.48177
304.61654
306.42202
307.76295
308.35621
308.48971
308.33873
308.01487
307.59135
307.11685
306.6237
306.13308
305.65858
305.2087
304.78882
304.40295
304.06367
300
300
300
300
300.00001
300.00001
300.00002
300.00004
300.00008
300.00013
300.00022
300.00047
300.00346
300.05491
300.16182
300.33294
300.57012
300.85019
301.15236
301.45894
301.75585
302.03279
302.2828
302.50182
302.68813
302.84185
302.96455
303.05887
303.12802
303.17591
300
300
300
300
300
300
300.00001
300.00001
300.00001
300.00001
300.00002
300.00003
300.00012
300.0012
300.00426
300.01112
300.02489
300.04864
300.08493
300.13579
300.20247
300.28542
300.38433
300.49844
300.62681
300.76873
300.92427
301.09492
301.28424
301.49292
300
300
300
300
300
300.00001
300.00001
300.00001
300.00001
300.00001
300.00001
300.00001
300.00002
300.00005
300.00016
300.00046
300.0011
300.00239
300.00497
300.00964
300.0174
300.02947
300.04725
300.07231
300.1065
300.15205
300.21193
300.2904
300.39361
300.52471
300.00001
300.00002
300.00004
300.00008
300.00013
300.00023
300.00039
300.00065
300.00107
300.00173
300.00279
300.00589
300.05741
301.57259
302.91733
304.03774
304.87212
305.36902
305.58242
305.58501
305.44183
305.20444
304.91142
304.59068
304.26189
303.9386
303.63013
303.34303
303.08243
302.85844
300
300
300
300
300
300.00001
300.00002
300.00004
300.00006
300.00011
300.00017
300.00034
300.00226
300.03371
300.09148
300.17282
300.27433
300.38961
300.51199
300.63543
300.75541
300.86879
300.97381
301.06989
301.15755
301.23839
301.31517
301.39215
301.47597
301.57518
300
300
300
300
300
300
300.00001
300.00001
300.00001
300.00001
300.00001
300.00002
300.00008
300.00074
300.00246
300.00565
300.01067
300.01783
300.02759
300.04053
300.05696
300.07722
300.1018
300.13135
300.16684
300.20986
300.26296
300.33006
300.417
300.52811
300
300
300
300
300
300.00001
300.00001
300.00001
300.00001
300.00001
300.00001
300.00001
300.00001
300.00003
300.0001
300.00025
300.00053
300.00102
300.00179
300.00298
300.00477
300.0074
300.01121
300.01668
300.02479
300.0368
300.05462
300.08105
300.12005
300.1736
300.00001
300.00002
300.00003
300.00006
300.00011
300.00018
300.0003
300.00049
300.00078
300.0012
300.00184
300.00365
300.0352
300.97125
301.80128
302.49405
303.02064
303.36753
303.54887
303.59386
303.53566
303.40521
303.22872
303.02708
302.81628
302.60824
302.41176
302.23337
302.07547
301.93589
300
300
300
300
300
300.00001
300.00001
300.00003
300.00005
300.00008
300.00012
300.00023
300.00145
300.02128
300.05548
300.09983
300.15146
300.2074
300.26463
300.32078
300.37413
300.42353
300.46836
300.50854
300.54452
300.57725
300.60837
300.64032
300.67695
300.72817
300
300
300
300
300
300
300.00001
300.00001
300.00001
300.00001
300.00001
300.00002
300.00006
300.00047
300.0015
300.00332
300.006
300.00961
300.01417
300.01966
300.02605
300.03335
300.04158
300.05082
300.06124
300.07317
300.0872
300.10435
300.12787
300.1618
300
300
300
300
300
300.00001
300.00001
300.00001
300.00001
300.00001
300.00001
300.00001
300.00001
300.00003
300.00007
300.00015
300.00031
300.00056
300.00093
300.00146
300.00218
300.00313
300.00439
300.00605
300.00827
300.01131
300.01562
300.02193
300.03182
300.0465
300.00001
300.00001
300.00003
300.00005
300.00008
300.00014
300.00022
300.00035
300.00054
300.00081
300.00119
300.00232
300.02322
300.63469
301.18099
301.64307
302.00451
302.25838
302.40901
302.46919
302.45613
302.388
302.28175
302.15201
302.01067
301.86704
301.72821
301.59968
301.48552
301.38598
300
300
300
300
300
300
300.00001
300.00002
300.00003
300.00005
300.00008
300.00016
300.00102
300.01474
300.03818
300.06819
300.10307
300.14097
300.17979
300.21778
300.25361
300.28642
300.31577
300.34148
300.3637
300.38291
300.39983
300.41556
300.43158
300.45278
300
300
300
300
300
300
300
300.00001
300.00001
300.00001
300.00001
300.00001
300.00004
300.00034
300.00106
300.00233
300.00421
300.00671
300.00984
300.01355
300.01777
300.02245
300.02752
300.03292
300.03862
300.04463
300.051
300.0579
300.06568
300.07624
300
300
300
300
300
300.00001
300.00001
300.00001
300.00001
300.00001
300.00001
300.00001
300.00001
300.00002
300.00005
300.00012
300.00023
300.00041
300.00067
300.00104
300.00152
300.00213
300.00289
300.00381
300.00492
300.00625
300.00788
300.00992
300.01258
300.01619
300.00001
300.00001
300.00002
300.00004
300.00007
300.00012
300.00019
300.0003
300.00046
300.00067
300.00097
300.00211
300.02365
300.56614
301.04671
301.44954
301.76103
301.97709
302.10093
302.14267
302.11695
302.04024
301.92869
301.79672
301.65621
301.51636
301.38385
301.26319
301.15662
301.0623
300
300
300
300
300
300
300.00001
300.00002
300.00003
300.00005
300.00007
300.00016
300.00116
300.01519
300.03914
300.06987
300.10594
300.1449
300.18448
300.22275
300.25822
300.28989
300.31723
300.34012
300.35879
300.37378
300.3859
300.39617
300.40552
300.41911
300
300
300
300
300
300
300.00001
300.00001
300.00001
300.00001
300.00001
300.00002
300.00005
300.00041
300.00129
300.00282
300.00509
300.00814
300.01194
300.01642
300.02148
300.02702
300.03291
300.03904
300.04528
300.05157
300.05786
300.06421
300.07146
300.08157
300
300
300
300
300.00001
300.00001
300.00001
300.00001
300.00001
300.00001
300.00001
300.00001
300.00001
300.00003
300.00007
300.00016
300.00033
300.00059
300.00098
300.00152
300.00221
300.00308
300.00412
300.00534
300.00673
300.00827
300.00997
300.0118
300.01384
300.0165
)
;

boundaryField
{
    maxY
    {
        type            zeroGradient;
    }
    minX
    {
        type            fixedValue;
        value           uniform 300;
    }
    maxX
    {
        type            inletOutlet;
        inletValue      uniform 300;
        value           nonuniform List<scalar> 
40
(
301.06027
300.41833
300.08141
300.01647
301.38375
300.45212
300.07613
300.01617
301.93342
300.72733
300.16159
300.04642
302.85559
301.57368
300.52748
300.17334
304.06044
303.17332
301.4914
300.52404
304.06044
303.17332
301.4914
300.52404
302.85559
301.57368
300.52748
300.17334
301.93342
300.72733
300.16159
300.04642
301.38376
300.45212
300.07613
300.01617
301.06028
300.41834
300.08141
300.01647
)
;
    }
    minZ
    {
        type            zeroGradient;
    }
    maxZ
    {
        type            zeroGradient;
    }
    topAir_to_rightSolid
    {
        type            compressible::turbulentTemperatureRadCoupledMixed;
        refValue        nonuniform List<scalar> 
130
(
306.36207
305.19427
304.08199
303.09723
302.27564
301.62336
301.12713
300.76377
300.50713
300.33268
300.21985
300.15314
300.1223
308.31528
306.65179
305.11507
303.8
302.73814
301.91954
301.31251
300.8776
300.57599
300.37402
300.24496
300.16932
300.13455
312.41974
309.58146
307.10615
305.10648
303.57293
302.44174
301.63342
301.07188
300.69226
300.44328
300.28678
300.19616
300.15481
318.89007
313.7611
309.72041
306.71374
304.55015
303.03063
301.98544
301.28071
300.81541
300.5159
300.33033
300.22401
300.1758
326.88271
317.89928
311.95532
307.95918
305.25896
303.43913
302.22233
301.4184
300.89555
300.56278
300.35834
300.24191
300.18931
326.88271
317.89927
311.95534
307.95917
305.25895
303.43913
302.22234
301.4184
300.89555
300.56278
300.35834
300.24191
300.18931
318.89008
313.7611
309.72042
306.71375
304.55016
303.03064
301.98546
301.28071
300.81542
300.51591
300.33034
300.22401
300.17581
312.4198
309.5815
307.10619
305.10651
303.57296
302.44175
301.63345
301.07189
300.69227
300.44329
300.28678
300.19616
300.15481
308.31536
306.65185
305.11512
303.80005
302.73817
301.91956
301.31254
300.87761
300.576
300.37403
300.24496
300.16932
300.13455
306.36217
305.19435
304.08205
303.09727
302.27568
301.62339
301.12716
300.76379
300.50715
300.33269
300.21986
300.15314
300.1223
)
;
        refGradient     uniform 0;
        valueFraction   uniform 0.99967867;
        source          uniform 0;
        logInterval     -1;
        writePrecision  8;
        updateHeader    1;
        writeToFile     0;
        useUserTime     1;
        kappaMethod     fluidThermo;
        value           nonuniform List<scalar> 
130
(
306.36066
305.19328
304.08136
303.09691
302.27557
301.62346
301.12735
300.76406
300.50746
300.33302
300.22019
300.15346
300.1226
308.31334
306.65042
305.11422
303.79957
302.73803
301.91965
301.31278
300.87796
300.5764
300.37446
300.24539
300.16974
300.13495
312.41683
309.57952
307.10502
305.10598
303.57288
302.44199
301.63387
301.07244
300.69287
300.44392
300.2874
300.19676
300.15538
318.88572
313.75848
309.71908
306.71333
304.55036
303.03124
301.98627
301.28167
300.81642
300.5169
300.3313
300.22492
300.17667
326.87675
317.89625
311.95416
307.9592
305.2597
303.44031
302.22374
301.41992
300.89708
300.56427
300.35977
300.24324
300.19055
326.87676
317.89624
311.95417
307.95919
305.2597
303.44031
302.22375
301.41992
300.89708
300.56427
300.35976
300.24324
300.19056
318.88573
313.75847
309.71909
306.71334
304.55037
303.03125
301.9863
301.28167
300.81642
300.51691
300.3313
300.22493
300.17667
312.41689
309.57957
307.10506
305.10601
303.5729
302.442
301.6339
301.07245
300.69288
300.44392
300.2874
300.19676
300.15538
308.31342
306.65049
305.11427
303.79961
302.73806
301.91968
301.31281
300.87797
300.57641
300.37446
300.2454
300.16974
300.13495
306.36076
305.19336
304.08142
303.09696
302.2756
301.62348
301.12738
300.76407
300.50747
300.33302
300.22019
300.15346
300.12261
)
;
    }
    topAir_to_heater
    {
        type            compressible::turbulentTemperatureRadCoupledMixed;
        refValue        nonuniform List<scalar> 
40
(
309.49542
309.13407
308.44075
307.4802
312.80382
312.29971
311.31857
309.93708
320.06321
319.26665
317.66082
315.29435
332.52278
331.35207
328.80867
324.62849
351.76682
350.52755
347.3809
340.86632
351.76685
350.5276
347.38096
340.86639
332.52279
331.3521
328.80872
324.62855
320.0632
319.26667
317.66088
315.29443
312.80381
312.29973
311.31863
309.93717
309.49536
309.13409
308.44082
307.48032
)
;
        refGradient     uniform 0;
        valueFraction   uniform 0.99967867;
        source          uniform 0;
        logInterval     -1;
        writePrecision  8;
        updateHeader    1;
        writeToFile     0;
        useUserTime     1;
        kappaMethod     fluidThermo;
        value           nonuniform List<scalar> 
40
(
309.49255
309.13147
308.4385
307.47836
312.79991
312.29614
311.31546
309.93453
320.05707
319.26103
317.65595
315.29041
332.51284
331.34293
328.80071
324.62214
351.75099
350.5128
347.36773
340.85568
351.75102
350.51285
347.3678
340.85575
332.51284
331.34296
328.80076
324.6222
320.05707
319.26106
317.656
315.29049
312.7999
312.29616
311.31552
309.93462
309.49249
309.13149
308.43858
307.47849
)
;
    }
    topAir_to_leftSolid
    {
        type            compressible::turbulentTemperatureRadCoupledMixed;
        refValue        nonuniform List<scalar> 
130
(
300.00014
300.00019
300.00028
300.00045
300.00071
300.0011
300.00166
300.00242
300.00342
300.00464
300.006
300.00731
300.00832
300.00016
300.00022
300.00033
300.00053
300.00086
300.00136
300.0021
300.00317
300.00464
300.00652
300.00877
300.01114
300.01308
300.0002
300.00026
300.00041
300.00068
300.00112
300.00182
300.00292
300.00458
300.00699
300.01037
300.01482
300.02015
300.02536
300.00023
300.00032
300.0005
300.00084
300.00141
300.00235
300.00388
300.00629
300.01003
300.01572
300.02411
300.03591
300.05059
300.00026
300.00035
300.00056
300.00094
300.0016
300.00271
300.00455
300.00756
300.01245
300.02038
300.03326
300.05444
300.08857
300.00026
300.00035
300.00056
300.00094
300.0016
300.00271
300.00455
300.00756
300.01245
300.02038
300.03326
300.05444
300.08857
300.00023
300.00032
300.0005
300.00084
300.00141
300.00235
300.00388
300.00629
300.01003
300.01572
300.02411
300.03591
300.05059
300.0002
300.00026
300.00041
300.00068
300.00112
300.00182
300.00292
300.00458
300.00699
300.01037
300.01482
300.02015
300.02536
300.00016
300.00022
300.00033
300.00053
300.00086
300.00136
300.0021
300.00317
300.00464
300.00652
300.00877
300.01114
300.01308
300.00014
300.00019
300.00028
300.00045
300.00071
300.0011
300.00165
300.00242
300.00342
300.00464
300.006
300.00731
300.00832
)
;
        refGradient     uniform 0;
        valueFraction   uniform 0.99967867;
        source          uniform 0;
        logInterval     -1;
        writePrecision  8;
        updateHeader    1;
        writeToFile     0;
        useUserTime     1;
        kappaMethod     fluidThermo;
        value           nonuniform List<scalar> 
130
(
300.00014
300.00019
300.00028
300.00045
300.00071
300.00109
300.00165
300.00242
300.00342
300.00464
300.00599
300.00731
300.00833
300.00016
300.00022
300.00033
300.00053
300.00086
300.00136
300.0021
300.00317
300.00463
300.00652
300.00877
300.01114
300.01309
300.0002
300.00026
300.00041
300.00068
300.00112
300.00182
300.00292
300.00458
300.00699
300.01037
300.01482
300.02015
300.02536
300.00023
300.00031
300.0005
300.00084
300.00141
300.00235
300.00387
300.00629
300.01003
300.01572
300.02411
300.0359
300.0506
300.00026
300.00035
300.00056
300.00094
300.0016
300.00271
300.00455
300.00756
300.01245
300.02037
300.03325
300.05443
300.08857
300.00026
300.00035
300.00056
300.00094
300.0016
300.00271
300.00455
300.00756
300.01245
300.02037
300.03326
300.05443
300.08857
300.00023
300.00031
300.0005
300.00084
300.00141
300.00235
300.00387
300.00629
300.01003
300.01572
300.02411
300.0359
300.0506
300.0002
300.00026
300.00041
300.00068
300.00112
300.00182
300.00292
300.00458
300.00699
300.01037
300.01482
300.02015
300.02536
300.00016
300.00022
300.00033
300.00053
300.00086
300.00136
300.0021
300.00317
300.00463
300.00652
300.00877
300.01114
300.01309
300.00014
300.00019
300.00028
300.00045
300.00071
300.00109
300.00165
300.00242
300.00342
300.00464
300.00599
300.00731
300.00833
)
;
    }
}


// ************************************************************************* //
