/*--------------------------------*- C++ -*----------------------------------*\
| =========                 |                                                 |
| \\      /  F ield         | OpenFOAM: The Open Source CFD Toolbox           |
|  \\    /   O peration     | Version:  2412                                  |
|   \\  /    A nd           | Website:  www.openfoam.com                      |
|    \\/     M anipulation  |                                                 |
\*---------------------------------------------------------------------------*/
FoamFile
{
    version     2.0;
    format      ascii;
    arch        "LSB;label=32;scalar=64";
    class       volVectorField;
    location    "40/topAir";
    object      U;
}
// * * * * * * * * * * * * * * * * * * * * * * * * * * * * * * * * * * * * * //

dimensions      [0 1 -1 0 0 0 0];

internalField   nonuniform List<vector> 
1200
(
(0.097232315 0.00096607382 0.00080247039)
(0.096229104 0.0013007048 0.0012036915)
(0.094378002 0.0013366219 0.0013591645)
(0.091899212 0.0013067998 0.0014229079)
(0.089362023 0.0012577479 0.0014448062)
(0.086960027 0.0011912387 0.0014345953)
(0.084685193 0.0011126957 0.0013994477)
(0.082514702 0.0010282585 0.0013479239)
(0.080451839 0.00094006005 0.0012869487)
(0.078512214 0.00084560284 0.0012213054)
(0.07671648 0.00073582125 0.0011548587)
(0.07510183 0.00058748364 0.0010921163)
(0.073757051 0.00035638684 0.0010383614)
(0.072682598 0.00023696476 0.0010098139)
(0.071734166 0.00013387164 0.0010172365)
(0.070790511 1.9066422e-05 0.0010563521)
(0.069847355 -0.00010731774 0.0011175874)
(0.068897194 -0.00024789575 0.0011915001)
(0.06794633 -0.00040252211 0.0012700354)
(0.067007206 -0.00056696652 0.0013462106)
(0.066095402 -0.00073403646 0.0014143214)
(0.06522538 -0.00089408634 0.001469443)
(0.064406147 -0.0010347447 0.0015064931)
(0.063637468 -0.0011400824 0.0015192691)
(0.062906805 -0.0011897493 0.0014994527)
(0.062184657 -0.0011556318 0.0014353997)
(0.061422209 -0.0010028236 0.0013115787)
(0.060542401 -0.0006928994 0.0011062114)
(0.059354342 -0.00017636112 0.00078217752)
(0.057137774 0.00077968985 0.00032708257)
(0.099370946 0.00097765373 0.00082841494)
(0.10013475 0.0013322455 0.0012574652)
(0.10060731 0.0014041139 0.0014410671)
(0.10061257 0.0014153528 0.0015338366)
(0.10043906 0.0014037417 0.0015836786)
(0.10023969 0.0013696684 0.0016004189)
(0.10002368 0.0013180097 0.0015915986)
(0.099775104 0.0012530545 0.0015655361)
(0.099495626 0.001174035 0.0015285465)
(0.099196398 0.0010747678 0.0014845084)
(0.098885068 0.00094243403 0.0014355139)
(0.098555909 0.00075381378 0.0013822477)
(0.098188107 0.00048014814 0.0013241947)
(0.097783154 0.00030986473 0.0012576778)
(0.097420818 0.00016266545 0.0011857216)
(0.097111429 8.6677709e-06 0.001110773)
(0.096820604 -0.00015694763 0.0010347309)
(0.096539976 -0.0003363448 0.00095922054)
(0.096267136 -0.00052939696 0.00088479748)
(0.095998978 -0.0007318424 0.00081149329)
(0.095732506 -0.00093580942 0.00073839195)
(0.095467275 -0.0011297403 0.00066359602)
(0.095206898 -0.0012972319 0.00058394198)
(0.094960124 -0.0014148528 0.00049536007)
(0.094743121 -0.0014532775 0.00039227248)
(0.094577004 -0.0013743731 0.00026572014)
(0.094520187 -0.0011244391 0.00010636065)
(0.094623439 -0.0006290093 -8.9581394e-05)
(0.094994799 0.00020680557 -0.0003193538)
(0.095717858 0.0015184537 -0.00055186781)
(0.099370801 -0.00097878179 0.00082841307)
(0.10013407 -0.0013348421 0.001257459)
(0.10060547 -0.0014090196 0.0014410508)
(0.10060856 -0.0014241374 0.0015337953)
(0.10043113 -0.0014191287 0.0015835799)
(0.10022481 -0.0013962933 0.0016001961)
(0.099996713 -0.001363662 0.0015911189)
(0.099727423 -0.0013306718 0.0015645481)
(0.099413201 -0.0013048509 0.0015266001)
(0.099057465 -0.0012931353 0.0014808646)
(0.098659139 -0.00130275 0.0014291474)
(0.098209624 -0.0013383565 0.001372091)
(0.097698586 -0.0013902555 0.0013096621)
(0.097134101 -0.0014166524 0.0012404846)
(0.096547972 -0.0014274087 0.0011645456)
(0.095965656 -0.0014356246 0.0010832991)
(0.095395704 -0.0014488089 0.00099828097)
(0.094840704 -0.0014677088 0.00091036233)
(0.094304113 -0.0014922422 0.00081929345)
(0.093789714 -0.0015197506 0.00072476826)
(0.093302958 -0.0015442798 0.00062312117)
(0.092853468 -0.0015591771 0.00051314448)
(0.092456739 -0.0015576593 0.00039173784)
(0.092153279 -0.0015278343 0.00025248196)
(0.092004657 -0.0014512928 9.0817858e-05)
(0.092063317 -0.0013019592 -9.372975e-05)
(0.092402247 -0.0010393787 -0.0003000277)
(0.093108209 -0.00059992875 -0.00052166881)
(0.094322635 0.00010388094 -0.00073204338)
(0.09687898 0.0010897792 -0.00091850954)
(0.097232025 -0.0009664801 0.00080246336)
(0.096227798 -0.0013016355 0.0012036696)
(0.094374623 -0.0013383699 0.0013591128)
(0.091892124 -0.0013099028 0.0014227929)
(0.089348514 -0.0012631413 0.0014445571)
(0.086935541 -0.0012005255 0.0014340667)
(0.084642106 -0.0011285986 0.0013983471)
(0.082440306 -0.0010553938 0.0013456763)
(0.080325021 -0.00098632523 0.0012824409)
(0.078297851 -0.00092483169 0.0012123964)
(0.076355361 -0.00087335603 0.0011374112)
(0.07448905 -0.00083276809 0.001058108)
(0.07269085 -0.00079994386 0.00097420002)
(0.070961495 -0.00076688279 0.00088481726)
(0.069316101 -0.00073196206 0.00078978707)
(0.067774035 -0.00069957668 0.00069031306)
(0.066345501 -0.00067309604 0.00058841712)
(0.065032763 -0.00065290916 0.00048590539)
(0.063838092 -0.00063875074 0.00037928076)
(0.062765701 -0.00062843506 0.00026658975)
(0.061829873 -0.00061751374 0.00014102949)
(0.061057466 -0.00060337386 -2.0050905e-06)
(0.060457681 -0.00058707879 -0.00016035024)
(0.060054181 -0.00056858711 -0.00033442562)
(0.059880974 -0.00054184507 -0.00052548694)
(0.059986318 -0.00049474909 -0.00073257402)
(0.060437241 -0.00041070063 -0.00095036166)
(0.061320423 -0.00026518473 -0.001164617)
(0.062752429 -2.6333562e-05 -0.001339151)
(0.065996424 0.00037113645 -0.0014742939)
(0.098509239 0.00098997568 0.0010630035)
(0.098435044 0.0013448595 0.001630203)
(0.097921999 0.0013977045 0.0018719534)
(0.096980871 0.0013838863 0.0019877707)
(0.095959055 0.0013487082 0.0020455791)
(0.094992141 0.0012939564 0.0020588107)
(0.094076734 0.001225545 0.002036934)
(0.093193969 0.0011499155 0.0019915174)
(0.092344157 0.0010693659 0.0019319949)
(0.091539912 0.00098149515 0.0018650777)
(0.090801128 0.00087717554 0.0017969479)
(0.090164173 0.00073309848 0.0017363921)
(0.089725791 0.00050457655 0.0016999511)
(0.089497445 0.00037433426 0.0017372871)
(0.089329644 0.00024910407 0.0018795339)
(0.08908933 0.00010668331 0.0021132624)
(0.088763408 -4.7486797e-05 0.0024085849)
(0.08836154 -0.00021271467 0.0027361385)
(0.087893085 -0.00038804006 0.003070396)
(0.087375109 -0.00056893817 0.0033904507)
(0.086828974 -0.00074901037 0.0036802209)
(0.086275372 -0.00092044221 0.0039267024)
(0.085729753 -0.0010737066 0.0041174001)
(0.085198574 -0.0011957579 0.0042378168)
(0.084676176 -0.0012691783 0.0042692176)
(0.084141423 -0.0012709915 0.0041862626)
(0.083550187 -0.0011676394 0.0039556521)
(0.082819344 -0.00090894636 0.0035366518)
(0.081726427 -0.00041780023 0.0028760465)
(0.079360906 0.00058284742 0.0018996423)
(0.10070632 0.00099746716 0.001095076)
(0.10245756 0.0013583937 0.0016842643)
(0.10433693 0.0014300379 0.0019454574)
(0.1059626 0.0014405407 0.0020838485)
(0.10741006 0.0014288936 0.0021671002)
(0.1087787 0.0013956445 0.0022081088)
(0.11008298 0.0013457358 0.0022158973)
(0.11131157 0.0012835417 0.0022011332)
(0.1124643 0.0012084228 0.0021719051)
(0.11354993 0.0011143417 0.0021327566)
(0.11457543 0.00098861465 0.0020853329)
(0.11553624 0.00080815747 0.0020276775)
(0.11641553 0.00054322608 0.0019510093)
(0.11722452 0.00037273188 0.0018393864)
(0.11804534 0.00021473698 0.001698906)
(0.11889152 4.3488113e-05 0.0015403198)
(0.11973763 -0.00014181858 0.0013737626)
(0.12056836 -0.00034145542 0.0012083326)
(0.1213816 -0.000555141 0.0010491599)
(0.12217452 -0.00077855576 0.00089825828)
(0.12294373 -0.0010072535 0.00075463439)
(0.12368912 -0.0012307821 0.00061373463)
(0.12441477 -0.0014359687 0.00046781088)
(0.12512717 -0.0016058408 0.00030559008)
(0.12583628 -0.0017143331 0.00011192764)
(0.12655974 -0.0017220809 -0.00013370696)
(0.12729954 -0.0015717104 -0.00045554682)
(0.12808567 -0.0011799095 -0.0008790666)
(0.12904919 -0.00042498509 -0.0014176573)
(0.13058689 0.0008789602 -0.0019988386)
(0.10070618 -0.0009986248 0.0010950591)
(0.10245687 -0.0013610595 0.001684226)
(0.10433508 -0.0014350573 0.0019453794)
(0.10595859 -0.0014494827 0.0020836872)
(0.10740217 -0.001444462 0.0021667652)
(0.108764 -0.0014224138 0.0022074176)
(0.11005651 -0.001391357 0.0022144938)
(0.11126508 -0.0013606789 0.002198345)
(0.11238449 -0.0013378064 0.0021665192)
(0.11341641 -0.0013294361 0.0021227404)
(0.11436012 -0.0013422878 0.0020677591)
(0.11520929 -0.0013803348 0.0019997881)
(0.11595713 -0.0014341235 0.0019144627)
(0.11661522 -0.0014642895 0.0018053741)
(0.11721772 -0.0014814194 0.0016688012)
(0.11779223 -0.0014982204 0.0015066273)
(0.11834921 -0.0015218403 0.0013226087)
(0.11889232 -0.001553022 0.0011206533)
(0.11942527 -0.0015946976 0.00090314655)
(0.11994911 -0.0016461642 0.00066964389)
(0.1204749 -0.0017062013 0.00041814769)
(0.12101111 -0.0017702824 0.00014485519)
(0.12156844 -0.001828034 -0.00015574259)
(0.12215371 -0.0018655072 -0.0004916442)
(0.12277896 -0.0018619449 -0.00087076482)
(0.1234926 -0.0017853035 -0.0013010839)
(0.12436498 -0.0015883419 -0.0017897286)
(0.12549958 -0.0012033262 -0.0023401908)
(0.12706121 -0.00053985138 -0.0029322222)
(0.13009661 0.00042420338 -0.0034727792)
(0.098508946 -0.00099039198 0.001062968)
(0.098433727 -0.0013458144 0.0016301212)
(0.097918605 -0.001399494 0.0018717848)
(0.096973788 -0.0013870502 0.0019874213)
(0.095945621 -0.00135418 0.0020448511)
(0.094967912 -0.0013033281 0.0020573008)
(0.094034307 -0.0012415112 0.0020338338)
(0.093121066 -0.0011770379 0.0019852352)
(0.092220463 -0.0011154516 0.0019194347)
(0.091331767 -0.0010602568 0.0018402685)
(0.090452159 -0.0010138675 0.0017484211)
(0.089576026 -0.00097708465 0.0016421558)
(0.088699515 -0.00094703605 0.0015176524)
(0.087828347 -0.00091655629 0.0013698305)
(0.08698276 -0.00088425855 0.001194851)
(0.086187031 -0.00085444019 0.00099271747)
(0.085455975 -0.00082993464 0.0007667798)
(0.084790448 -0.00081042725 0.00052049089)
(0.084198833 -0.000798862 0.00025682653)
(0.08368696 -0.00079495692 -2.7483176e-05)
(0.083246444 -0.00079624364 -0.00033770442)
(0.082864762 -0.00080216065 -0.00067780359)
(0.082556405 -0.00080637879 -0.0010503871)
(0.082339668 -0.00079990906 -0.0014603111)
(0.082246968 -0.00077341597 -0.0019141486)
(0.082330553 -0.00071526904 -0.0024167346)
(0.082669767 -0.00060707948 -0.0029652057)
(0.083376721 -0.00042062694 -0.0035372152)
(0.084610293 -0.00012813272 -0.004093647)
(0.087660898 0.00031174722 -0.0045703952)
(0.098380434 0.00098500709 0.00041225652)
(0.098081513 0.0013339422 0.00070940085)
(0.097478415 0.0013804933 0.00088460963)
(0.096592317 0.0013619497 0.00099203202)
(0.09569766 0.0013235333 0.0010634176)
(0.094891685 0.0012663952 0.0011073938)
(0.094163733 0.0011961672 0.0011278152)
(0.093492263 0.0011190316 0.0011300599)
(0.092872643 0.0010366321 0.0011199118)
(0.092313771 0.00094493513 0.0011030751)
(0.091836835 0.00083074802 0.0010871804)
(0.091489259 0.00066068877 0.0010866404)
(0.091407329 0.0003723957 0.0011336014)
(0.091612959 0.00025427865 0.0013147143)
(0.091895227 0.00016157487 0.0016818316)
(0.092067013 6.1254955e-05 0.0022062097)
(0.092093227 -4.5234306e-05 0.0028344245)
(0.091982541 -0.00016365044 0.0035097647)
(0.09175496 -0.00029897162 0.0041854038)
(0.091438796 -0.0004501702 0.0048288249)
(0.091063305 -0.00061185112 0.0054183017)
(0.090650731 -0.00077550746 0.0059375185)
(0.090211141 -0.00092901847 0.0063712968)
(0.08973916 -0.0010563565 0.0067020017)
(0.089209542 -0.0011348465 0.0069059318)
(0.088571957 -0.0011327584 0.0069485208)
(0.08774611 -0.0010057439 0.0067770728)
(0.086604993 -0.00069392878 0.0063090963)
(0.084937889 -9.3205377e-05 0.0053983303)
(0.081480763 0.0011933225 0.0038585119)
(0.10057464 0.00099691998 0.00042457025)
(0.10210173 0.0013579748 0.00073614335)
(0.10389423 0.0014267915 0.00092703419)
(0.10557775 0.0014338169 0.0010525454)
(0.10715383 0.0014189615 0.001144135)
(0.10868479 0.0013825526 0.0012099858)
(0.11017876 0.0013292465 0.0012535304)
(0.11162212 0.0012630315 0.0012792946)
(0.1130097 0.0011823965 0.001291431)
(0.11434449 0.0010793939 0.0012922416)
(0.11562715 0.00093741586 0.001281126)
(0.116843 0.00072567349 0.0012510556)
(0.11796179 0.00040518777 0.0011802044)
(0.11899442 0.00025298192 0.001037661)
(0.12004825 0.00014225101 0.0008341959)
(0.12113923 3.2308937e-05 0.00059113478)
(0.12224536 -8.5690555e-05 0.0003313186)
(0.12334858 -0.00022040995 7.5737556e-05)
(0.12443774 -0.00037825829 -0.00016060164)
(0.12550212 -0.00056067882 -0.00037097428)
(0.12653066 -0.00076065768 -0.00055477737)
(0.12751239 -0.00096873942 -0.00071663517)
(0.12843753 -0.0011685145 -0.0008669888)
(0.12929993 -0.0013350918 -0.0010240777)
(0.1300959 -0.0014314628 -0.001214043)
(0.13082338 -0.0014028763 -0.0014730192)
(0.1314829 -0.0011683221 -0.0018508817)
(0.13209713 -0.00061195306 -0.002413749)
(0.13275048 0.00044589303 -0.0032314723)
(0.13357233 0.0023008531 -0.0042757606)
(0.10057449 -0.00099813631 0.00042453988)
(0.10210099 -0.0013607866 0.00073606964)
(0.10389224 -0.0014321126 0.00092688111)
(0.1055734 -0.0014433553 0.001052235)
(0.10714521 -0.0014356896 0.0011435116)
(0.10866861 -0.0014115557 0.0012087446)
(0.11014936 -0.0013791396 0.0012510879)
(0.11157001 -0.0013482802 0.0012745645)
(0.11291942 -0.0013270542 0.0012824801)
(0.11419239 -0.0013229267 0.001275908)
(0.1153814 -0.0013431617 0.001253192)
(0.11647313 -0.0013905492 0.0012092397)
(0.11745423 -0.0014487254 0.0011348204)
(0.11833621 -0.0014625751 0.0010159938)
(0.1191626 -0.0014474058 0.00084454928)
(0.11996836 -0.0014248413 0.00062262628)
(0.12076549 -0.001408715 0.00035530762)
(0.12155452 -0.0014059133 5.0457159e-05)
(0.12233363 -0.0014170346 -0.00028530312)
(0.12310292 -0.0014446405 -0.00064870565)
(0.12385442 -0.0014875213 -0.0010349983)
(0.12458556 -0.0015392698 -0.0014465855)
(0.12530202 -0.0015875427 -0.0018888125)
(0.12601743 -0.0016118988 -0.0023723741)
(0.12675737 -0.0015818768 -0.002913024)
(0.12756716 -0.0014504141 -0.0035356173)
(0.12852115 -0.0011433489 -0.0042713469)
(0.12974997 -0.00054358753 -0.0051517462)
(0.13138177 0.00049597332 -0.0061805777)
(0.13465008 0.0020055952 -0.0072455312)
(0.09838012 -0.00098544487 0.00041219144)
(0.09808009 -0.0013349501 0.00070924183)
(0.097474727 -0.0013823925 0.0008842772)
(0.096584562 -0.0013653305 0.0009913567)
(0.095682823 -0.0013294281 0.0010620576)
(0.094864636 -0.0012765881 0.0011046687)
(0.09411575 -0.0012137276 0.0011223834)
(0.09340854 -0.0011492645 0.0011192924)
(0.092728015 -0.0010888565 0.0010986793)
(0.092065234 -0.0010360671 0.0010613672)
(0.091409838 -0.00099320659 0.0010053502)
(0.090749277 -0.00096045154 0.000925667)
(0.090073674 -0.0009332215 0.00081442696)
(0.089385813 -0.00090114807 0.00066189383)
(0.088707971 -0.00086174314 0.00046097207)
(0.088068931 -0.00082172032 0.00020919185)
(0.087483925 -0.00078573825 -8.8270119e-05)
(0.086959827 -0.0007559658 -0.00042399566)
(0.086488243 -0.00072924077 -0.00078800387)
(0.086059454 -0.00070605634 -0.0011799939)
(0.085673141 -0.00068909797 -0.0016006877)
(0.085331967 -0.00067473029 -0.0020539992)
(0.085043841 -0.00065712121 -0.002548206)
(0.084824691 -0.00062678448 -0.0030909035)
(0.08470954 -0.00057029843 -0.0036973632)
(0.084765056 -0.00046636119 -0.0043894396)
(0.085109 -0.00027883123 -0.0051914897)
(0.085907777 5.5395698e-05 -0.0061217785)
(0.08756256 0.00058661562 -0.0071669077)
(0.09188891 0.001328168 -0.0082091543)
(0.098356364 0.00098736989 0.00022309038)
(0.097982688 0.0013395145 0.00042055164)
(0.097292545 0.0013884148 0.00056746313)
(0.096340031 0.0013712739 0.00066823097)
(0.095401652 0.0013335564 0.00073575843)
(0.094566793 0.0012763517 0.00077876152)
(0.093821884 0.0012051612 0.0008022227)
(0.093145884 0.0011259454 0.00081044907)
(0.092534994 0.0010396483 0.00080798444)
(0.092000404 0.00094010568 0.00079999251)
(0.091571336 0.00080798791 0.00079420852)
(0.091317761 0.00059329277 0.00080646121)
(0.091441785 0.00020552155 0.00087340816)
(0.091983009 0.00014643806 0.001117864)
(0.09262595 0.00018513798 0.0016138165)
(0.093091621 0.00026880859 0.002328883)
(0.093295356 0.000385556 0.0031956324)
(0.093244042 0.00050554551 0.0041266602)
(0.092980049 0.00061059469 0.0050533916)
(0.092552537 0.00069144512 0.0059392586)
(0.092000651 0.00074607919 0.0067653314)
(0.091348721 0.0007785981 0.0075174306)
(0.090605777 0.00079835311 0.0081799891)
(0.089763856 0.00081957585 0.00873204)
(0.088793461 0.00086336552 0.0091417598)
(0.087635606 0.00096025854 0.0093576025)
(0.086190003 0.0011579256 0.0092923559)
(0.084293825 0.0015387014 0.0087931076)
(0.081626038 0.0022601632 0.0075977336)
(0.075481402 0.003847104 0.0054333803)
(0.10055092 0.00099714091 0.00023007336)
(0.10200367 0.0013595005 0.00043654699)
(0.10370983 0.0014291574 0.0005936433)
(0.1053277 0.0014362644 0.00070626586)
(0.10685996 0.0014209256 0.0007873819)
(0.10836076 0.0013833775 0.00084541061)
(0.10983509 0.0013279553 0.00088487476)
(0.11126918 0.001258063 0.00090928447)
(0.11265694 0.0011709887 0.00092159266)
(0.11399876 0.0010561863 0.00092327355)
(0.11528901 0.00089145272 0.00091231829)
(0.11649791 0.0006344626 0.0008773862)
(0.11757572 0.00023423751 0.00078547721)
(0.11853751 0.00016054919 0.00058400717)
(0.11951938 0.00021699913 0.00028676369)
(0.1205396 0.00034572842 -6.2658738e-05)
(0.12158242 0.00052376305 -0.00042686181)
(0.1226278 0.00071724579 -0.00076572528)
(0.12365005 0.00090369068 -0.0010585834)
(0.1246254 0.0010713685 -0.0012987981)
(0.12553496 0.0012185662 -0.0014881658)
(0.12636064 0.0013517752 -0.0016345726)
(0.12708167 0.0014857771 -0.0017516394)
(0.12767106 0.0016432234 -0.0018591399)
(0.12808845 0.0018630725 -0.0019860646)
(0.12827191 0.0022051931 -0.0021752506)
(0.12813053 0.0027667877 -0.0024913709)
(0.12754785 0.0037105901 -0.0030336014)
(0.12644555 0.0053204713 -0.0039652588)
(0.1237837 0.0080664523 -0.0055122279)
(0.10055075 -0.00099841809 0.00023004714)
(0.10200287 -0.0013624651 0.00043648242)
(0.10370767 -0.0014348026 0.00059350772)
(0.10532296 -0.0014464607 0.00070598972)
(0.10685049 -0.0014389644 0.00078682548)
(0.10834282 -0.0014149629 0.00084429997)
(0.10980218 -0.0013828903 0.00088268303)
(0.11121023 -0.0013530718 0.00090502772)
(0.11255386 -0.0013343585 0.00091352692)
(0.11382405 -0.0013351543 0.00090864054)
(0.11500773 -0.001363066 0.0008880244)
(0.11608471 -0.0014176785 0.00084495524)
(0.11703389 -0.0014687703 0.00076684027)
(0.1178706 -0.0014350816 0.000630697)
(0.11865822 -0.0013353681 0.00042211807)
(0.11944564 -0.001200489 0.00014427111)
(0.12025463 -0.001049968 -0.00019403425)
(0.12109287 -0.0008980936 -0.00058698633)
(0.1219562 -0.00075366718 -0.0010274799)
(0.12283687 -0.00062027305 -0.0015055359)
(0.12372556 -0.00049609164 -0.0020173959)
(0.12461424 -0.00037154281 -0.0025612059)
(0.12549642 -0.00022708235 -0.0031401418)
(0.12637412 -2.81607e-05 -0.0037631684)
(0.12720731 0.00027291349 -0.0044470478)
(0.12799026 0.00074705827 -0.0052187378)
(0.12873884 0.0015029808 -0.0061172007)
(0.12950671 0.0027055795 -0.0071919212)
(0.13048206 0.0045859754 -0.0085027759)
(0.13252753 0.0073195323 -0.010052685)
(0.098356025 -0.00098782981 0.00022303446)
(0.097981147 -0.001340578 0.00042041303)
(0.097288528 -0.0013904316 0.00056717027)
(0.09633152 -0.0013748929 0.0006676327)
(0.09538521 -0.0013399264 0.00073454853)
(0.094536463 -0.0012874878 0.00077632622)
(0.093767328 -0.0012245947 0.00079733821)
(0.093049118 -0.0011599239 0.00080067793)
(0.092364572 -0.0010994803 0.0007884578)
(0.091700733 -0.0010471375 0.00076090036)
(0.091042105 -0.0010052063 0.00071545537)
(0.090370474 -0.00097286989 0.00064598194)
(0.089671098 -0.00094287132 0.00054211208)
(0.088946922 -0.00089815766 0.00038965627)
(0.088224759 -0.00083300289 0.0001776671)
(0.087542814 -0.00075804689 -9.1040931e-05)
(0.086927809 -0.00067679557 -0.00040885221)
(0.086381745 -0.00059264502 -0.00076333672)
(0.085895543 -0.00050807067 -0.0011512015)
(0.085461042 -0.00042594257 -0.0015780734)
(0.08507718 -0.00034679993 -0.0020527049)
(0.08474923 -0.00026664568 -0.0025848481)
(0.084492788 -0.00017452406 -0.0031870848)
(0.084327046 -4.5519158e-05 -0.0038762671)
(0.084367687 0.0001471847 -0.0046747448)
(0.084715762 0.00044429943 -0.0056115235)
(0.085528947 0.00090605429 -0.0067217844)
(0.087047237 0.0016185838 -0.008040998)
(0.089652455 0.0026714906 -0.0095618435)
(0.0957261 0.0041408343 -0.011079363)
(0.098343857 0.00098740994 6.6383106e-05)
(0.097933294 0.0013395489 0.00012480336)
(0.097195669 0.001387864 0.00016662354)
(0.096202896 0.0013696589 0.00019220875)
(0.095237093 0.0013306761 0.00020609678)
(0.094384495 0.0012720652 0.00021219449)
(0.093628156 0.0011992402 0.00021280998)
(0.092945935 0.0011179171 0.00020955772)
(0.092334446 0.0010283508 0.00020398934)
(0.091807304 0.00092229464 0.00019796957)
(0.091401727 0.00077410147 0.000194638)
(0.091209259 0.00051621112 0.00020115953)
(0.091539564 3.3783884e-05 0.00023480682)
(0.092443614 0.00014331427 0.00036740863)
(0.093490603 0.0004879469 0.00064357774)
(0.094282967 0.0010028561 0.0010531306)
(0.094676295 0.0016499687 0.0015645957)
(0.094668274 0.0022895442 0.0021296977)
(0.09434824 0.0028884198 0.0027097986)
(0.093810967 0.0034357514 0.0032860178)
(0.093112314 0.0039280186 0.0038489811)
(0.092275226 0.0043677819 0.004390329)
(0.091299429 0.0047624625 0.0048992452)
(0.090160857 0.0051236939 0.0053603114)
(0.088802811 0.0054688118 0.0057501498)
(0.087118849 0.005824735 0.0060313662)
(0.084923011 0.0062365859 0.0061414082)
(0.081898197 0.0067845646 0.0059719098)
(0.077463408 0.0075860407 0.0053362946)
(0.066875293 0.0090731174 0.0040274733)
(0.10053846 0.00099714817 6.84302e-05)
(0.10195439 0.001359949 0.0001295085)
(0.10361348 0.0014297523 0.00017434886)
(0.10519185 0.0014365223 0.00020350481)
(0.10669711 0.001420461 0.00022154307)
(0.10817991 0.0013817976 0.00023223002)
(0.10964173 0.0013246794 0.00023765911)
(0.11106712 0.0012520648 0.00023910421)
(0.11244869 0.0011602657 0.000237424)
(0.11378384 0.0010365177 0.00023274933)
(0.11505869 0.00085353293 0.0002233466)
(0.11622187 0.00055800721 0.00020218529)
(0.11717692 9.3525061e-05 0.00014981428)
(0.11793569 0.00022552255 3.1535388e-05)
(0.11870193 0.00066425208 -0.00014408617)
(0.11949657 0.0013300167 -0.00034130944)
(0.1202768 0.002182738 -0.00053225532)
(0.1210101 0.0030830314 -0.00068886494)
(0.12163952 0.0039895246 -0.00079819714)
(0.12212482 0.0048908558 -0.00085590843)
(0.12243717 0.0057829566 -0.00086254466)
(0.12255108 0.0066676187 -0.00082227852)
(0.12243865 0.0075526204 -0.0007426616)
(0.12206272 0.0084527778 -0.00063513582)
(0.12136667 0.0093943806 -0.00051727925)
(0.12025877 0.010423885 -0.00041611434)
(0.11858828 0.011625075 -0.00037558328)
(0.11610704 0.013151044 -0.00047253622)
(0.11241537 0.015282656 -0.00085814991)
(0.1035374 0.018501526 -0.0018019894)
(0.10053828 -0.00099846737 6.8419482e-05)
(0.10195356 -0.0013630179 0.00012948219)
(0.10361121 -0.0014356175 0.00017429352)
(0.10518685 -0.0014471643 0.00020339182)
(0.10668707 -0.0014393891 0.00022131492)
(0.10816078 -0.0014151432 0.00023177357)
(0.1096064 -0.0013830801 0.00023675556)
(0.11100345 -0.0013538627 0.00023734392)
(0.11233677 -0.0013368552 0.00023408288)
(0.11359398 -0.0013409775 0.00022671672)
(0.11475642 -0.0013733844 0.00021360393)
(0.11579562 -0.0014285021 0.00019072916)
(0.11667608 -0.0014572963 0.00015057494)
(0.11741611 -0.0013293091 7.8318518e-05)
(0.11811526 -0.0010597526 -3.5816835e-05)
(0.11886066 -0.00068479835 -0.00018982424)
(0.11968192 -0.00021583813 -0.0003771056)
(0.12058132 0.00033081857 -0.00059795949)
(0.1214787 0.00094703819 -0.00084914039)
(0.1223646 0.0016240518 -0.0011226632)
(0.12321799 0.0023578643 -0.0014123776)
(0.12401569 0.0031511391 -0.0017140997)
(0.12473127 0.0040137698 -0.0020257218)
(0.12533308 0.0049654535 -0.0023465977)
(0.12578157 0.0060410027 -0.0026823314)
(0.12602661 0.0073018569 -0.0030442397)
(0.12600522 0.0088566579 -0.0034538321)
(0.1256426 0.010896832 -0.0039494144)
(0.12491798 0.013758297 -0.0046006443)
(0.12266033 0.017914035 -0.005494064)
(0.098343501 -0.00098788508 6.6360272e-05)
(0.097931674 -0.0013406501 0.00012474684)
(0.09719143 -0.0013899602 0.00016650386)
(0.096193873 -0.0013734386 0.00019196359)
(0.095219555 -0.0013373678 0.00020559934)
(0.094351901 -0.0012838445 0.00021118908)
(0.093568985 -0.0012199683 0.00021078159)
(0.092839794 -0.0011545401 0.00020546581)
(0.092144883 -0.0010937341 0.0001957165)
(0.091468027 -0.0010415153 0.00018114011)
(0.090788862 -0.00099988748 0.00016000248)
(0.090082482 -0.00096650079 0.00012863946)
(0.089326148 -0.00093029917 8.0830707e-05)
(0.088520887 -0.00086214418 7.5789167e-06)
(0.087714155 -0.00074985204 -9.8504675e-05)
(0.086961573 -0.00060033758 -0.0002323769)
(0.086292441 -0.0004211556 -0.0003914157)
(0.085726621 -0.00020233867 -0.00056973275)
(0.08536434 6.2457741e-05 -0.00076549861)
(0.085191692 0.00036130814 -0.00098667175)
(0.085208325 0.00068777295 -0.0012419111)
(0.085414835 0.0010442581 -0.0015392073)
(0.085809954 0.0014407534 -0.0018879944)
(0.086394228 0.0018957559 -0.0023026962)
(0.087178237 0.0024384899 -0.0027972504)
(0.088196336 0.0031164804 -0.0033870477)
(0.089529577 0.0040087902 -0.0040895513)
(0.09135028 0.0052475394 -0.0049206407)
(0.094098265 0.0070421418 -0.0058772297)
(0.10020573 0.0097241821 -0.0068434208)
(0.098343857 0.00098740992 -6.6381838e-05)
(0.097933294 0.0013395489 -0.00012480293)
(0.097195669 0.001387864 -0.00016662315)
(0.096202896 0.0013696589 -0.00019220855)
(0.095237093 0.0013306761 -0.00020609663)
(0.094384495 0.0012720652 -0.00021219436)
(0.093628156 0.0011992403 -0.00021280993)
(0.092945935 0.0011179171 -0.00020955752)
(0.092334446 0.001028351 -0.00020398976)
(0.091807304 0.00092229463 -0.00019796991)
(0.091401727 0.00077410174 -0.00019463927)
(0.09120926 0.00051621096 -0.0002011608)
(0.091539564 3.3783106e-05 -0.0002348078)
(0.092443615 0.0001433142 -0.0003674101)
(0.093490605 0.00048794613 -0.00064357831)
(0.094282969 0.0010028574 -0.0010531311)
(0.094676299 0.0016499707 -0.0015645933)
(0.094668277 0.002289548 -0.0021296935)
(0.094348242 0.0028884251 -0.0027097913)
(0.093810971 0.0034357593 -0.0032860093)
(0.093112316 0.0039280268 -0.0038489682)
(0.092275227 0.0043677918 -0.0043903152)
(0.091299431 0.0047624687 -0.0048992281)
(0.090160861 0.0051237059 -0.0053602934)
(0.08880282 0.0054688239 -0.005750124)
(0.087118853 0.0058247488 -0.0060313366)
(0.084923012 0.0062366019 -0.0061413765)
(0.081898194 0.006784582 -0.0059718777)
(0.077463394 0.0075860591 -0.0053362654)
(0.066875255 0.0090731371 -0.0040274525)
(0.10053846 0.00099714819 -6.8428956e-05)
(0.10195439 0.0013599491 -0.00012950812)
(0.10361348 0.0014297524 -0.00017434866)
(0.10519185 0.0014365224 -0.00020350476)
(0.10669711 0.001420461 -0.00022154312)
(0.10817991 0.0013817976 -0.00023223024)
(0.10964173 0.0013246795 -0.00023765939)
(0.11106712 0.0012520648 -0.00023910454)
(0.11244869 0.0011602658 -0.00023742458)
(0.11378384 0.0010365177 -0.00023274997)
(0.11505869 0.00085353322 -0.0002233471)
(0.11622187 0.00055800698 -0.00020218513)
(0.11717692 9.3524268e-05 -0.00014981372)
(0.11793569 0.00022552162 -3.1533866e-05)
(0.11870193 0.00066425107 0.00014408648)
(0.11949657 0.001330017 0.00034130905)
(0.1202768 0.00218274 0.00053225381)
(0.1210101 0.0030830356 0.00068886322)
(0.12163952 0.0039895308 0.00079819489)
(0.12212481 0.004890865 0.00085590624)
(0.12243716 0.0057829681 0.0008625419)
(0.12255108 0.0066676314 0.00082227871)
(0.12243864 0.0075526304 0.00074266277)
(0.12206272 0.0084527953 0.00063513744)
(0.12136666 0.0093943987 0.00051728113)
(0.12025875 0.010423908 0.00041611568)
(0.11858825 0.011625101 0.00037558444)
(0.11610702 0.013151073 0.00047253605)
(0.11241533 0.015282687 0.00085814679)
(0.10353734 0.018501561 0.0018019793)
(0.10053828 -0.00099846733 -6.8418261e-05)
(0.10195356 -0.0013630179 -0.00012948172)
(0.10361121 -0.0014356175 -0.00017429319)
(0.10518685 -0.0014471643 -0.00020339173)
(0.10668707 -0.0014393892 -0.00022131496)
(0.10816078 -0.0014151432 -0.00023177369)
(0.1096064 -0.0013830801 -0.00023675582)
(0.11100345 -0.0013538629 -0.00023734419)
(0.11233677 -0.0013368551 -0.00023408349)
(0.11359398 -0.0013409779 -0.00022671729)
(0.11475642 -0.0013733843 -0.00021360443)
(0.11579562 -0.0014285025 -0.00019072908)
(0.11667608 -0.0014572964 -0.00015057433)
(0.11741611 -0.0013293097 -7.8318139e-05)
(0.11811526 -0.0010597524 3.5816709e-05)
(0.11886065 -0.00068479812 0.00018982317)
(0.11968191 -0.00021583685 0.0003771041)
(0.12058132 0.00033082081 0.00059795785)
(0.1214787 0.00094704159 0.00084913812)
(0.1223646 0.0016240569 0.0011226599)
(0.12321799 0.0023578722 0.0014123751)
(0.12401569 0.0031511467 0.0017140982)
(0.12473127 0.0040137793 0.0020257206)
(0.12533308 0.0049654664 0.0023465957)
(0.12578156 0.0060410189 0.0026823243)
(0.1260266 0.0073018773 0.0030442304)
(0.12600521 0.0088566831 0.0034538199)
(0.12564258 0.010896861 0.0039494004)
(0.12491795 0.013758331 0.0046006257)
(0.12266028 0.017914076 0.0054940394)
(0.098343501 -0.00098788509 -6.6359053e-05)
(0.097931674 -0.0013406501 -0.00012474636)
(0.09719143 -0.0013899603 -0.00016650349)
(0.096193873 -0.0013734387 -0.00019196338)
(0.095219555 -0.0013373679 -0.00020559923)
(0.094351901 -0.0012838446 -0.00021118903)
(0.093568985 -0.0012199681 -0.00021078153)
(0.092839794 -0.0011545403 -0.000205466)
(0.092144883 -0.0010937339 -0.00019571668)
(0.091468027 -0.0010415156 -0.0001811408)
(0.090788862 -0.00099988751 -0.0001600032)
(0.090082482 -0.00096650094 -0.00012864045)
(0.089326148 -0.00093029926 -8.0831894e-05)
(0.088520887 -0.00086214392 -7.5807083e-06)
(0.087714154 -0.00074985191 9.8501996e-05)
(0.086961572 -0.00060033692 0.00023237325)
(0.086292439 -0.00042115517 0.00039141048)
(0.08572662 -0.00020233799 0.00056972632)
(0.085364339 6.2458885e-05 0.00076548966)
(0.085191691 0.0003613101 0.00098666001)