/*--------------------------------*- C++ -*----------------------------------*\
| =========                 |                                                 |
| \\      /  F ield         | OpenFOAM: The Open Source CFD Toolbox           |
|  \\    /   O peration     | Version:  2412                                  |
|   \\  /    A nd           | Website:  www.openfoam.com                      |
|    \\/     M anipulation  |                                                 |
\*---------------------------------------------------------------------------*/
FoamFile
{
    version     2.0;
    format      ascii;
    arch        "LSB;label=32;scalar=64";
    class       volScalarField;
    location    "100/heater";
    object      T;
}
// * * * * * * * * * * * * * * * * * * * * * * * * * * * * * * * * * * * * * //

dimensions      [0 0 0 1 0 0 0];

internalField   nonuniform List<scalar> 
80
(
333.80348
333.04712
331.57448
329.48454
337.55802
336.65651
334.88975
332.36542
345.46624
344.28271
341.90368
338.397
358.28415
356.77867
353.5467
348.3154
483.93598
484.70955
484.7526
484.11927
455.93272
456.89607
456.91568
456.09462
431.32452
432.08659
431.91401
431.00012
409.83991
410.17796
409.52023
408.25662
391.53521
391.16335
389.44089
386.91684
376.8761
375.42997
371.81496
364.54786
483.93598
484.70955
484.7526
484.11927
455.93271
456.89606
456.91567
456.09462
431.3245
432.08658
431.91401
431.00012
409.83989
410.17795
409.52023
408.25663
391.53519
391.16334
389.44089
386.91686
376.87611
375.42998
371.81497
364.54787
358.28416
356.77868
353.54671
348.31541
345.46624
344.28272
341.90369
338.39702
337.55802
336.65652
334.88977
332.36545
333.80345
333.04712
331.57451
329.4846
)
;

boundaryField
{
    minY
    {
        type            fixedValue;
        value           uniform 500;
    }
    minZ
    {
        type            zeroGradient;
    }
    maxZ
    {
        type            zeroGradient;
    }
    heater_to_topAir
    {
        type            compressible::turbulentTemperatureRadCoupledMixed;
        refValue        nonuniform List<scalar> 
40
(
301.97127
303.63945
305.085
306.29852
301.84375
303.42646
304.80313
305.95421
302.18164
304.04329
305.64674
306.96275
302.79096
305.17572
307.23201
308.90158
303.66263
306.82195
309.55412
311.72884
303.66263
306.82195
309.55412
311.72884
302.79096
305.17572
307.23201
308.90158
302.18164
304.0433
305.64674
306.96275
301.84375
303.42647
304.80313
305.95421
301.97127
303.63945
305.08501
306.29853
)
;
        refGradient     uniform 0;
        valueFraction   uniform 0.00032132529;
        source          uniform 0;
        logInterval     -1;
        writePrecision  8;
        updateHeader    1;
        writeToFile     0;
        useUserTime     1;
        kappaMethod     solidThermo;
        value           nonuniform List<scalar> 
40
(
333.78608
333.03055
331.55894
329.4702
337.5395
336.63884
334.87317
332.35013
345.44556
344.26304
341.88533
338.38029
358.26002
356.75579
353.52551
348.29643
376.84699
375.40232
371.78929
364.52511
376.847
375.40233
371.7893
364.52512
358.26003
356.75579
353.52552
348.29644
345.44557
344.26305
341.88535
338.38031
337.5395
336.63884
334.87319
332.35017
333.78606
333.03055
331.55897
329.47026
)
;
    }
    heater_to_rightSolid
    {
        type            compressible::turbulentTemperatureRadCoupledMixed;
        refValue        nonuniform List<scalar> 10(326.93074 329.28341 334.04111 341.14818 349.43457 349.43458 341.14819 334.04115 329.28345 326.9308);
        refGradient     uniform 0;
        valueFraction   uniform 0.49999997;
        source          uniform 0;
        logInterval     -1;
        writePrecision  8;
        updateHeader    1;
        writeToFile     0;
        useUserTime     1;
        kappaMethod     solidThermo;
        value           nonuniform List<scalar> 10(328.20419 330.82101 336.21575 344.72863 356.98833 356.98833 344.72865 336.21578 330.82105 328.20425);
    }
    heater_to_leftSolid
    {
        type            compressible::turbulentTemperatureRadCoupledMixed;
        refValue        nonuniform List<scalar> 10(300.08663 300.10267 300.1395 300.203 300.28228 300.28228 300.203 300.1395 300.10267 300.08662);
        refGradient     uniform 0;
        valueFraction   uniform 2.0832464e-05;
        source          uniform 0;
        logInterval     -1;
        thicknessLayers List<scalar> 1(0.001);
        kappaLayers     List<scalar> 1(0.0005);
        writePrecision  8;
        updateHeader    1;
        writeToFile     0;
        useUserTime     1;
        kappaMethod     solidThermo;
        value           nonuniform List<scalar> 10(333.79561 337.5502 345.45852 358.27664 376.86892 376.86893 358.27665 345.45853 337.5502 333.79558);
    }
    heater_to_bottomWater
    {
        type            compressible::turbulentTemperatureRadCoupledMixed;
        refValue        nonuniform List<scalar> 
92
(
301.34979
302.36815
303.12573
303.63501
301.24157
302.1605
302.89898
303.4731
302.29229
303.47904
304.30889
304.926
310.07752
313.61738
317.0793
319.38593
304.96368
307.26812
309.67565
312.02073
303.47016
305.10213
306.79426
308.46211
303.48557
305.07337
306.72088
308.3009
306.2745
306.2745
309.32385
309.32385
312.00342
312.00342
313.6505
313.6505
322.31355
345.91422
311.43495
339.86547
308.33099
331.70861
308.20044
324.80855
310.84956
324.92208
322.31355
310.07732
313.61713
317.07906
345.91469
319.38581
311.43495
304.96363
307.26806
309.67558
339.86568
312.02068
308.33099
303.47011
305.10208
306.79421
331.70875
308.46207
308.20044
303.48545
305.07324
306.72074
324.80894
308.3008
310.84956
306.27411
309.32345
312.00307
324.92293
313.65038
306.27411
309.32345
312.00307
313.65038
302.29214
303.47887
304.30874
304.92593
301.24152
302.16045
302.89894
303.47312
301.34975
302.36812
303.12571
303.63508
)
;
        refGradient     uniform 0;
        valueFraction   nonuniform List<scalar> 
92
(
0.0075140686
0.0075140686
0.0075140686
0.0075140686
0.0075140686
0.0075140686
0.0075140686
0.0075140686
0.0075140686
0.0075140686
0.0075140686
0.0075140686
0.0075140686
0.0075140686
0.0075140686
0.0075140686
0.0075140686
0.0075140686
0.0075140686
0.0075140686
0.0075140686
0.0075140686
0.0075140686
0.0075140686
0.0075140686
0.0075140686
0.0075140686
0.0075140686
0.0075140686
0.0075140686
0.0075140686
0.0075140686
0.0075140686
0.0075140686
0.0075140686
0.0075140686
0.0075140679
0.0075140679
0.0075140679
0.0075140679
0.0075140679
0.0075140679
0.0075140679
0.0075140679
0.0075140679
0.0075140679
0.0075140679
0.0075140686
0.0075140686
0.0075140686
0.0075140679
0.0075140686
0.0075140679
0.0075140686
0.0075140686
0.0075140686
0.0075140679
0.0075140686
0.0075140679
0.0075140686
0.0075140686
0.0075140686
0.0075140679
0.0075140686
0.0075140679
0.0075140686
0.0075140686
0.0075140686
0.0075140679
0.0075140686
0.0075140679
0.0075140686
0.0075140686
0.0075140686
0.0075140679
0.0075140686
0.0075140686
0.0075140686
0.0075140686
0.0075140686
0.0075140686
0.0075140686
0.0075140686
0.0075140686
0.0075140686
0.0075140686
0.0075140686
0.0075140686
0.0075140686
0.0075140686
0.0075140686
0.0075140686
)
;
        source          uniform 0;
        logInterval     -1;
        writePrecision  8;
        updateHeader    1;
        writeToFile     0;
        useUserTime     1;
        kappaMethod     solidThermo;
        value           nonuniform List<scalar> 
92
(
333.55251
332.80952
331.35373
329.28347
337.27815
336.39036
334.6425
332.14157
345.13511
343.96941
341.61454
338.13893
482.62899
483.42333
483.49206
482.8808
454.79653
455.76993
455.80746
455.01016
430.36089
431.12947
430.97087
430.07635
409.03683
409.38422
408.74378
407.50151
357.88709
390.88974
356.41583
390.54354
353.22828
388.85412
348.04866
386.36136
482.72093
483.08014
454.84516
455.21939
430.39742
430.25103
409.07225
407.62555
390.92412
386.44606
482.72092
482.62898
483.42333
483.49206
483.08014
482.8808
454.84514
454.79652
455.76992
455.80745
455.21939
455.01016
430.3974
430.36088
431.12945
430.97087
430.25103
430.07635
409.07223
409.03681
409.38421
408.74378
407.62556
407.50152
390.9241
390.88972
390.54353
388.85411
386.44608
386.36138
357.8871
356.41584
353.22828
348.04867
345.13511
343.96942
341.61455
338.13895
337.27814
336.39037
334.64252
332.14161
333.55248
332.80952
331.35376
329.28353
)
;
    }
}


// ************************************************************************* //
