/*--------------------------------*- C++ -*----------------------------------*\
| =========                 |                                                 |
| \\      /  F ield         | OpenFOAM: The Open Source CFD Toolbox           |
|  \\    /   O peration     | Version:  2412                                  |
|   \\  /    A nd           | Website:  www.openfoam.com                      |
|    \\/     M anipulation  |                                                 |
\*---------------------------------------------------------------------------*/
FoamFile
{
    version     2.0;
    format      ascii;
    arch        "LSB;label=32;scalar=64";
    class       volScalarField;
    location    "80/bottomWater";
    object      p;
}
// * * * * * * * * * * * * * * * * * * * * * * * * * * * * * * * * * * * * * //

dimensions      [1 -1 -2 0 0 0 0];

internalField   nonuniform List<scalar> 
1460
(
353.16344
353.16309
353.16292
353.16279
353.16267
353.16255
353.16244
353.16233
353.16221
353.1621
353.16197
353.16183
353.16168
353.16151
353.16133
353.16117
353.16102
353.16088
353.16077
353.16068
353.1606
353.16053
353.16046
353.16039
353.16033
353.16027
353.16021
353.16014
353.16008
353.16002
274.68319
274.683
274.68287
274.68276
274.68264
274.68253
274.68242
274.68232
274.68221
274.68209
274.68196
274.68183
274.68168
274.68151
274.68133
274.68117
274.68102
274.68088
274.68077
274.68068
274.6806
274.68052
274.68045
274.68039
274.68033
274.68026
274.6802
274.68014
274.68008
274.68002
196.20323
196.20304
196.2029
196.20278
196.20266
196.20255
196.20244
196.20233
196.20221
196.20209
196.20197
196.20183
196.20168
196.20151
196.20134
196.20117
196.20102
196.20089
196.20078
196.20068
196.2006
196.20053
196.20046
196.20039
196.20033
196.20027
196.2002
196.20014
196.20008
196.20001
117.72319
117.723
117.72287
117.72276
117.72264
117.72253
117.72242
117.72232
117.72221
117.72209
117.72196
117.72183
117.72168
117.72151
117.72133
117.72117
117.72102
117.72088
117.72077
117.72068
117.7206
117.72052
117.72045
117.72039
117.72033
117.72026
117.7202
117.72014
117.72008
117.72002
39.243439
39.243087
39.242924
39.242793
39.242668
39.242551
39.242438
39.242327
39.242214
39.242097
39.241972
39.241835
39.241682
39.241507
39.241331
39.241165
39.241016
39.240885
39.240774
39.24068
39.240599
39.240526
39.240457
39.240392
39.240329
39.240267
39.240205
39.240144
39.240084
39.240022
353.16323
353.163
353.16286
353.16275
353.16264
353.16254
353.16243
353.16233
353.16222
353.16211
353.16198
353.16183
353.16165
353.16142
353.16124
353.16109
353.16095
353.16083
353.16073
353.16065
353.16058
353.16051
353.16045
353.16039
353.16033
353.16027
353.16021
353.16014
353.16008
353.16002
274.68299
274.68292
274.68283
274.68273
274.68263
274.68253
274.68242
274.68232
274.68222
274.68211
274.68198
274.68183
274.68165
274.68142
274.68123
274.68108
274.68095
274.68083
274.68073
274.68065
274.68058
274.68051
274.68045
274.68039
274.68033
274.68027
274.6802
274.68014
274.68008
274.68001
196.20303
196.20296
196.20286
196.20276
196.20265
196.20255
196.20244
196.20233
196.20223
196.20211
196.20199
196.20183
196.20165
196.20142
196.20123
196.20108
196.20095
196.20083
196.20073
196.20065
196.20058
196.20052
196.20045
196.20039
196.20033
196.20027
196.20021
196.20014
196.20008
196.20001
117.72299
117.72292
117.72283
117.72273
117.72263
117.72253
117.72242
117.72232
117.72222
117.72211
117.72198
117.72183
117.72165
117.72142
117.72123
117.72108
117.72095
117.72083
117.72073
117.72065
117.72058
117.72051
117.72045
117.72039
117.72033
117.72027
117.7202
117.72014
117.72008
117.72001
39.243229
39.242998
39.242865
39.242754
39.242645
39.242538
39.242433
39.24233
39.242224
39.24211
39.241982
39.241832
39.241651
39.241424
39.241242
39.241091
39.240954
39.240831
39.240732
39.240651
39.24058
39.240514
39.24045
39.240388
39.240327
39.240266
39.240206
39.240145
39.240084
39.240021
353.16322
353.163
353.16287
353.16277
353.16267
353.16257
353.16248
353.16239
353.16229
353.1622
353.16209
353.16196
353.16178
353.16147
353.16123
353.16104
353.16087
353.16073
353.16065
353.1606
353.16055
353.1605
353.16044
353.16039
353.16033
353.16027
353.16021
353.16015
353.16009
353.16003
274.68298
274.68292
274.68284
274.68275
274.68265
274.68256
274.68247
274.68238
274.68229
274.6822
274.6821
274.68197
274.6818
274.68146
274.68121
274.68101
274.68084
274.6807
274.68062
274.68058
274.68054
274.68049
274.68044
274.68039
274.68033
274.68028
274.68022
274.68015
274.68009
274.68003
196.20302
196.20296
196.20287
196.20277
196.20268
196.20258
196.20249
196.2024
196.20231
196.20221
196.20211
196.20198
196.20181
196.20147
196.20122
196.20102
196.20084
196.2007
196.20063
196.20058
196.20054
196.2005
196.20045
196.20039
196.20034
196.20028
196.20022
196.20015
196.20009
196.20002
117.72298
117.72292
117.72284
117.72275
117.72265
117.72256
117.72247
117.72238
117.72229
117.7222
117.7221
117.72197
117.7218
117.72146
117.72121
117.72101
117.72084
117.7207
117.72062
117.72058
117.72054
117.72049
117.72044
117.72039
117.72033
117.72028
117.72022
117.72015
117.72009
117.72003
39.24322
39.242997
39.242872
39.242769
39.242668
39.242571
39.242477
39.242386
39.242295
39.242199
39.242091
39.241957
39.241783
39.241469
39.241233
39.241041
39.240874
39.240727
39.240648
39.240595
39.240546
39.240496
39.240443
39.240389
39.240332
39.240274
39.240214
39.240153
39.240091
39.240029
353.16318
353.16297
353.16285
353.16276
353.16266
353.16258
353.16249
353.16241
353.16234
353.16225
353.16215
353.16198
353.16166
353.16084
353.16095
353.16085
353.16071
353.16052
353.16053
353.16052
353.1605
353.16047
353.16043
353.16039
353.16033
353.16028
353.16022
353.16016
353.1601
353.16004
274.68294
274.68289
274.68282
274.68273
274.68265
274.68257
274.68249
274.68241
274.68234
274.68226
274.68217
274.68201
274.68159
274.68057
274.68082
274.68079
274.68065
274.68047
274.68049
274.6805
274.6805
274.68047
274.68043
274.68039
274.68034
274.68028
274.68022
274.68017
274.6801
274.68004
196.20298
196.20293
196.20285
196.20276
196.20267
196.20259
196.2025
196.20242
196.20235
196.20227
196.20218
196.20201
196.20157
196.20054
196.20081
196.2008
196.20066
196.20049
196.2005
196.20051
196.2005
196.20048
196.20044
196.20039
196.20034
196.20028
196.20023
196.20016
196.2001
196.20004
117.72294
117.72289
117.72282
117.72273
117.72265
117.72257
117.72249
117.72241
117.72234
117.72226
117.72217
117.72201
117.72159
117.72057
117.72082
117.72079
117.72065
117.72047
117.72049
117.7205
117.7205
117.72047
117.72043
117.72039
117.72034
117.72028
117.72022
117.72017
117.7201
117.72004
39.243181
39.242967
39.242851
39.242757
39.242664
39.242576
39.242493
39.242414
39.242336
39.242254
39.242152
39.241985
39.241656
39.240837
39.240949
39.240845
39.240709
39.240522
39.240532
39.240523
39.240504
39.240474
39.240433
39.240386
39.240334
39.240278
39.240219
39.240159
39.240099
39.240039
353.16318
353.16297
353.16286
353.16277
353.16268
353.1626
353.16253
353.16248
353.16244
353.16242
353.16245
353.16251
353.16265
353.16019
353.16041
353.16044
353.16048
353.16048
353.16045
353.1604
353.16035
353.1603
353.16024
353.16018
353.16011
353.16005
274.68294
274.68289
274.68282
274.68274
274.68267
274.68259
274.68253
274.68247
274.68245
274.68246
274.68252
274.68265
274.68295
274.68005
274.68037
274.68043
274.68049
274.68049
274.68046
274.68042
274.68037
274.68031
274.68025
274.68018
274.68012
274.68006
196.20298
196.20293
196.20285
196.20277
196.20269
196.20261
196.20254
196.20249
196.20246
196.20247
196.20255
196.2027
196.20306
196.20005
196.20038
196.20044
196.2005
196.2005
196.20047
196.20042
196.20037
196.20031
196.20025
196.20019
196.20012
196.20007
117.72294
117.72289
117.72282
117.72274
117.72267
117.72259
117.72253
117.72247
117.72245
117.72246
117.72252
117.72265
117.72295
117.72005
117.72037
117.72043
117.72049
117.72049
117.72046
117.72042
117.72037
117.72031
117.72025
117.72018
117.72012
117.72006
39.243181
39.242969
39.242856
39.242766
39.242681
39.242601
39.242532
39.242477
39.242439
39.242423
39.242446
39.24251
39.242647
39.240191
39.240408
39.240445
39.240484
39.240477
39.240447
39.240404
39.240353
39.240297
39.240237
39.240175
39.240111
39.240053
353.16318
353.16297
353.16286
353.16277
353.16268
353.1626
353.16253
353.16248
353.16244
353.16242
353.16245
353.16251
353.16265
353.16019
353.16041
353.16044
353.16048
353.16048
353.16045
353.1604
353.16035
353.1603
353.16024
353.16018
353.16011
353.16005
274.68294
274.68289
274.68282
274.68274
274.68267
274.68259
274.68253
274.68247
274.68245
274.68246
274.68252
274.68265
274.68295
274.68005
274.68037
274.68043
274.68049
274.68049
274.68046
274.68042
274.68037
274.68031
274.68025
274.68018
274.68012
274.68006
196.20298
196.20293
196.20285
196.20277
196.20269
196.20261
196.20254
196.20249
196.20246
196.20247
196.20255
196.2027
196.20306
196.20005
196.20038
196.20044
196.2005
196.2005
196.20047
196.20042
196.20037
196.20031
196.20025
196.20019
196.20012
196.20007
117.72294
117.72289
117.72282
117.72274
117.72267
117.72259
117.72253
117.72247
117.72245
117.72246
117.72252
117.72265
117.72295
117.72005
117.72037
117.72043
117.72049
117.72049
117.72046
117.72042
117.72037
117.72031
117.72025
117.72018
117.72012
117.72006
39.243181
39.242969
39.242856
39.242766
39.242681
39.242601
39.242532
39.242477
39.242439
39.242423
39.242446
39.24251
39.242647
39.240191
39.240408
39.240445
39.240484
39.240477
39.240447
39.240404
39.240353
39.240297
39.240237
39.240175
39.240111
39.240053
353.16318
353.16297
353.16285
353.16276
353.16266
353.16258
353.16249
353.16241
353.16234
353.16225
353.16215
353.16198
353.16166
353.16084
353.16095
353.16085
353.16071
353.16052
353.16053
353.16052
353.1605
353.16047
353.16043
353.16039
353.16033
353.16028
353.16022
353.16016
353.1601
353.16004
274.68294
274.68289
274.68282
274.68273
274.68265
274.68257
274.68249
274.68241
274.68234
274.68226
274.68217
274.68201
274.68159
274.68057
274.68082
274.68079
274.68065
274.68047
274.68049
274.6805
274.6805
274.68047
274.68043
274.68039
274.68034
274.68028
274.68022
274.68017
274.6801
274.68004
196.20298
196.20293
196.20285
196.20276
196.20267
196.20259
196.2025
196.20242
196.20235
196.20227
196.20218
196.20201
196.20157
196.20054
196.20081
196.2008
196.20066
196.20049
196.2005
196.20051
196.2005
196.20048
196.20044
196.20039
196.20034
196.20028
196.20023
196.20016
196.2001
196.20004
117.72294
117.72289
117.72282
117.72273
117.72265
117.72257
117.72249
117.72241
117.72234
117.72226
117.72217
117.72201
117.72159
117.72057
117.72082
117.72079
117.72065
117.72047
117.72049
117.7205
117.7205
117.72047
117.72043
117.72039
117.72034
117.72028
117.72022
117.72017
117.7201
117.72004
39.243181
39.242967
39.242851
39.242757
39.242664
39.242576
39.242493
39.242414
39.242336
39.242254
39.242152
39.241985
39.241656
39.240837
39.240949
39.240845
39.240709
39.240522
39.240532
39.240523
39.240504
39.240474
39.240433
39.240386
39.240334
39.240278
39.240219
39.240159
39.240099
39.240039
353.16322
353.163
353.16287
353.16277
353.16267
353.16257
353.16248
353.16239
353.16229
353.1622
353.16209
353.16196
353.16178
353.16147
353.16123
353.16104
353.16087
353.16073
353.16065
353.1606
353.16055
353.1605
353.16044
353.16039
353.16033
353.16027
353.16021
353.16015
353.16009
353.16003
274.68298
274.68292
274.68284
274.68275
274.68265
274.68256
274.68247
274.68238
274.68229
274.6822
274.6821
274.68197
274.6818
274.68146
274.68121
274.68101
274.68084
274.6807
274.68062
274.68058
274.68054
274.68049
274.68044
274.68039
274.68033
274.68028
274.68022
274.68015
274.68009
274.68003
196.20302
196.20296
196.20287
196.20277
196.20268
196.20258
196.20249
196.2024
196.20231
196.20221
196.20211
196.20198
196.20181
196.20147
196.20122
196.20102
196.20084
196.2007
196.20063
196.20058
196.20054
196.2005
196.20045
196.20039
196.20034
196.20028
196.20022
196.20015
196.20009
196.20002
117.72298
117.72292
117.72284
117.72275
117.72265
117.72256
117.72247
117.72238
117.72229
117.7222
117.7221
117.72197
117.7218
117.72146
117.72121
117.72101
117.72084
117.7207
117.72062
117.72058
117.72054
117.72049
117.72044
117.72039
117.72033
117.72028
117.72022
117.72015
117.72009
117.72003
39.24322
39.242997
39.242872
39.242769
39.242668
39.242571
39.242477
39.242386
39.242295
39.242199
39.242091
39.241957
39.241783
39.241469
39.241233
39.241041
39.240874
39.240727
39.240648
39.240595
39.240546
39.240496
39.240443
39.240389
39.240332
39.240274
39.240214
39.240153
39.240091
39.240029
353.16323
353.163
353.16286
353.16275
353.16264
353.16254
353.16243
353.16233
353.16222
353.16211
353.16198
353.16183
353.16165
353.16142
353.16124
353.16109
353.16095
353.16083
353.16073
353.16065
353.16058
353.16051
353.16045
353.16039
353.16033
353.16027
353.16021
353.16014
353.16008
353.16002
274.68299
274.68292
274.68283
274.68273
274.68263
274.68253
274.68242
274.68232
274.68222
274.68211
274.68198
274.68183
274.68165
274.68142
274.68123
274.68108
274.68095
274.68083
274.68073
274.68065
274.68058
274.68051
274.68045
274.68039
274.68033
274.68027
274.6802
274.68014
274.68008
274.68001
196.20303
196.20296
196.20286
196.20276
196.20265
196.20255
196.20244
196.20233
196.20223
196.20211
196.20199
196.20183
196.20165
196.20142
196.20123
196.20108
196.20095
196.20083
196.20073
196.20065
196.20058
196.20052
196.20045
196.20039
196.20033
196.20027
196.20021
196.20014
196.20008
196.20001
117.72299
117.72292
117.72283
117.72273
117.72263
117.72253
117.72242
117.72232
117.72222
117.72211
117.72198
117.72183
117.72165
117.72142
117.72123
117.72108
117.72095
117.72083
117.72073
117.72065
117.72058
117.72051
117.72045
117.72039
117.72033
117.72027
117.7202
117.72014
117.72008
117.72001
39.243229
39.242998
39.242865
39.242754
39.242645
39.242538
39.242433
39.24233
39.242224
39.24211
39.241982
39.241832
39.241651
39.241424
39.241242
39.241091
39.240954
39.240831
39.240732
39.240651
39.24058
39.240514
39.24045
39.240388
39.240327
39.240266
39.240206
39.240145
39.240084
39.240021
353.16344
353.16309
353.16292
353.16279
353.16267
353.16255
353.16244
353.16233
353.16221
353.1621
353.16197
353.16183
353.16168
353.16151
353.16133
353.16117
353.16102
353.16088
353.16077
353.16068
353.1606
353.16053
353.16046
353.16039
353.16033
353.16027
353.16021
353.16014
353.16008
353.16002
274.68319
274.683
274.68287
274.68276
274.68264
274.68253
274.68242
274.68232
274.68221
274.68209
274.68196
274.68183
274.68168
274.68151
274.68133
274.68117
274.68102
274.68088
274.68077
274.68068
274.6806
274.68052
274.68045
274.68039
274.68033
274.68026
274.6802
274.68014
274.68008
274.68002
196.20323
196.20304
196.2029
196.20278
196.20266
196.20255
196.20244
196.20233
196.20221
196.20209
196.20197
196.20183
196.20168
196.20151
196.20134
196.20117
196.20102
196.20089
196.20078
196.20068
196.2006
196.20053
196.20046
196.20039
196.20033
196.20027
196.2002
196.20014
196.20008
196.20001
117.72319
117.723
117.72287
117.72276
117.72264
117.72253
117.72242
117.72232
117.72221
117.72209
117.72196
117.72183
117.72168
117.72151
117.72133
117.72117
117.72102
117.72088
117.72077
117.72068
117.7206
117.72052
117.72045
117.72039
117.72033
117.72026
117.7202
117.72014
117.72008
117.72002
39.243439
39.243087
39.242924
39.242793
39.242668
39.242551
39.242438
39.242327
39.242214
39.242097
39.241972
39.241835
39.241682
39.241507
39.241331
39.241165
39.241016
39.240885
39.240774
39.24068
39.240599
39.240526
39.240457
39.240392
39.240329
39.240267
39.240205
39.240144
39.240084
39.240022
)
;

boundaryField
{
    minX
    {
        type            calculated;
        value           nonuniform List<scalar> 
50
(
353.16344
274.68319
196.20323
117.72319
39.243439
353.16323
274.68299
196.20303
117.72299
39.243229
353.16322
274.68298
196.20302
117.72298
39.24322
353.16318
274.68294
196.20298
117.72294
39.243181
353.16318
274.68294
196.20298
117.72294
39.243181
353.16318
274.68294
196.20298
117.72294
39.243181
353.16318
274.68294
196.20298
117.72294
39.243181
353.16322
274.68298
196.20302
117.72298
39.24322
353.16323
274.68299
196.20303
117.72299
39.243229
353.16344
274.68319
196.20323
117.72319
39.243439
)
;
    }
    maxX
    {
        type            calculated;
        value           nonuniform List<scalar> 
50
(
353.16
274.68
196.2
117.72
39.24
353.16
274.68
196.2
117.72
39.24
353.16
274.68
196.2
117.72
39.24
353.16
274.68
196.2
117.72
39.24
353.16
274.68
196.2
117.72
39.24
353.16
274.68
196.2
117.72
39.24
353.16
274.68
196.2
117.72
39.24
353.16
274.68
196.2
117.72
39.24
353.16
274.68
196.2
117.72
39.24
353.16
274.68
196.2
117.72
39.24
)
;
    }
    minY
    {
        type            calculated;
        value           nonuniform List<scalar> 
292
(
392.40344
392.40323
392.40322
392.40318
392.40318
392.40318
392.40318
392.40322
392.40323
392.40344
392.40309
392.403
392.403
392.40297
392.40297
392.40297
392.40297
392.403
392.403
392.40309
392.40292
392.40286
392.40287
392.40285
392.40286
392.40286
392.40285
392.40287
392.40286
392.40292
392.40279
392.40275
392.40277
392.40276
392.40277
392.40277
392.40276
392.40277
392.40275
392.40279
392.40267
392.40264
392.40267
392.40266
392.40268
392.40268
392.40266
392.40267
392.40264
392.40267
392.40255
392.40254
392.40257
392.40258
392.4026
392.4026
392.40258
392.40257
392.40254
392.40255
392.40244
392.40243
392.40248
392.40249
392.40253
392.40253
392.40249
392.40248
392.40243
392.40244
392.40233
392.40233
392.40239
392.40241
392.40248
392.40248
392.40241
392.40239
392.40233
392.40233
392.40221
392.40222
392.40229
392.40234
392.40244
392.40244
392.40234
392.40229
392.40222
392.40221
392.4021
392.40211
392.4022
392.40225
392.40242
392.40242
392.40225
392.4022
392.40211
392.4021
392.40197
392.40198
392.40209
392.40215
392.40245
392.40245
392.40215
392.40209
392.40198
392.40197
392.40183
392.40183
392.40196
392.40198
392.40251
392.40251
392.40198
392.40196
392.40183
392.40183
392.40168
392.40165
392.40178
392.40166
392.40265
392.40265
392.40166
392.40178
392.40165
392.40168
392.40151
392.40142
392.40147
392.40084
392.40084
392.40147
392.40142
392.40151
392.40133
392.40124
392.40123
392.40095
392.40095
392.40123
392.40124
392.40133
392.40117
392.40109
392.40104
392.40085
392.40085
392.40104
392.40109
392.40117
392.40102
392.40095
392.40087
392.40071
392.40071
392.40087
392.40095
392.40102
392.40088
392.40083
392.40073
392.40052
392.40019
392.40019
392.40052
392.40073
392.40083
392.40088
392.40077
392.40073
392.40065
392.40053
392.40041
392.40041
392.40053
392.40065
392.40073
392.40077
392.40068
392.40065
392.4006
392.40052
392.40044
392.40044
392.40052
392.4006
392.40065
392.40068
392.4006
392.40058
392.40055
392.4005
392.40048
392.40048
392.4005
392.40055
392.40058
392.4006
392.40053
392.40051
392.4005
392.40047
392.40048
392.40048
392.40047
392.4005
392.40051
392.40053
392.40046
392.40045
392.40044
392.40043
392.40045
392.40045
392.40043
392.40044
392.40045
392.40046
392.40039
392.40039
392.40039
392.40039
392.4004
392.4004
392.40039
392.40039
392.40039
392.40039
392.40033
392.40033
392.40033
392.40033
392.40035
392.40035
392.40033
392.40033
392.40033
392.40033
392.40027
392.40027
392.40027
392.40028
392.4003
392.4003
392.40028
392.40027
392.40027
392.40027
392.40021
392.40021
392.40021
392.40022
392.40024
392.40024
392.40022
392.40021
392.40021
392.40021
392.40014
392.40014
392.40015
392.40016
392.40018
392.40018
392.40016
392.40015
392.40014
392.40014
392.40008
392.40008
392.40009
392.4001
392.40011
392.40011
392.4001
392.40009
392.40008
392.40008
392.40002
392.40002
392.40003
392.40004
392.40005
392.40005
392.40004
392.40003
392.40002
392.40002
)
;
    }
    minZ
    {
        type            calculated;
        value           nonuniform List<scalar> 
150
(
353.16344
274.68319
196.20323
117.72319
39.243439
353.16309
274.683
196.20304
117.723
39.243087
353.16292
274.68287
196.2029
117.72287
39.242924
353.16279
274.68276
196.20278
117.72276
39.242793
353.16267
274.68264
196.20266
117.72264
39.242668
353.16255
274.68253
196.20255
117.72253
39.242551
353.16244
274.68242
196.20244
117.72242
39.242438
353.16233
274.68232
196.20233
117.72232
39.242327
353.16221
274.68221
196.20221
117.72221
39.242214
353.1621
274.68209
196.20209
117.72209
39.242097
353.16197
274.68196
196.20197
117.72196
39.241972
353.16183
274.68183
196.20183
117.72183
39.241835
353.16168
274.68168
196.20168
117.72168
39.241682
353.16151
274.68151
196.20151
117.72151
39.241507
353.16133
274.68133
196.20134
117.72133
39.241331
353.16117
274.68117
196.20117
117.72117
39.241165
353.16102
274.68102
196.20102
117.72102
39.241016
353.16088
274.68088
196.20089
117.72088
39.240885
353.16077
274.68077
196.20078
117.72077
39.240774
353.16068
274.68068
196.20068
117.72068
39.24068
353.1606
274.6806
196.2006
117.7206
39.240599
353.16053
274.68052
196.20053
117.72052
39.240526
353.16046
274.68045
196.20046
117.72045
39.240457
353.16039
274.68039
196.20039
117.72039
39.240392
353.16033
274.68033
196.20033
117.72033
39.240329
353.16027
274.68026
196.20027
117.72026
39.240267
353.16021
274.6802
196.2002
117.7202
39.240205
353.16014
274.68014
196.20014
117.72014
39.240144
353.16008
274.68008
196.20008
117.72008
39.240084
353.16002
274.68002
196.20001
117.72002
39.240022
)
;
    }
    maxZ
    {
        type            calculated;
        value           nonuniform List<scalar> 
150
(
353.16344
274.68319
196.20323
117.72319
39.243439
353.16309
274.683
196.20304
117.723
39.243087
353.16292
274.68287
196.2029
117.72287
39.242924
353.16279
274.68276
196.20278
117.72276
39.242793
353.16267
274.68264
196.20266
117.72264
39.242668
353.16255
274.68253
196.20255
117.72253
39.242551
353.16244
274.68242
196.20244
117.72242
39.242438
353.16233
274.68232
196.20233
117.72232
39.242327
353.16221
274.68221
196.20221
117.72221
39.242214
353.1621
274.68209
196.20209
117.72209
39.242097
353.16197
274.68196
196.20197
117.72196
39.241972
353.16183
274.68183
196.20183
117.72183
39.241835
353.16168
274.68168
196.20168
117.72168
39.241682
353.16151
274.68151
196.20151
117.72151
39.241507
353.16133
274.68133
196.20134
117.72133
39.241331
353.16117
274.68117
196.20117
117.72117
39.241165
353.16102
274.68102
196.20102
117.72102
39.241016
353.16088
274.68088
196.20089
117.72088
39.240885
353.16077
274.68077
196.20078
117.72077
39.240774
353.16068
274.68068
196.20068
117.72068
39.24068
353.1606
274.6806
196.2006
117.7206
39.240599
353.16053
274.68052
196.20053
117.72052
39.240526
353.16046
274.68045
196.20046
117.72045
39.240457
353.16039
274.68039
196.20039
117.72039
39.240392
353.16033
274.68033
196.20033
117.72033
39.240329
353.16027
274.68026
196.20027
117.72026
39.240267
353.16021
274.6802
196.2002
117.7202
39.240205
353.16014
274.68014
196.20014
117.72014
39.240144
353.16008
274.68008
196.20008
117.72008
39.240084
353.16002
274.68002
196.20001
117.72002
39.240022
)
;
    }
    bottomWater_to_rightSolid
    {
        type            calculated;
        value           nonuniform List<scalar> 
130
(
0.00088489628
0.00077398801
0.00068043035
0.00059907724
0.00052563883
0.00045728178
0.0003921312
0.00032892634
0.0002668455
0.00020540554
0.00014448907
8.4063491e-05
2.1969532e-05
0.00083132584
0.00073187036
0.00065096724
0.00057975538
0.00051355244
0.00045013065
0.00038822129
0.00032710506
0.00026633604
0.00020566635
0.00014499795
8.4085485e-05
2.1498233e-05
0.00072653098
0.00064837397
0.00059513427
0.00054623445
0.00049607281
0.00044348675
0.00038867149
0.00033195048
0.00027362171
0.0002139445
0.00015317429
9.1450905e-05
2.8953274e-05
0.00052194866
0.00053197936
0.00052343175
0.00050447053
0.00047381805
0.00043332492
0.00038589449
0.00033353078
0.00027760811
0.00021916604
0.00015931909
9.8701697e-05
3.8651347e-05
0.00019138905
0.00040752191
0.00044450422
0.00048448668
0.00047706471
0.00044680826
0.0004036996
0.00035273752
0.00029664449
0.00023713857
0.00017519996
0.00011147305
5.257562e-05
0.00019138904
0.00040752188
0.00044450418
0.00048448664
0.00047706466
0.00044680821
0.00040369955
0.00035273747
0.00029664445
0.00023713853
0.00017519994
0.00011147303
5.2575603e-05
0.00052194851
0.00053197923
0.00052343163
0.00050447042
0.00047381794
0.00043332481
0.00038589437
0.00033353067
0.00027760802
0.00021916597
0.00015931903
9.8701663e-05
3.8651321e-05
0.00072653078
0.00064837379
0.0005951341
0.00054623429
0.00049607266
0.0004434866
0.00038867132
0.00033195033
0.00027362159
0.0002139444
0.00015317422
9.1450859e-05
2.8953246e-05
0.00083132561
0.00073187014
0.00065096702
0.00057975518
0.00051355225
0.00045013047
0.00038822111
0.00032710489
0.0002663359
0.00020566623
0.00014499787
8.4085431e-05
2.14982e-05
0.00088489604
0.00077398777
0.0006804301
0.00059907701
0.00052563862
0.00045728158
0.00039213101
0.00032892617
0.00026684535
0.00020540541
0.00014448898
8.4063434e-05
2.19695e-05
)
;
    }
    bottomWater_to_leftSolid
    {
        type            calculated;
        value           nonuniform List<scalar> 
130
(
0.0034387482
0.0030867352
0.0029239825
0.002792597
0.0026683629
0.0025509049
0.0024383395
0.0023270989
0.0022140862
0.0020968286
0.0019717837
0.0018347085
0.0016815459
0.0032294081
0.0029976168
0.0028647378
0.0027541406
0.0026448157
0.0025375964
0.002433088
0.0023297512
0.0022237695
0.0021098402
0.0019818342
0.0018315055
0.0016511514
0.0032197136
0.0029972568
0.0028715828
0.002768685
0.0026680492
0.002570724
0.0024771512
0.0023859345
0.0022947379
0.0021990669
0.0020910442
0.0019565651
0.001783234
0.0031811446
0.002967159
0.0028507746
0.0027565167
0.0026642803
0.0025757729
0.0024926103
0.0024137392
0.0023364601
0.0022540549
0.0021524845
0.0019846455
0.0016562218
0.0031808419
0.0029686378
0.0028557082
0.002766123
0.0026805056
0.0026012738
0.0025323907
0.0024768642
0.0024385177
0.0024234012
0.002445877
0.0025095011
0.0026470062
0.0031808419
0.0029686378
0.0028557082
0.002766123
0.0026805056
0.0026012738
0.0025323907
0.0024768642
0.0024385177
0.0024234012
0.002445877
0.0025095011
0.0026470062
0.0031811446
0.002967159
0.0028507746
0.0027565167
0.0026642803
0.0025757729
0.0024926103
0.0024137392
0.0023364601
0.0022540549
0.0021524844
0.0019846454
0.0016562217
0.0032197136
0.0029972568
0.0028715828
0.002768685
0.0026680492
0.002570724
0.0024771512
0.0023859345
0.0022947379
0.0021990669
0.0020910442
0.001956565
0.0017832339
0.0032294081
0.0029976168
0.0028647378
0.0027541406
0.0026448157
0.0025375964
0.002433088
0.0023297511
0.0022237695
0.0021098402
0.0019818341
0.0018315054
0.0016511512
0.0034387482
0.0030867352
0.0029239825
0.002792597
0.0026683629
0.0025509048
0.0024383394
0.0023270989
0.0022140862
0.0020968286
0.0019717837
0.0018347084
0.0016815458
)
;
    }
    bottomWater_to_heater
    {
        type            calculated;
        value           nonuniform List<scalar> 
92
(
0.0015068872
0.001330969
0.0011654407
0.0010159118
0.0014235727
0.0012423463
0.0010910524
0.00095440233
0.0014692622
0.0012325046
0.0010414843
0.00087388024
353.16084
353.16095
353.16085
353.16071
274.68057
274.68082
274.68079
274.68065
196.20054
196.20081
196.2008
196.20066
117.72057
117.72082
117.72079
117.72065
0.00083659148
39.240837
0.0009493168
39.240949
0.00084549852
39.240845
0.00070888202
39.240709
353.16265
353.16019
274.68295
274.68005
196.20306
196.20005
117.72295
117.72005
39.242647
39.240191
353.16265
353.16084
353.16095
353.16085
353.16019
353.16071
274.68295
274.68057
274.68082
274.68079
274.68005
274.68065
196.20306
196.20054
196.20081
196.2008
196.20005
196.20066
117.72295
117.72057
117.72082
117.72079
117.72005
117.72065
39.242647
39.240837
39.240949
39.240845
39.240191
39.240709
0.00083659121
0.00094931653
0.00084549826
0.00070888179
0.0014692621
0.0012325043
0.0010414841
0.00087388001
0.0014235725
0.0012423461
0.0010910522
0.0009544021
0.001506887
0.0013309688
0.0011654405
0.0010159116
)
;
    }
}


// ************************************************************************* //
