/*--------------------------------*- C++ -*----------------------------------*\
| =========                 |                                                 |
| \\      /  F ield         | OpenFOAM: The Open Source CFD Toolbox           |
|  \\    /   O peration     | Version:  2412                                  |
|   \\  /    A nd           | Website:  www.openfoam.com                      |
|    \\/     M anipulation  |                                                 |
\*---------------------------------------------------------------------------*/
FoamFile
{
    version     2.0;
    format      ascii;
    arch        "LSB;label=32;scalar=64";
    class       volScalarField;
    location    "80/bottomWater";
    object      p_rgh;
}
// * * * * * * * * * * * * * * * * * * * * * * * * * * * * * * * * * * * * * //

dimensions      [1 -1 -2 0 0 0 0];

internalField   nonuniform List<scalar> 
1460
(
0.0034387482
0.0030867352
0.0029239825
0.002792597
0.0026683629
0.0025509048
0.0024383394
0.0023270989
0.0022140862
0.0020968286
0.0019717837
0.0018347084
0.0016815459
0.0015068872
0.001330969
0.0011654407
0.0010159118
0.00088489625
0.00077398799
0.00068043032
0.00059907722
0.00052563881
0.00045728174
0.00039213116
0.00032892631
0.00026684546
0.00020540551
0.00014448905
8.4063475e-05
2.1969529e-05
0.0031941913
0.0030040487
0.0028699084
0.0027554887
0.002643059
0.0025326435
0.0024244879
0.0023163787
0.0022050242
0.0020882435
0.0019646522
0.0018303249
0.0016805356
0.0015093014
0.0013348438
0.00116926
0.0010171931
0.00088333169
0.00077095273
0.00067714489
0.00059601448
0.00052275186
0.00045440564
0.00038913352
0.00032572724
0.00026345351
0.00020193487
0.000140942
7.9970358e-05
1.5342868e-05
0.003230675
0.0030406039
0.0029005388
0.0027810728
0.0026643909
0.0025500505
0.0024383197
0.0023270932
0.0022129821
0.0020935754
0.0019676762
0.0018319095
0.0016817755
0.0015115191
0.0013382388
0.0011739779
0.0010224616
0.00088817538
0.00077568674
0.00068186277
0.00060053284
0.00052692651
0.00045820033
0.00039254784
0.00032873742
0.0002659819
0.00020382226
0.00014200803
7.9949177e-05
1.3394807e-05
0.0031941913
0.0030040487
0.0028699084
0.0027554887
0.002643059
0.0025326435
0.0024244879
0.0023163787
0.0022050242
0.0020882435
0.0019646522
0.0018303249
0.0016805357
0.0015093014
0.0013348438
0.00116926
0.0010171931
0.00088333171
0.00077095275
0.00067714491
0.0005960145
0.00052275188
0.00045440566
0.00038913355
0.00032572726
0.00026345353
0.00020193489
0.00014094202
7.9970368e-05
1.5342869e-05
0.0034387482
0.0030867352
0.0029239825
0.002792597
0.0026683629
0.0025509049
0.0024383395
0.0023270989
0.0022140862
0.0020968286
0.0019717837
0.0018347085
0.0016815459
0.0015068872
0.001330969
0.0011654407
0.0010159118
0.00088489628
0.00077398801
0.00068043035
0.00059907724
0.00052563883
0.00045728178
0.0003921312
0.00032892634
0.0002668455
0.00020540554
0.00014448907
8.4063491e-05
2.1969532e-05
0.0032294081
0.0029976167
0.0028647378
0.0027541406
0.0026448156
0.0025375964
0.002433088
0.0023297511
0.0022237695
0.0021098402
0.0019818341
0.0018315055
0.0016511513
0.0014235726
0.0012423462
0.0010910524
0.00095440229
0.00083132581
0.00073187033
0.00065096721
0.00057975536
0.00051355241
0.00045013063
0.00038822126
0.00032710503
0.00026633602
0.00020566633
0.00014499794
8.4085476e-05
2.1498236e-05
0.0029907828
0.0029231847
0.0028303806
0.0027314324
0.0026296959
0.0025269611
0.0024243466
0.00232156
0.0022170735
0.0021059481
0.0019804113
0.0018318231
0.0016496259
0.0014169263
0.0012316685
0.0010820834
0.00094738052
0.00082628034
0.00072753205
0.00064783326
0.00057794554
0.00051254886
0.00044945617
0.00038757154
0.00032627697
0.00026525099
0.00020427867
0.0001430701
8.0646832e-05
1.3347824e-05
0.0030253621
0.0029586805
0.00286042
0.0027565339
0.0026511794
0.0025452402
0.0024394512
0.0023333885
0.0022264599
0.0021131993
0.0019856194
0.0018347608
0.0016500676
0.0014163352
0.0012318508
0.0010842549
0.00095107452
0.00083078655
0.00073265772
0.00065292886
0.00058268882
0.00051681371
0.00045320704
0.00039081345
0.0003289996
0.00026739996
0.00020572389
0.00014361037
7.9884033e-05
1.0139375e-05
0.0029907828
0.0029231847
0.0028303806
0.0027314324
0.0026296959
0.0025269611
0.0024243466
0.00232156
0.0022170735
0.0021059481
0.0019804113
0.0018318231
0.0016496259
0.0014169263
0.0012316686
0.0010820834
0.00094738055
0.00082628036
0.00072753207
0.00064783328
0.00057794555
0.00051254888
0.00044945619
0.00038757156
0.00032627699
0.00026525101
0.00020427869
0.00014307012
8.0646839e-05
1.334782e-05
0.0032294081
0.0029976168
0.0028647378
0.0027541406
0.0026448157
0.0025375964
0.002433088
0.0023297512
0.0022237695
0.0021098402
0.0019818342
0.0018315055
0.0016511514
0.0014235727
0.0012423463
0.0010910524
0.00095440233
0.00083132584
0.00073187036
0.00065096724
0.00057975538
0.00051355244
0.00045013065
0.00038822129
0.00032710506
0.00026633604
0.00020566635
0.00014499795
8.4085485e-05
2.1498233e-05
0.0032197136
0.0029972568
0.0028715828
0.002768685
0.0026680492
0.002570724
0.0024771512
0.0023859345
0.0022947378
0.0021990668
0.0020910441
0.001956565
0.0017832339
0.0014692622
0.0012325046
0.0010414843
0.0008738802
0.00072653094
0.00064837395
0.00059513425
0.00054623444
0.00049607279
0.00044348673
0.00038867147
0.00033195047
0.0002736217
0.0002139445
0.00015317429
9.1450905e-05
2.895328e-05
0.0029801789
0.0029213818
0.0028365396
0.0027454503
0.0026526828
0.0025604305
0.00247014
0.0023815148
0.0022929571
0.0022014383
0.0020999424
0.0019730188
0.0017950116
0.0014637997
0.0012124623
0.0010146111
0.00084355107
0.00069563399
0.0006229418
0.00057957908
0.00053792909
0.0004922957
0.00044246074
0.0003891762
0.00033316623
0.00027501128
0.00021523139
0.00015406347
9.1184501e-05
2.5328509e-05
0.0030155418
0.0029576897
0.0028674459
0.0027714994
0.0026753362
0.0025802382
0.0024874241
0.0023966146
0.0023058129
0.0022127048
0.0021099644
0.001982585
0.0018050877
0.0014738161
0.0012222277
0.0010219509
0.00084494355
0.00069595277
0.00062538075
0.00058389587
0.00054263371
0.00049682638
0.0004465731
0.00039275433
0.00033618208
0.00027742676
0.00021693589
0.00015493514
9.0981677e-05
2.3275932e-05
0.0029801789
0.0029213818
0.0028365396
0.0027454503
0.0026526828
0.0025604305
0.00247014
0.0023815148
0.0022929571
0.0022014383
0.0020999424
0.0019730188
0.0017950116
0.0014637997
0.0012124623
0.0010146111
0.0008435511
0.00069563402
0.00062294182
0.0005795791
0.0005379291
0.00049229572
0.00044246076
0.00038917622
0.00033316624
0.00027501129
0.0002152314
0.00015406348
9.1184501e-05
2.5328503e-05
0.0032197136
0.0029972568
0.0028715828
0.002768685
0.0026680492
0.002570724
0.0024771512
0.0023859345
0.0022947379
0.0021990669
0.0020910442
0.0019565651
0.001783234
0.0014692622
0.0012325046
0.0010414843
0.00087388024
0.00072653098
0.00064837397
0.00059513427
0.00054623445
0.00049607281
0.00044348675
0.00038867149
0.00033195048
0.00027362171
0.0002139445
0.00015317429
9.1450905e-05
2.8953274e-05
0.0031811446
0.002967159
0.0028507746
0.0027565166
0.0026642803
0.0025757729
0.0024926103
0.0024137392
0.00233646
0.0022540549
0.0021524844
0.0019846454
0.0016562218
0.00083659145
0.00094931677
0.00084549848
0.00070888198
0.00052194862
0.00053197932
0.00052343173
0.00050447052
0.00047381803
0.00043332491
0.00038589448
0.00033353078
0.00027760811
0.00021916605
0.0001593191
9.8701702e-05
3.8651354e-05
0.0029425851
0.0028915062
0.0028164951
0.0027343583
0.0026499739
0.002566375
0.0024861344
0.0024101838
0.0023374404
0.0022635479
0.0021732668
0.002008338
0.0015927043
0.00057372856
0.0008181048
0.00079096972
0.00065337111
0.00047032883
0.0004930053
0.00050323455
0.00049524937
0.00047050796
0.00043367417
0.00038849959
0.00033754283
0.00028255828
0.00022489046
0.00016507491
0.00010392002
4.3009003e-05
0.0029771459
0.0029270532
0.0028468222
0.0027598994
0.0026721604
0.0025856566
0.002502641
0.0024242199
0.0023490048
0.0022720691
0.0021776697
0.0020095749
0.0015702689
0.0005374102
0.00080719377
0.00079836923
0.00066076427
0.00048624683
0.00050423045
0.00051366037
0.00050422804
0.0004775487
0.00043887684
0.00039224914
0.00034007368
0.00028398684
0.00022516147
0.00016469742
0.0001036383
4.3069276e-05
0.0029425851
0.0028915062
0.0028164951
0.0027343583
0.0026499739
0.002566375
0.0024861344
0.0024101839
0.0023374404
0.0022635479
0.0021732669
0.002008338
0.0015927044
0.00057372858
0.00081810482
0.00079096974
0.00065337114
0.00047032886
0.00049300532
0.00050323457
0.00049524939
0.00047050798
0.00043367419
0.00038849961
0.00033754284
0.00028255828
0.00022489047
0.00016507492
0.00010392003
4.3009001e-05
0.0031811446
0.002967159
0.0028507746
0.0027565167
0.0026642803
0.0025757729
0.0024926103
0.0024137392
0.0023364601
0.0022540549
0.0021524845
0.0019846455
0.0016562218
0.00083659148
0.0009493168
0.00084549852
0.00070888202
0.00052194866
0.00053197936
0.00052343175
0.00050447053
0.00047381805
0.00043332492
0.00038589449
0.00033353078
0.00027760811
0.00021916604
0.00015931909
9.8701697e-05
3.8651347e-05
0.0031808419
0.0029686378
0.0028557082
0.0027661229
0.0026805056
0.0026012737
0.0025323906
0.0024768642
0.0024385177
0.0024234011
0.0024458769
0.002509501
0.002647006
0.00019138901
0.00040752188
0.0004445042
0.00048448668
0.00047706471
0.00044680827
0.00040369961
0.00035273754
0.00029664451
0.00023713859
0.00017519998
0.00011147305
5.2575619e-05
0.0029419129
0.0028923907
0.002820676
0.0027431858
0.0026653417
0.0025913377
0.0025258843
0.0024749625
0.0024470932
0.0024559086
0.0025197325
0.0026473546
0.0029453691
5.4210021e-05
0.00037126283
0.00043213602
0.00048744234
0.00049114583
0.00046459162
0.00042152814
0.000368673
0.00031018166
0.00024847052
0.00018490538
0.00012103094
6.441553e-05
0.0029765369
0.0029280114
0.0028510996
0.0027688741
0.0026878379
0.0026113357
0.0025436082
0.0024911489
0.0024626904
0.0024725533
0.0025452907
0.0026975297
0.0030633015
4.9503607e-05
0.00037721625
0.00043998725
0.00049504092
0.00049813173
0.00046902183
0.00042397146
0.00037030972
0.00031137757
0.00024939716
0.00018583752
0.00012242102
6.734976e-05
0.0029419129
0.0028923907
0.002820676
0.0027431858
0.0026653417
0.0025913377
0.0025258843
0.0024749625
0.0024470932
0.0024559086
0.0025197326
0.0026473547
0.0029453692
5.4210043e-05
0.00037126285
0.00043213603
0.00048744235
0.00049114583
0.00046459162
0.00042152814
0.00036867299
0.00031018165
0.0002484705
0.00018490537
0.00012103094
6.4415529e-05
0.0031808419
0.0029686378
0.0028557082
0.002766123
0.0026805056
0.0026012738
0.0025323907
0.0024768642
0.0024385177
0.0024234012
0.002445877
0.0025095011
0.0026470062
0.00019138905
0.00040752191
0.00044450422
0.00048448668
0.00047706471
0.00044680826
0.0004036996
0.00035273752
0.00029664449
0.00023713857
0.00017519996
0.00011147305
5.257562e-05
0.0031808419
0.0029686378
0.0028557082
0.0027661229
0.0026805056
0.0026012737
0.0025323906
0.0024768642
0.0024385177
0.0024234011
0.0024458769
0.002509501
0.0026470061
0.000191389
0.00040752186
0.00044450417
0.00048448664
0.00047706467
0.00044680821
0.00040369954
0.00035273748
0.00029664445
0.00023713854
0.00017519994
0.00011147302
5.2575598e-05
0.0029419129
0.0028923907
0.002820676
0.0027431858
0.0026653417
0.0025913377
0.0025258843
0.0024749625
0.0024470932
0.0024559086
0.0025197325
0.0026473546
0.0029453692
5.4210033e-05
0.00037126281
0.00043213599
0.0004874423
0.00049114578
0.00046459157
0.00042152808
0.00036867294
0.0003101816
0.00024847046
0.00018490534
0.00012103091
6.4415507e-05
0.0029765369
0.0029280114
0.0028510996
0.0027688741
0.0026878379
0.0026113357
0.0025436082
0.0024911489
0.0024626904
0.0024725534
0.0025452907
0.0026975297
0.0030633016
4.9503612e-05
0.00037721623
0.00043998723
0.00049504088
0.00049813168
0.00046902178
0.00042397139
0.00037030966
0.00031137752
0.00024939711
0.00018583748
0.00012242099
6.7349736e-05
0.0029419129
0.0028923907
0.002820676
0.0027431858
0.0026653417
0.0025913377
0.0025258843
0.0024749625
0.0024470932
0.0024559087
0.0025197326
0.0026473547
0.0029453692
5.4210043e-05
0.00037126282
0.000432136
0.0004874423
0.00049114578
0.00046459156
0.00042152807
0.00036867293
0.00031018159
0.00024847046
0.00018490534
0.00012103091
6.4415505e-05
0.0031808419
0.0029686378
0.0028557082
0.002766123
0.0026805056
0.0026012738
0.0025323907
0.0024768642
0.0024385177
0.0024234012
0.002445877
0.0025095011
0.0026470062
0.00019138904
0.00040752188
0.00044450418
0.00048448664
0.00047706466
0.00044680821
0.00040369955
0.00035273747
0.00029664445
0.00023713853
0.00017519994
0.00011147303
5.2575603e-05
0.0031811446
0.002967159
0.0028507746
0.0027565167
0.0026642803
0.0025757729
0.0024926103
0.0024137392
0.00233646
0.0022540549
0.0021524844
0.0019846453
0.0016562216
0.00083659117
0.0009493165
0.00084549823
0.00070888176
0.00052194848
0.00053197922
0.00052343163
0.00050447042
0.00047381794
0.00043332481
0.00038589438
0.00033353068
0.00027760803
0.00021916598
0.00015931903
9.8701655e-05
3.8651318e-05
0.0029425851
0.0028915062
0.0028164951
0.0027343583
0.0026499739
0.002566375
0.0024861344
0.0024101839
0.0023374404
0.0022635479
0.0021732668
0.0020083379
0.0015927042
0.00057372823
0.00081810449
0.00079096943
0.00065337087
0.00047032868
0.0004930052
0.00050323448
0.00049524929
0.00047050788
0.00043367408
0.00038849948
0.0003375427
0.00028255818
0.00022489038
0.00016507485
0.00010391998
4.3008961e-05
0.0029771459
0.0029270532
0.0028468222
0.0027598994
0.0026721604
0.0025856566
0.002502641
0.0024242199
0.0023490048
0.0022720691
0.0021776697
0.0020095749
0.0015702687
0.00053740985
0.00080719344
0.00079836892
0.000660764
0.00048624667
0.00050423035
0.0005136603
0.00050422795
0.00047754861
0.00043887673
0.00039224901
0.00034007353
0.00028398674
0.00022516138
0.00016469735
0.00010363825
4.3069232e-05
0.0029425851
0.0028915062
0.0028164951
0.0027343583
0.0026499739
0.002566375
0.0024861344
0.0024101839
0.0023374404
0.0022635479
0.0021732669
0.002008338
0.0015927042
0.00057372826
0.00081810451
0.00079096944
0.00065337088
0.00047032869
0.0004930052
0.00050323448
0.00049524928
0.00047050787
0.00043367408
0.00038849948
0.0003375427
0.00028255818
0.00022489038
0.00016507485
0.00010391998
4.300896e-05
0.0031811446
0.002967159
0.0028507746
0.0027565167
0.0026642803
0.0025757729
0.0024926103
0.0024137392
0.0023364601
0.0022540549
0.0021524844
0.0019846454
0.0016562217
0.00083659121
0.00094931653
0.00084549826
0.00070888179
0.00052194851
0.00053197923
0.00052343163
0.00050447042
0.00047381794
0.00043332481
0.00038589437
0.00033353067
0.00027760802
0.00021916597
0.00015931903
9.8701663e-05
3.8651321e-05
0.0032197136
0.0029972568
0.0028715828
0.002768685
0.0026680492
0.002570724
0.0024771512
0.0023859345
0.0022947379
0.0021990669
0.0020910441
0.001956565
0.0017832338
0.001469262
0.0012325043
0.001041484
0.00087387998
0.00072653076
0.00064837378
0.00059513409
0.00054623428
0.00049607264
0.00044348658
0.00038867131
0.00033195032
0.00027362158
0.0002139444
0.00015317422
9.1450854e-05
2.8953246e-05
0.0029801789
0.0029213818
0.0028365396
0.0027454503
0.0026526828
0.0025604305
0.00247014
0.0023815148
0.0022929571
0.0022014383
0.0020999424
0.0019730188
0.0017950115
0.0014637995
0.001212462
0.0010146108
0.00084355083
0.00069563378
0.00062294164
0.00057957896
0.00053792895
0.00049229557
0.00044246061
0.00038917599
0.00033316604
0.00027501119
0.00021523131
0.0001540634
9.1184451e-05
2.5328464e-05
0.0030155418
0.0029576897
0.0028674459
0.0027714994
0.0026753362
0.0025802382
0.0024874241
0.0023966146
0.0023058129
0.0022127048
0.0021099644
0.001982585
0.0018050876
0.0014738159
0.0012222275
0.0010219506
0.00084494328
0.00069595252
0.00062538059
0.00058389578
0.00054263358
0.00049682626
0.00044657298
0.00039275406
0.00033618184
0.00027742671
0.00021693581
0.00015493507
9.0981628e-05
2.3275886e-05
0.0029801789
0.0029213818
0.0028365397
0.0027454503
0.0026526829
0.0025604305
0.00247014
0.0023815148
0.0022929571
0.0022014383
0.0020999424
0.0019730188
0.0017950115
0.0014637996
0.0012124621
0.0010146108
0.00084355084
0.00069563379
0.00062294165
0.00057957896
0.00053792896
0.00049229558
0.00044246062
0.000389176
0.00033316604
0.0002750112
0.00021523131
0.00015406341
9.1184454e-05
2.5328462e-05
0.0032197136
0.0029972568
0.0028715828
0.002768685
0.0026680492
0.002570724
0.0024771512
0.0023859345
0.0022947379
0.0021990669
0.0020910442
0.001956565
0.0017832339
0.0014692621
0.0012325043
0.0010414841
0.00087388001
0.00072653078
0.00064837379
0.0005951341
0.00054623429
0.00049607266
0.0004434866
0.00038867132
0.00033195033
0.00027362159
0.0002139444
0.00015317422
9.1450859e-05
2.8953246e-05
0.0032294081
0.0029976168
0.0028647378
0.0027541406
0.0026448156
0.0025375964
0.002433088
0.0023297511
0.0022237695
0.0021098401
0.0019818341
0.0018315054
0.0016511512
0.0014235724
0.001242346
0.0010910522
0.00095440208
0.0008313256
0.00073187012
0.00065096701
0.00057975517
0.00051355224
0.00045013046
0.0003882211
0.00032710488
0.00026633589
0.00020566622
0.00014499786
8.4085425e-05
2.14982e-05
0.0029907828
0.0029231847
0.0028303806
0.0027314324
0.0026296959
0.0025269611
0.0024243466
0.00232156
0.0022170735
0.0021059481
0.0019804113
0.001831823
0.0016496258
0.0014169261
0.0012316683
0.0010820832
0.0009473803
0.00082628013
0.00072753184
0.00064783307
0.00057794536
0.00051254869
0.000449456
0.00038757132
0.00032627681
0.00026525089
0.00020427857
0.00014307002
8.0646783e-05
1.334778e-05
0.0030253621
0.0029586805
0.0028604201
0.0027565339
0.0026511794
0.0025452402
0.0024394512
0.0023333885
0.0022264599
0.0021131993
0.0019856193
0.0018347608
0.0016500675
0.001416335
0.0012318505
0.0010842546
0.00095107428
0.00083078632
0.00073265751
0.00065292868
0.00058268864
0.00051681354
0.00045320688
0.00039081318
0.00032899941
0.00026739988
0.0002057238
0.0001436103
7.9883981e-05
1.0139327e-05
0.0029907829
0.0029231847
0.0028303806
0.0027314324
0.0026296959
0.0025269611
0.0024243466
0.00232156
0.0022170735
0.0021059481
0.0019804113
0.0018318231
0.0016496258
0.0014169261
0.0012316683
0.0010820832
0.00094738031
0.00082628013
0.00072753185
0.00064783307
0.00057794536
0.0005125487
0.00044945601
0.00038757133
0.00032627682
0.0002652509
0.00020427858
0.00014307003
8.0646785e-05
1.3347778e-05
0.0032294081
0.0029976168
0.0028647378
0.0027541406
0.0026448157
0.0025375964
0.002433088
0.0023297511
0.0022237695
0.0021098402
0.0019818341
0.0018315054
0.0016511512
0.0014235725
0.0012423461
0.0010910522
0.0009544021
0.00083132561
0.00073187014
0.00065096702
0.00057975518
0.00051355225
0.00045013047
0.00038822111
0.00032710489
0.0002663359
0.00020566623
0.00014499787
8.4085431e-05
2.14982e-05
0.0034387482
0.0030867352
0.0029239825
0.002792597
0.0026683629
0.0025509048
0.0024383394
0.0023270989
0.0022140862
0.0020968286
0.0019717837
0.0018347084
0.0016815457
0.001506887
0.0013309688
0.0011654404
0.0010159116
0.00088489603
0.00077398776
0.0006804301
0.00059907701
0.00052563861
0.00045728156
0.000392131
0.00032892616
0.00026684532
0.00020540539
0.00014448896
8.4063423e-05
2.1969498e-05
0.0031941913
0.0030040487
0.0028699084
0.0027554887
0.002643059
0.0025326435
0.0024244879
0.0023163787
0.0022050241
0.0020882435
0.0019646522
0.0018303249
0.0016805355
0.0015093012
0.0013348436
0.0011692597
0.0010171928
0.00088333147
0.0007709525
0.00067714465
0.00059601427
0.00052275166
0.00045440545
0.00038913334
0.00032572709
0.00026345337
0.00020193475
0.00014094192
7.9970307e-05
1.5342832e-05
0.003230675
0.0030406039
0.0029005388
0.0027810728
0.0026643909
0.0025500505
0.0024383196
0.0023270932
0.0022129821
0.0020935753
0.0019676761
0.0018319094
0.0016817754
0.0015115189
0.0013382387
0.0011739777
0.0010224614
0.00088817516
0.0007756865
0.00068186253
0.00060053262
0.0005269263
0.00045820013
0.00039254764
0.00032873726
0.00026598177
0.00020382215
0.00014200794
7.9949123e-05
1.3394769e-05
0.0031941913
0.0030040487
0.0028699084
0.0027554887
0.002643059
0.0025326435
0.0024244879
0.0023163787
0.0022050241
0.0020882435
0.0019646522
0.0018303249
0.0016805355
0.0015093012
0.0013348436
0.0011692598
0.0010171928
0.00088333147
0.0007709525
0.00067714466
0.00059601427
0.00052275167
0.00045440546
0.00038913335
0.0003257271
0.00026345338
0.00020193477
0.00014094192
7.997031e-05
1.5342831e-05
0.0034387482
0.0030867352
0.0029239825
0.002792597
0.0026683629
0.0025509048
0.0024383394
0.0023270989
0.0022140862
0.0020968286
0.0019717837
0.0018347084
0.0016815458
0.001506887
0.0013309688
0.0011654405
0.0010159116
0.00088489604
0.00077398777
0.0006804301
0.00059907701
0.00052563862
0.00045728158
0.00039213101
0.00032892617
0.00026684535
0.00020540541
0.00014448898
8.4063434e-05
2.19695e-05
)
;

boundaryField
{
    minX
    {
        type            zeroGradient;
    }
    maxX
    {
        type            fixedValue;
        value           uniform 0;
    }
    minY
    {
        type            fixedFluxPressure;
        gradient        uniform 0;
        value           nonuniform List<scalar> 
292
(
0.0034387482
0.0032294081
0.0032197136
0.0031811446
0.0031808419
0.0031808419
0.0031811446
0.0032197136
0.0032294081
0.0034387482
0.0030867352
0.0029976167
0.0029972568
0.002967159
0.0029686378
0.0029686378
0.002967159
0.0029972568
0.0029976168
0.0030867352
0.0029239825
0.0028647378
0.0028715828
0.0028507746
0.0028557082
0.0028557082
0.0028507746
0.0028715828
0.0028647378
0.0029239825
0.002792597
0.0027541406
0.002768685
0.0027565166
0.0027661229
0.0027661229
0.0027565167
0.002768685
0.0027541406
0.002792597
0.0026683629
0.0026448156
0.0026680492
0.0026642803
0.0026805056
0.0026805056
0.0026642803
0.0026680492
0.0026448156
0.0026683629
0.0025509048
0.0025375964
0.002570724
0.0025757729
0.0026012737
0.0026012737
0.0025757729
0.002570724
0.0025375964
0.0025509048
0.0024383394
0.002433088
0.0024771512
0.0024926103
0.0025323906
0.0025323906
0.0024926103
0.0024771512
0.002433088
0.0024383394
0.0023270989
0.0023297511
0.0023859345
0.0024137392
0.0024768642
0.0024768642
0.0024137392
0.0023859345
0.0023297511
0.0023270989
0.0022140862
0.0022237695
0.0022947378
0.00233646
0.0024385177
0.0024385177
0.00233646
0.0022947379
0.0022237695
0.0022140862
0.0020968286
0.0021098402
0.0021990668
0.0022540549
0.0024234011
0.0024234011
0.0022540549
0.0021990669
0.0021098401
0.0020968286
0.0019717837
0.0019818341
0.0020910441
0.0021524844
0.0024458769
0.0024458769
0.0021524844
0.0020910441
0.0019818341
0.0019717837
0.0018347084
0.0018315055
0.001956565
0.0019846454
0.002509501
0.002509501
0.0019846453
0.001956565
0.0018315054
0.0018347084
0.0016815459
0.0016511513
0.0017832339
0.0016562218
0.002647006
0.0026470061
0.0016562216
0.0017832338
0.0016511512
0.0016815457
0.0015068872
0.0014235726
0.0014692622
0.00083659145
0.00083659117
0.001469262
0.0014235724
0.001506887
0.001330969
0.0012423462
0.0012325046
0.00094931677
0.0009493165
0.0012325043
0.001242346
0.0013309688
0.0011654407
0.0010910524
0.0010414843
0.00084549848
0.00084549823
0.001041484
0.0010910522
0.0011654404
0.0010159118
0.00095440229
0.0008738802
0.00070888198
0.00070888176
0.00087387998
0.00095440208
0.0010159116
0.00088489625
0.00083132581
0.00072653094
0.00052194862
0.00019138901
0.000191389
0.00052194848
0.00072653076
0.0008313256
0.00088489603
0.00077398799
0.00073187033
0.00064837395
0.00053197932
0.00040752188
0.00040752186
0.00053197922
0.00064837378
0.00073187012
0.00077398776
0.00068043032
0.00065096721
0.00059513425
0.00052343173
0.0004445042
0.00044450417
0.00052343163
0.00059513409
0.00065096701
0.0006804301
0.00059907722
0.00057975536
0.00054623444
0.00050447052
0.00048448668
0.00048448664
0.00050447042
0.00054623428
0.00057975517
0.00059907701
0.00052563881
0.00051355241
0.00049607279
0.00047381803
0.00047706471
0.00047706467
0.00047381794
0.00049607264
0.00051355224
0.00052563861
0.00045728174
0.00045013063
0.00044348673
0.00043332491
0.00044680827
0.00044680821
0.00043332481
0.00044348658
0.00045013046
0.00045728156
0.00039213116
0.00038822126
0.00038867147
0.00038589448
0.00040369961
0.00040369954
0.00038589438
0.00038867131
0.0003882211
0.000392131
0.00032892631
0.00032710503
0.00033195047
0.00033353078
0.00035273754
0.00035273748
0.00033353068
0.00033195032
0.00032710488
0.00032892616
0.00026684546
0.00026633602
0.0002736217
0.00027760811
0.00029664451
0.00029664445
0.00027760803
0.00027362158
0.00026633589
0.00026684532
0.00020540551
0.00020566633
0.0002139445
0.00021916605
0.00023713859
0.00023713854
0.00021916598
0.0002139444
0.00020566622
0.00020540539
0.00014448905
0.00014499794
0.00015317429
0.0001593191
0.00017519998
0.00017519994
0.00015931903
0.00015317422
0.00014499786
0.00014448896
8.4063475e-05
8.4085476e-05
9.1450905e-05
9.8701702e-05
0.00011147305
0.00011147302
9.8701655e-05
9.1450854e-05
8.4085425e-05
8.4063423e-05
2.1969529e-05
2.1498236e-05
2.895328e-05
3.8651354e-05
5.2575619e-05
5.2575598e-05
3.8651318e-05
2.8953246e-05
2.14982e-05
2.1969498e-05
)
;
    }
    minZ
    {
        type            fixedFluxPressure;
        gradient        uniform 0;
        value           nonuniform List<scalar> 
150
(
0.0034387482
0.0031941913
0.003230675
0.0031941913
0.0034387482
0.0030867352
0.0030040487
0.0030406039
0.0030040487
0.0030867352
0.0029239825
0.0028699084
0.0029005388
0.0028699084
0.0029239825
0.002792597
0.0027554887
0.0027810728
0.0027554887
0.002792597
0.0026683629
0.002643059
0.0026643909
0.002643059
0.0026683629
0.0025509048
0.0025326435
0.0025500505
0.0025326435
0.0025509049
0.0024383394
0.0024244879
0.0024383197
0.0024244879
0.0024383395
0.0023270989
0.0023163787
0.0023270932
0.0023163787
0.0023270989
0.0022140862
0.0022050242
0.0022129821
0.0022050242
0.0022140862
0.0020968286
0.0020882435
0.0020935754
0.0020882435
0.0020968286
0.0019717837
0.0019646522
0.0019676762
0.0019646522
0.0019717837
0.0018347084
0.0018303249
0.0018319095
0.0018303249
0.0018347085
0.0016815459
0.0016805356
0.0016817755
0.0016805357
0.0016815459
0.0015068872
0.0015093014
0.0015115191
0.0015093014
0.0015068872
0.001330969
0.0013348438
0.0013382388
0.0013348438
0.001330969
0.0011654407
0.00116926
0.0011739779
0.00116926
0.0011654407
0.0010159118
0.0010171931
0.0010224616
0.0010171931
0.0010159118
0.00088489625
0.00088333169
0.00088817538
0.00088333171
0.00088489628
0.00077398799
0.00077095273
0.00077568674
0.00077095275
0.00077398801
0.00068043032
0.00067714489
0.00068186277
0.00067714491
0.00068043035
0.00059907722
0.00059601448
0.00060053284
0.0005960145
0.00059907724
0.00052563881
0.00052275186
0.00052692651
0.00052275188
0.00052563883
0.00045728174
0.00045440564
0.00045820033
0.00045440566
0.00045728178
0.00039213116
0.00038913352
0.00039254784
0.00038913355
0.0003921312
0.00032892631
0.00032572724
0.00032873742
0.00032572726
0.00032892634
0.00026684546
0.00026345351
0.0002659819
0.00026345353
0.0002668455
0.00020540551
0.00020193487
0.00020382226
0.00020193489
0.00020540554
0.00014448905
0.000140942
0.00014200803
0.00014094202
0.00014448907
8.4063475e-05
7.9970358e-05
7.9949177e-05
7.9970368e-05
8.4063491e-05
2.1969529e-05
1.5342868e-05
1.3394807e-05
1.5342869e-05
2.1969532e-05
)
;
    }
    maxZ
    {
        type            fixedFluxPressure;
        gradient        uniform 0;
        value           nonuniform List<scalar> 
150
(
0.0034387482
0.0031941913
0.003230675
0.0031941913
0.0034387482
0.0030867352
0.0030040487
0.0030406039
0.0030040487
0.0030867352
0.0029239825
0.0028699084
0.0029005388
0.0028699084
0.0029239825
0.002792597
0.0027554887
0.0027810728
0.0027554887
0.002792597
0.0026683629
0.002643059
0.0026643909
0.002643059
0.0026683629
0.0025509048
0.0025326435
0.0025500505
0.0025326435
0.0025509048
0.0024383394
0.0024244879
0.0024383196
0.0024244879
0.0024383394
0.0023270989
0.0023163787
0.0023270932
0.0023163787
0.0023270989
0.0022140862
0.0022050241
0.0022129821
0.0022050241
0.0022140862
0.0020968286
0.0020882435
0.0020935753
0.0020882435
0.0020968286
0.0019717837
0.0019646522
0.0019676761
0.0019646522
0.0019717837
0.0018347084
0.0018303249
0.0018319094
0.0018303249
0.0018347084
0.0016815457
0.0016805355
0.0016817754
0.0016805355
0.0016815458
0.001506887
0.0015093012
0.0015115189
0.0015093012
0.001506887
0.0013309688
0.0013348436
0.0013382387
0.0013348436
0.0013309688
0.0011654404
0.0011692597
0.0011739777
0.0011692598
0.0011654405
0.0010159116
0.0010171928
0.0010224614
0.0010171928
0.0010159116
0.00088489603
0.00088333147
0.00088817516
0.00088333147
0.00088489604
0.00077398776
0.0007709525
0.0007756865
0.0007709525
0.00077398777
0.0006804301
0.00067714465
0.00068186253
0.00067714466
0.0006804301
0.00059907701
0.00059601427
0.00060053262
0.00059601427
0.00059907701
0.00052563861
0.00052275166
0.0005269263
0.00052275167
0.00052563862
0.00045728156
0.00045440545
0.00045820013
0.00045440546
0.00045728158
0.000392131
0.00038913334
0.00039254764
0.00038913335
0.00039213101
0.00032892616
0.00032572709
0.00032873726
0.0003257271
0.00032892617
0.00026684532
0.00026345337
0.00026598177
0.00026345338
0.00026684535
0.00020540539
0.00020193475
0.00020382215
0.00020193477
0.00020540541
0.00014448896
0.00014094192
0.00014200794
0.00014094192
0.00014448898
8.4063423e-05
7.9970307e-05
7.9949123e-05
7.997031e-05
8.4063434e-05
2.1969498e-05
1.5342832e-05
1.3394769e-05
1.5342831e-05
2.19695e-05
)
;
    }
    bottomWater_to_rightSolid
    {
        type            fixedFluxPressure;
        gradient        uniform 0;
        value           nonuniform List<scalar> 
130
(
0.00088489628
0.00077398801
0.00068043035
0.00059907724
0.00052563883
0.00045728178
0.0003921312
0.00032892634
0.0002668455
0.00020540554
0.00014448907
8.4063491e-05
2.1969532e-05
0.00083132584
0.00073187036
0.00065096724
0.00057975538
0.00051355244
0.00045013065
0.00038822129
0.00032710506
0.00026633604
0.00020566635
0.00014499795
8.4085485e-05
2.1498233e-05
0.00072653098
0.00064837397
0.00059513427
0.00054623445
0.00049607281
0.00044348675
0.00038867149
0.00033195048
0.00027362171
0.0002139445
0.00015317429
9.1450905e-05
2.8953274e-05
0.00052194866
0.00053197936
0.00052343175
0.00050447053
0.00047381805
0.00043332492
0.00038589449
0.00033353078
0.00027760811
0.00021916604
0.00015931909
9.8701697e-05
3.8651347e-05
0.00019138905
0.00040752191
0.00044450422
0.00048448668
0.00047706471
0.00044680826
0.0004036996
0.00035273752
0.00029664449
0.00023713857