/*--------------------------------*- C++ -*----------------------------------*\
| =========                 |                                                 |
| \\      /  F ield         | OpenFOAM: The Open Source CFD Toolbox           |
|  \\    /   O peration     | Version:  2412                                  |
|   \\  /    A nd           | Website:  www.openfoam.com                      |
|    \\/     M anipulation  |                                                 |
\*---------------------------------------------------------------------------*/
FoamFile
{
    version     2.0;
    format      ascii;
    arch        "LSB;label=32;scalar=64";
    class       surfaceScalarField;
    location    "80/bottomWater";
    object      phi;
}
// * * * * * * * * * * * * * * * * * * * * * * * * * * * * * * * * * * * * * //

dimensions      [1 0 -1 0 0 0 0];

oriented        oriented;

internalField   nonuniform List<scalar> 
3858
(
7.3284579e-05
4.1429608e-06
2.5724599e-06
6.5952851e-05
4.2698038e-06
3.0619245e-06
5.9172773e-05
3.8098796e-06
2.9701985e-06
5.3430569e-05
3.171342e-06
2.5708621e-06
4.8919158e-05
2.5104497e-06
2.0009614e-06
4.5639961e-05
1.9369256e-06
1.3422705e-06
4.353759e-05
1.4863447e-06
6.1602693e-07
4.2573859e-05
1.1545938e-06
-1.9086338e-07
4.2685904e-05
9.4026031e-07
-1.0523046e-06
4.3844848e-05
8.2325771e-07
-1.9822024e-06
4.6017048e-05
7.2864042e-07
-2.9008402e-06
4.9041579e-05
5.984206e-07
-3.6229514e-06
5.2376327e-05
4.0617338e-07
-3.7409214e-06
5.4323596e-05
1.787487e-07
-2.1260181e-06
5.4855524e-05
-3.2199978e-08
-4.9972804e-07
5.4179518e-05
-2.1162954e-07
8.8763578e-07
5.2432975e-05
-2.9124454e-07
2.0377872e-06
4.9739948e-05
-2.951846e-07
2.9882117e-06
4.6543794e-05
-2.7403776e-07
3.4701922e-06
4.3292291e-05
-2.5455534e-07
3.5060583e-06
4.028535e-05
-2.3858409e-07
3.245525e-06
3.7668812e-05
-2.1935927e-07
2.835897e-06
3.5483236e-05
-1.9201242e-07
2.3775885e-06
3.3707949e-05
-1.5490776e-07
1.9301951e-06
3.2292555e-05
-1.086112e-07
1.5240051e-06
3.1176168e-05
-5.5978612e-08
1.1723658e-06
3.0297724e-05
-1.7682959e-09
8.8021234e-07
2.958222e-05
6.5422631e-08
6.5008081e-07
2.8960387e-05
1.4051226e-07
4.8132076e-07
2.8741297e-07
3.787918e-07
7.9635674e-05
1.6743e-06
2.8329864e-06
7.8424026e-05
1.8619304e-06
3.6195215e-06
7.6828987e-05
1.749635e-06
3.6552836e-06
7.5071449e-05
1.5150477e-06
3.4138326e-06
7.3364751e-05
1.2376218e-06
2.979526e-06
7.1920429e-05
9.779708e-07
2.4032766e-06
7.0937148e-05
7.6148197e-07
1.7081436e-06
7.0623714e-05
5.927766e-07
8.7525136e-07
7.1228403e-05
4.7672047e-07
-1.4114943e-07
7.2926108e-05
4.1204468e-07
-1.2864919e-06
7.584154e-05
3.6764802e-07
-2.5544393e-06
7.990322e-05
3.1237586e-07
-3.7756351e-06
8.459312e-05
2.3334443e-07
-4.5170711e-06
8.8187276e-05
1.3297263e-07
-3.5483795e-06
9.0280094e-05
3.2618227e-08
-2.1576367e-06
9.0926287e-05
-6.3234209e-08
-7.9458831e-07
9.0243155e-05
-1.2430278e-07
5.161901e-07
8.8349024e-05
-1.4168154e-07
1.7406285e-06
8.5557351e-05
-1.4139091e-07
2.6590258e-06
8.2242293e-05
-1.3945565e-07
3.1999585e-06
7.8706521e-05
-1.3873906e-07
3.4359273e-06
7.5163459e-05
-1.3649291e-07
3.4601952e-06
7.1760405e-05
-1.2979468e-07
3.340836e-06
6.85932e-05
-1.1665728e-07
3.1289549e-06
6.5716478e-05
-9.5900818e-08
2.8640119e-06
6.3155628e-05
-6.7441207e-08
2.5723119e-06
6.0911635e-05
-3.1792445e-08
2.2740179e-06
5.897823e-05
1.0568781e-08
1.9882584e-06
5.7325248e-05
6.2121947e-08
1.731372e-06
1.4844773e-07
1.5498496e-06
8.0496262e-05
-1.6743e-06
2.8523378e-06
8.0541428e-05
-1.8619304e-06
3.6786953e-06
8.0283778e-05
-1.749635e-06
3.7569195e-06
7.975109e-05
-1.5150477e-06
3.5627831e-06
7.9054488e-05
-1.2376217e-06
3.1718458e-06
7.8377665e-05
-9.7797059e-07
2.6327639e-06
7.7929188e-05
-7.6148167e-07
1.9714407e-06
7.7938409e-05
-5.9277622e-07
1.1763322e-06
7.8702392e-05
-4.7672003e-07
1.8945702e-07
8.0466314e-05
-4.1204425e-07
-9.3983219e-07
8.3393511e-05
-3.6764764e-07
-2.1919013e-06
8.7434169e-05
-3.1237557e-07
-3.4159074e-06
9.2119852e-05
-2.3334425e-07
-4.2189942e-06
9.5856084e-05
-1.3297256e-07
-3.4702866e-06
9.8223268e-05
-3.2618245e-08
-2.3019477e-06
9.9208647e-05
6.3234129e-08
-1.1118471e-06
9.8896212e-05
1.2430266e-07
6.382973e-08
9.7392059e-05
1.4168139e-07
1.22079e-06
9.5003538e-05
1.4139072e-07
2.1057389e-06
9.2053401e-05
1.3945538e-07
2.6712262e-06
8.8795999e-05
1.3873867e-07
2.9799246e-06
8.5414226e-05
1.3649235e-07
3.1087879e-06
8.2044155e-05
1.2979391e-07
3.1104821e-06
7.8786667e-05
1.1665627e-07
3.0241747e-06
7.5714734e-05
9.5899642e-08
2.8801324e-06
7.2881921e-05
6.7439972e-08
2.6979316e-06
7.0325241e-05
3.1791316e-08
2.4930965e-06
6.8064894e-05
-1.0569511e-08
2.2814855e-06
6.6110888e-05
-6.2122362e-08
2.0782496e-06
-1.4844779e-07
1.9337006e-06
7.9635674e-05
-4.1429608e-06
2.8329864e-06
7.8424026e-05
-4.2698038e-06
3.6195215e-06
7.6828987e-05
-3.8098796e-06
3.6552836e-06
7.5071449e-05
-3.171342e-06
3.4138326e-06
7.3364751e-05
-2.5104497e-06
2.979526e-06
7.1920429e-05
-1.9369255e-06
2.4032766e-06
7.0937149e-05
-1.4863446e-06
1.7081436e-06
7.0623715e-05
-1.1545937e-06
8.7525138e-07
7.1228404e-05
-9.4026011e-07
-1.411494e-07
7.2926109e-05
-8.2325751e-07
-1.2864918e-06
7.5841541e-05
-7.2864025e-07
-2.5544393e-06
7.9903221e-05
-5.9842047e-07
-3.7756351e-06
8.4593121e-05
-4.061733e-07
-4.5170709e-06
8.8187277e-05
-1.7874868e-07
-3.5483794e-06
9.0280095e-05
3.2199966e-08
-2.1576366e-06
9.0926288e-05
2.116295e-07
-7.9458821e-07
9.0243156e-05
2.912445e-07
5.161902e-07
8.8349024e-05
2.9518454e-07
1.7406286e-06
8.5557351e-05
2.7403769e-07
2.6590258e-06
8.2242293e-05
2.5455524e-07
3.1999585e-06
7.8706521e-05
2.3858393e-07
3.4359273e-06
7.5163459e-05
2.1935903e-07
3.4601951e-06
7.1760405e-05
1.9201209e-07
3.3408358e-06
6.8593199e-05
1.5490735e-07
3.1289546e-06
6.5716477e-05
1.0861074e-07
2.8640114e-06
6.3155627e-05
5.5978164e-08
2.5723114e-06
6.0911633e-05
1.7679752e-09
2.2740174e-06
5.8978228e-05
-6.542289e-08
1.9882581e-06
5.7325246e-05
-1.4051233e-07
1.7313719e-06
-2.8741287e-07
1.5498497e-06
7.3284579e-05
2.5724599e-06
6.5952851e-05
3.0619245e-06
5.9172773e-05
2.9701985e-06
5.3430569e-05
2.5708621e-06
4.8919158e-05
2.0009614e-06
4.5639962e-05
1.3422705e-06
4.353759e-05
6.1602694e-07
4.257386e-05
-1.9086336e-07
4.2685904e-05
-1.0523046e-06
4.3844849e-05
-1.9822024e-06
4.6017049e-05
-2.9008402e-06
4.904158e-05
-3.6229513e-06
5.2376328e-05
-3.7409213e-06
5.4323597e-05
-2.126018e-06
5.4855525e-05
-4.9972795e-07
5.4179519e-05
8.8763588e-07
5.2432976e-05
2.0377873e-06
4.9739949e-05
2.9882118e-06
4.6543794e-05
3.4701922e-06
4.3292291e-05
3.5060583e-06
4.028535e-05
3.245525e-06
3.7668812e-05
2.8358969e-06
3.5483236e-05
2.3775883e-06
3.3707948e-05
1.9301949e-06
3.2292554e-05
1.5240048e-06
3.1176167e-05
1.1723655e-06
3.0297723e-05
8.8021216e-07
2.9582219e-05
6.5008079e-07
2.8960386e-05
4.8132095e-07
3.7879217e-07
7.6666989e-05
4.3740419e-06
1.5314288e-06
7.2869787e-05
4.7220657e-06
2.1370611e-06
6.9360806e-05
4.2352262e-06
2.2439537e-06
6.6286569e-05
3.6580998e-06
1.9869989e-06
6.3769934e-05
3.0666206e-06
1.4509755e-06
6.1890858e-05
2.5272691e-06
6.9407716e-07
6.0697898e-05
2.0856096e-06
-2.7662205e-07
6.0285929e-05
1.7453844e-06
-1.5242788e-06
6.0809911e-05
1.4520344e-06
-3.0283209e-06
6.2503408e-05
1.1592116e-06
-4.8349112e-06
6.5690206e-05
8.5766621e-07
-6.9453043e-06
7.0608685e-05
5.4856294e-07
-9.0899938e-06
7.6612422e-05
3.141434e-07
-1.0058801e-05
7.8949379e-05
3.6069286e-07
-4.8236688e-06
7.9523988e-05
4.5609346e-07
-1.5304303e-06
7.8893135e-05
4.910855e-07
1.0274033e-06
7.7169878e-05
4.8380046e-07
3.2772439e-06
7.4054525e-05
4.5394532e-07
5.6496196e-06
7.0318887e-05
4.1101712e-07
6.7948131e-06
6.6557152e-05
3.5133412e-07
6.916459e-06
6.3089205e-05
2.8003784e-07
6.4334341e-06
6.0071099e-05
2.1001488e-07
5.643988e-06
5.754053e-05
1.4971733e-07
4.7584402e-06
5.5465875e-05
1.0327402e-07
3.901576e-06
5.3789845e-05
7.2680906e-08
3.1273543e-06
5.244513e-05
5.7925897e-08
2.4591548e-06
5.1364351e-05
5.9988468e-08
1.9010031e-06
5.0481613e-05
8.5440921e-08
1.4473781e-06
4.9720188e-05
1.505506e-07
1.0921953e-06
3.3163384e-07
8.160407e-07
8.3689182e-05
1.789504e-06
1.7283427e-06
8.7402066e-05
2.0670849e-06
2.5616178e-06
9.0533922e-05
1.9399172e-06
2.8187367e-06
9.3143268e-05
1.7342532e-06
2.7283335e-06
9.5341322e-05
1.4986545e-06
2.3494373e-06
9.7296052e-05
1.2698209e-06
1.7059948e-06
9.9217229e-05
1.0739037e-06
7.9867261e-07
0.00010134113
9.1935703e-07
-4.2261797e-07
0.00010393465
7.8406418e-07
-2.0667018e-06
0.00010731676
6.4838905e-07
-4.1577842e-06
0.00011189484
5.0647457e-07
-6.7813269e-06
0.00011811445
3.5513293e-07
-9.8018088e-06
0.00012576712
2.3094758e-07
-1.2086546e-05
0.00013049102
2.0553179e-07
-8.1171213e-06
0.00013376457
2.2760475e-07
-5.2027006e-06
0.00013589367
2.3554667e-07
-2.6681462e-06
0.00013666409
2.25906e-07
3.6600369e-09
0.00013582156
2.0440574e-07
2.8327025e-06
0.00013382172
1.7982441e-07
4.8900576e-06
0.00013115376
1.5154738e-07
6.0677051e-06
0.00012811244
1.193109e-07
6.6379715e-06
0.00012490792
8.6900005e-08
6.787838e-06
0.0001216855
5.7749649e-08
6.6552183e-06
0.00011853565
3.4128513e-08
6.3479479e-06
0.00011551704
1.7717924e-08
5.9375894e-06
0.00011267226
9.4825705e-09
5.4655302e-06
0.00011003531
1.0683552e-08
4.9602793e-06
0.00010764019
2.572071e-08
4.4430981e-06
0.00010552575
6.6954249e-08
3.9294025e-06
1.6512619e-07
3.4276807e-06
8.4678395e-05
-1.789504e-06
1.7529508e-06
8.9871183e-05
-2.0670849e-06
2.6200769e-06
9.4594498e-05
-1.9399171e-06
2.9134388e-06
9.8756881e-05
-1.7342531e-06
2.8689067e-06
0.00010238349
-1.4986544e-06
2.5425441e-06
0.00010560003
-1.2698207e-06
1.9558635e-06
0.00010861131
-1.0739033e-06
1.1079756e-06
0.00011163396
-9.1935649e-07
-7.6068529e-09
0.00011498663
-7.8406351e-07
-1.5950871e-06
0.00011894032
-6.4838831e-07
-3.5967482e-06
0.00012387594
-5.0647384e-07
-6.1145655e-06
0.0001302286
-3.5513231e-07
-9.0583098e-06
0.00013789082
-2.3094714e-07
-1.1419316e-05
0.00014281707
-2.0553157e-07
-7.9854769e-06
0.00014650827
-2.2760477e-07
-5.5379321e-06
0.00014927775
-2.3554692e-07
-3.4102305e-06
0.00015084172
-2.259065e-07
-1.0483301e-06
0.00015085911
-2.0440646e-07
1.6122102e-06
0.00014976331
-1.7982536e-07
3.5611859e-06
0.00014794107
-1.5154854e-07
4.7965624e-06
0.00014562816
-1.193123e-07
5.5314638e-06
0.00014299493
-8.6901685e-08
5.9158201e-06
0.00014016646
-5.7751663e-08
6.0544452e-06
0.00013723034
-3.4130938e-08
6.0285615e-06
0.00013425471
-1.772081e-08
5.8911966e-06
0.00013130186
-9.4859143e-09
5.6697492e-06
0.00012843281
-1.0687358e-08
5.3835238e-06
0.00012572051
-2.5724832e-08
5.0452293e-06
0.00012326973
-6.6958342e-08
4.6629431e-06
-1.6512997e-07
4.237961e-06
8.3689182e-05
-4.3740419e-06
1.7283427e-06
8.7402066e-05
-4.7220657e-06
2.5616178e-06
9.0533922e-05
-4.2352262e-06
2.8187367e-06
9.3143268e-05
-3.6580998e-06
2.7283335e-06
9.5341323e-05
-3.0666205e-06
2.3494373e-06
9.7296053e-05
-2.527269e-06
1.7059948e-06
9.921723e-05
-2.0856095e-06
7.9867261e-07
0.00010134113
-1.7453842e-06
-4.2261796e-07
0.00010393465
-1.4520341e-06
-2.0667017e-06
0.00010731677
-1.1592113e-06
-4.1577842e-06
0.00011189484
-8.5766588e-07
-6.7813267e-06
0.00011811445
-5.4856267e-07
-9.8018086e-06
0.00012576712
-3.1414323e-07
-1.2086546e-05
0.00013049102
-3.6069278e-07
-8.1171211e-06
0.00013376457
-4.5609349e-07
-5.2027003e-06
0.00013589367
-4.9108564e-07
-2.668146e-06
0.0001366641
-4.8380069e-07
3.6601848e-09
0.00013582156
-4.5394565e-07
2.8327027e-06
0.00013382172
-4.1101754e-07
4.8900577e-06
0.00013115376
-3.5133463e-07
6.0677051e-06
0.00012811244
-2.8003844e-07
6.6379714e-06
0.00012490791
-2.1001559e-07
6.7878377e-06
0.0001216855
-1.4971817e-07
6.6552178e-06
0.00011853565
-1.0327504e-07
6.3479472e-06
0.00011551703
-7.2682138e-08
5.9375884e-06
0.00011267226
-5.7927375e-08
5.465529e-06
0.0001100353
-5.9990173e-08
4.960278e-06
0.00010764018
-8.5442751e-08
4.4430967e-06
0.00010552574
-1.5055241e-07
3.9294011e-06
-3.316355e-07
3.4276793e-06
7.6666989e-05
1.5314288e-06
7.2869787e-05
2.1370611e-06
6.9360806e-05
2.2439537e-06
6.6286569e-05
1.9869989e-06
6.3769934e-05
1.4509755e-06
6.1890859e-05
6.9407715e-07
6.0697898e-05
-2.7662205e-07
6.0285929e-05
-1.5242787e-06
6.0809912e-05
-3.0283209e-06
6.2503409e-05
-4.8349111e-06
6.5690207e-05
-6.9453041e-06
7.0608687e-05
-9.0899936e-06
7.6612423e-05
-1.0058801e-05
7.8949381e-05
-4.8236686e-06
7.952399e-05
-1.5304301e-06
7.8893137e-05
1.0274034e-06
7.7169879e-05
3.2772441e-06
7.4054526e-05
5.6496197e-06
7.0318887e-05
6.7948131e-06
6.6557152e-05
6.9164588e-06
6.3089205e-05
6.4334338e-06
6.0071099e-05
5.6439875e-06
5.7540529e-05
4.7584395e-06
5.5465874e-05
3.9015752e-06
5.3789843e-05
3.1273533e-06
5.2445128e-05
2.4591537e-06
5.1364348e-05
1.901002e-06
5.0481609e-05
1.4473771e-06
4.9720183e-05
1.0921946e-06
8.1604016e-07
7.6491962e-05
4.3905039e-06
6.4896318e-07
7.2801852e-05
4.7767548e-06
1.0504164e-06
6.9579491e-05
4.3037494e-06
1.1625655e-06
6.6820908e-05
3.7382584e-06
1.0073231e-06
6.4527292e-05
3.1517682e-06
5.9282283e-07
6.2713858e-05
2.5998695e-06
-9.2357997e-08
6.1361471e-05
2.1083114e-06
-1.0325466e-06
6.0517128e-05
1.6716923e-06
-2.3516276e-06
6.0398397e-05
1.2629825e-06
-4.1725729e-06
6.1455076e-05
8.1029459e-07
-6.7018846e-06
6.4563505e-05
2.1947103e-07
-1.0273204e-05
7.0997762e-05
-5.2179548e-07
-1.5002456e-05
8.112354e-05
-1.0514092e-06
-1.913317e-05
8.4871242e-05
-4.6705456e-07
-8.1043159e-06
8.5922561e-05
1.1189877e-07
-2.6936477e-06
8.5510967e-05
6.3564003e-07
8.03357e-07
8.3518508e-05
1.0890035e-06
4.1806988e-06
7.8288504e-05
1.4804404e-06
9.399184e-06
7.2925373e-05
1.632376e-06
1.0525568e-05
6.8150777e-05
1.5516472e-06
1.0139408e-05
6.4313385e-05
1.346527e-06
8.924299e-06
6.1398748e-05
1.0973561e-06
7.4612688e-06
5.9248461e-05
8.4763236e-07
6.061095e-06
5.7699965e-05
6.2038872e-07
4.8296832e-06
5.6608721e-05
4.2578865e-07
3.7928093e-06
5.5857275e-05
2.6669428e-07
2.9439069e-06
5.5348595e-05
1.4669067e-07
2.2629919e-06
5.5005148e-05
6.8652784e-08
1.7221723e-06
5.4756206e-05
4.719557e-08
1.2939421e-06
1.2168811e-07
9.2943281e-07
8.357657e-05
1.7976126e-06
7.4466402e-07
8.753822e-05
2.0942576e-06
1.2824649e-06
9.1167068e-05
1.9740104e-06
1.5196275e-06
9.4373276e-05
1.7738244e-06
1.4865595e-06
9.7145476e-05
1.5405028e-06
1.1885034e-06
9.9545229e-05
1.3054941e-06
6.0061676e-07
0.00010169189
1.0854967e-06
-3.2517392e-07
0.00010371613
8.8225546e-07
-1.6574235e-06
0.00010582491
6.8892306e-07
-3.6014178e-06
0.00010844591
4.7425919e-07
-6.4427524e-06
0.00011232124
1.9638504e-07
-1.0633571e-05
0.00011879801
-1.955569e-07
-1.6604812e-05
0.00012959162
-5.3432782e-07
-2.3397237e-05
0.00013523118
-3.5159861e-07
-1.3872147e-05
0.00013868721
-6.3938236e-08
-8.4828853e-06
0.00014114192
1.8246942e-07
-4.6696934e-06
0.00014231781
4.2626118e-07
-5.0948515e-07
0.00014003356
6.3921399e-07
5.9581833e-06
0.00013697888
7.6026207e-07
8.8168478e-06
0.00013376311
7.7375499e-07
1.0061365e-05
0.00013072788
7.1878268e-07
1.0300944e-05
0.00012802865
6.2660681e-07
9.9578195e-06
0.00012566793
5.1871229e-07
9.3448613e-06
0.00012360626
4.0905886e-07
8.6209523e-06
0.00012179741
3.0609815e-07
7.8661263e-06
0.00012019668
2.1522772e-07
7.1177258e-06
0.00011877464
1.4024705e-07
6.3887616e-06
0.0001175179
8.5577188e-08
5.682914e-06
0.00011644486
6.1861566e-08
4.9877768e-06
8.7284759e-08
4.2762242e-06
8.4586791e-05
-1.7976126e-06
7.6138451e-07
9.00727e-05
-2.0942576e-06
1.3226839e-06
9.534771e-05
-1.9740104e-06
1.5864496e-06
0.0001001761
-1.7738243e-06
1.5881624e-06
0.00010446497
-1.5405026e-06
1.3346819e-06
0.00010822827
-1.3054939e-06
8.0354984e-07
0.0001115792
-1.0854963e-06
-7.1955383e-08
0.00011465214
-8.8225492e-07
-1.3160405e-06
0.00011759033
-6.8892241e-07
-3.1554296e-06
0.00012079688
-4.742585e-07
-5.8547801e-06
0.0001249523
-1.9638444e-07
-9.8772138e-06
0.00013126443
1.9555727e-07
-1.576156e-05
0.00014170421
5.3432783e-07
-2.2927748e-05
0.00014728723
3.5159834e-07
-1.4271694e-05
0.00015107248
6.3937689e-08
-9.4510582e-06
0.00015411895
-1.8247014e-07
-6.0917652e-06
0.00015609869
-4.262622e-07
-2.175541e-06
0.00015506669
-6.3921533e-07
3.9226345e-06
0.00015329596
-7.6026376e-07
6.8524387e-06
0.0001512474
-7.7375708e-07
8.3926414e-06
0.00014916117
-7.1878521e-07
9.055255e-06
0.00014718488
-6.2660982e-07
9.1453301e-06
0.00014532617
-5.1871584e-07
8.9505838e-06
0.00014356487
-4.09063e-07
8.6079815e-06
0.00014188228
-3.0610292e-07
8.1859936e-06
0.00014026392
-2.1523309e-07
7.7185705e-06
0.00013870828
-1.402529e-07
7.2196636e-06
0.00013723772
-8.5583293e-08
6.6869485e-06
0.00013592367
-6.1867719e-08
6.100716e-06
-8.7290689e-08
5.4268603e-06
8.357657e-05
-4.3905039e-06
7.4466402e-07
8.753822e-05
-4.7767548e-06
1.2824649e-06
9.1167068e-05
-4.3037494e-06
1.5196275e-06
9.4373276e-05
-3.7382583e-06
1.4865595e-06
9.7145476e-05
-3.1517682e-06
1.1885034e-06
9.9545229e-05
-2.5998694e-06
6.0061675e-07
0.00010169189
-2.1083112e-06
-3.2517393e-07
0.00010371613
-1.6716921e-06
-1.6574235e-06
0.00010582491
-1.2629822e-06
-3.6014177e-06
0.00010844591
-8.1029427e-07
-6.4427523e-06
0.00011232124
-2.1947077e-07
-1.0633571e-05
0.00011879801
5.2179561e-07
-1.6604812e-05
0.00012959162
1.0514091e-06
-2.3397237e-05
0.00013523119
4.6705441e-07
-1.3872146e-05
0.00013868721
-1.1189902e-07
-8.4828851e-06
0.00014114193
-6.3564037e-07
-4.6696933e-06
0.00014231781
-1.0890039e-06
-5.0948508e-07
0.00014003356
-1.480441e-06
5.9581833e-06
0.00013697888
-1.6323767e-06
8.8168478e-06
0.00013376311
-1.5516481e-06
1.0061365e-05
0.00013072788
-1.346528e-06
1.0300943e-05
0.00012802865
-1.0973573e-06
9.9578186e-06
0.00012566792
-8.4763376e-07
9.34486e-06
0.00012360625
-6.2039037e-07
8.6209504e-06
0.0001217974
-4.2579059e-07
7.866124e-06
0.00012019667
-2.6669658e-07
7.1177231e-06
0.00011877463
-1.4669334e-07
6.3887585e-06
0.00011751789
-6.8655664e-08
5.6829105e-06
0.00011644485
-4.7198504e-08
4.987773e-06
-1.2169092e-07
4.2762202e-06
7.6491962e-05
6.4896318e-07
7.2801852e-05
1.0504164e-06
6.9579491e-05
1.1625655e-06
6.6820908e-05
1.0073231e-06
6.4527293e-05
5.9282282e-07
6.2713858e-05
-9.2358002e-08
6.1361472e-05
-1.0325466e-06
6.0517129e-05
-2.3516276e-06
6.0398398e-05
-4.1725729e-06
6.1455077e-05
-6.7018845e-06
6.4563506e-05
-1.0273204e-05
7.0997764e-05
-1.5002455e-05
8.1123542e-05
-1.913317e-05
8.4871243e-05
-8.1043158e-06
8.5922562e-05
-2.6936476e-06
8.5510968e-05
8.0335706e-07
8.3518509e-05
4.1806988e-06
7.8288504e-05
9.3991839e-06
7.2925373e-05
1.0525568e-05
6.8150776e-05
1.0139407e-05
6.4313384e-05
8.9242981e-06
6.1398746e-05
7.4612675e-06
5.9248459e-05
6.0610934e-06
5.7699962e-05
4.8296813e-06
5.6608718e-05
3.7928071e-06
5.5857271e-05
2.9439044e-06
5.534859e-05
2.2629893e-06
5.5005142e-05
1.7221697e-06
5.4756198e-05
1.2939395e-06
9.2943033e-07
7.6009239e-05
4.3953741e-06
2.4435025e-07
7.1856507e-05
4.7952666e-06
4.0788211e-07
6.8273859e-05
4.3140672e-06
4.3114546e-07
6.5237827e-05
3.7336393e-06
3.0971657e-07
6.2662181e-05
3.1336567e-06
3.4811822e-08
6.0459264e-05
2.5723943e-06
-4.6183576e-07
5.8574679e-05
2.077501e-06
-1.2254623e-06
5.7002792e-05
1.6195259e-06
-2.3992669e-06
5.5938542e-05
1.1222476e-06
-4.23057e-06
5.5990677e-05
4.3236257e-07
-7.1863827e-06
5.8518077e-05
-6.0749124e-07
-1.2193113e-05
6.6004225e-05
-2.1107765e-06
-2.0377827e-05
7.7841839e-05
-2.4240256e-06
-2.8546759e-05
6.748687e-05
2.2506531e-06
6.1378235e-05
3.4149873e-06
5.9026838e-05
3.1547536e-06
6.0000162e-05
3.207375e-06
5.4937036e-05
3.5392487e-06
1.0923062e-05
5.1234602e-05
3.3767658e-06
1.0851236e-05
4.8742668e-05
2.8714441e-06
9.7598976e-06
4.7709735e-05
2.2685286e-06
7.6887032e-06
4.7557441e-05
1.7037275e-06
5.9098359e-06
4.7915924e-05
1.2075452e-06
4.4950665e-06
4.8570386e-05
7.8031928e-07
3.3949024e-06
4.9382078e-05
4.3604296e-07
2.545074e-06
5.0272512e-05
1.5941162e-07
1.8940612e-06
5.1189973e-05
-5.786416e-08
1.4033948e-06
5.2086071e-05
-2.1795723e-07
1.0440315e-06
5.2902641e-05
-3.090183e-07
7.8639098e-07
-3.6537856e-07
5.4683724e-07
8.3057621e-05
1.7989871e-06
2.8343008e-07
8.6526352e-05
2.1040324e-06
5.0496824e-07
8.9792168e-05
1.9816627e-06
5.8621571e-07
9.2716816e-05
1.7754882e-06
5.20063e-07
9.521106e-05
1.5361501e-06
2.9176608e-07
9.7227319e-05
1.2966155e-06
-1.3986364e-07
9.878617e-05
1.074174e-06
-8.8069818e-07
9.9948996e-05
8.6042795e-07
-2.0611519e-06
0.0001008271
6.273923e-07
-3.9846644e-06
0.00010172701
3.1237079e-07
-7.2226708e-06
0.00010356024
-1.8665983e-07
-1.2887632e-05
0.00010868329
-9.935869e-07
-2.2845054e-05
0.00012036719
-1.4673467e-06
-3.6037816e-05
0.00010797418
7.7151822e-07
0.00010132853
1.5777526e-06
9.8267739e-05
1.54585e-06
9.9398452e-05
1.5671764e-06
9.6544613e-05
1.7187989e-06
1.0632472e-05
9.5478848e-05
1.7367849e-06
1.1522594e-05
9.5285858e-05
1.5601758e-06
1.1565624e-05
9.611599e-05
1.3092515e-06
1.0430089e-05
9.7494435e-05
1.0500366e-06
9.2330653e-06
9.9125351e-05
8.0630736e-07
8.115183e-06
0.00010082415
5.8571913e-07
7.1167557e-06
0.00010248437
3.9158607e-07
6.2503578e-06
0.00010403193
2.2765762e-07
5.5019205e-06
0.0001054292
8.4878624e-08
4.8487469e-06
0.00010665944
-3.026141e-08
4.2649832e-06
0.00010772688
-1.1149137e-07
3.7228113e-06
-1.6478129e-07
3.1507257e-06
8.4067947e-05
-1.7989871e-06
2.9141189e-07
8.907462e-05
-2.1040324e-06
5.2407502e-07
9.4005909e-05
-1.9816627e-06
6.1848663e-07
9.8575045e-05
-1.7754881e-06
5.7000257e-07
0.00010261729
-1.5361499e-06
3.6473895e-07
0.00010603951
-1.2966152e-06
-2.543826e-08
0.00010884403
-1.0741736e-06
-7.2812627e-07
0.00011109639
-8.6042743e-07
-1.8475548e-06
0.00011287764
-6.2739169e-07
-3.6818947e-06
0.00011443333
-3.123702e-07
-6.7857266e-06
0.00011648622
1.8666023e-07
-1.2303419e-05
0.00012100576
9.9358684e-07
-2.226828e-05
0.00013173871
1.4673461e-06
-3.6595386e-05
0.00011901005
-7.7151888e-07
0.0001127145
-1.5777534e-06
0.00010971443
-1.545851e-06
0.00011067325
-1.5671778e-06
0.00010841027
-1.7188009e-06
9.6232141e-06
0.00010814219
-1.7367878e-06
1.0594094e-05
0.00010876886
-1.5601795e-06
1.0886323e-05
0.0001103345
-1.309256e-06
1.0108117e-05
0.00011234809
-1.050042e-06
9.2318191e-06
0.00011449916
-8.0631352e-07
8.4121372e-06
0.00011660993
-5.8572593e-07
7.6686561e-06
0.00011857982
-3.9159337e-07
6.9992836e-06
0.0001203582
-2.2766524e-07
6.3955147e-06
0.00012190654
-8.4886391e-08
5.841086e-06
0.00012321602
3.0254486e-08
5.3169604e-06
0.00012429779
1.1148487e-07
4.7959616e-06
1.6477547e-07
4.2015513e-06
8.3057621e-05
-4.3953741e-06
2.8343008e-07
8.6526352e-05
-4.7952666e-06
5.0496824e-07
8.9792168e-05
-4.3140672e-06
5.862157e-07
9.2716816e-05
-3.7336392e-06
5.2006299e-07
9.521106e-05
-3.1336567e-06
2.9176607e-07
9.7227319e-05
-2.5723942e-06
-1.3986365e-07
9.8786171e-05
-2.0775008e-06
-8.8069819e-07
9.9948997e-05
-1.6195256e-06
-2.0611519e-06
0.0001008271
-1.1222473e-06
-3.9846643e-06
0.00010172701
-4.323623e-07
-7.2226708e-06
0.00010356024
6.0749139e-07
-1.2887632e-05
0.00010868329
2.1107764e-06
-2.2845054e-05
0.00012036719
2.4240253e-06
-3.6037816e-05
0.00010797418
-2.2506534e-06
0.00010132853
-3.4149877e-06
9.826774e-05
-3.1547541e-06
9.9398452e-05
-3.2073756e-06
9.6544612e-05
-3.5392495e-06
1.0632472e-05
9.5478846e-05
-3.376767e-06
1.1522593e-05
9.5285854e-05
-2.8714456e-06
1.1565623e-05
9.6115984e-05
-2.2685303e-06
1.0430088e-05
9.7494428e-05
-1.7037295e-06
9.2330625e-06
9.9125342e-05
-1.2075474e-06
8.1151792e-06
0.00010082414
-7.803217e-07
7.1167509e-06
0.00010248436
-4.3604573e-07
6.250352e-06
0.00010403192
-1.5941471e-07
5.5019139e-06
0.00010542919
5.7860763e-08
4.8487399e-06
0.00010665943
2.179542e-07
4.2649758e-06
0.00010772687
3.0901564e-07
3.7228038e-06
3.6537624e-07
3.1507183e-06
7.6009239e-05
2.4435025e-07
7.1856507e-05
4.0788211e-07
6.8273859e-05
4.3114546e-07
6.5237827e-05
3.0971656e-07
6.2662181e-05
3.4811814e-08
6.0459265e-05
-4.6183577e-07
5.857468e-05
-1.2254623e-06
5.7002793e-05
-2.3992669e-06
5.5938543e-05
-4.23057e-06
5.5990679e-05
-7.1863826e-06
5.8518079e-05
-1.2193113e-05
6.6004226e-05
-2.0377827e-05
7.784184e-05
-2.8546758e-05
6.7486871e-05
6.1378236e-05
5.9026839e-05
6.0000162e-05
5.4937035e-05
1.0923062e-05
5.12346e-05
1.0851235e-05
4.8742666e-05
9.7598964e-06
4.7709732e-05
7.6887011e-06
4.7557437e-05
5.9098331e-06
4.791592e-05
4.4950631e-06
4.8570381e-05
3.3948984e-06
4.9382073e-05
2.5450696e-06
5.0272506e-05
1.8940566e-06
5.1189966e-05
1.40339e-06
5.2086063e-05
1.0440267e-06
5.2902632e-05
7.8638632e-07
5.4683293e-07
7.5841846e-05
4.4025042e-06
4.5815081e-15
7.1438509e-05
4.8112197e-06
4.374658e-15
6.7533395e-05
4.3362591e-06
1.0338108e-14
6.4085443e-05
3.7576687e-06
4.6293961e-14
6.0964713e-05
3.1555415e-06
1.4226126e-13
5.7926083e-05
2.576794e-06
3.1800522e-13
5.4658128e-05
2.0424919e-06
5.6760582e-13
5.0774267e-05
1.4845929e-06
8.4287202e-13
4.5842901e-05
7.0079532e-07
1.0634003e-12
3.9285017e-05
-6.2850039e-07
1.1660463e-12
3.0205513e-05
-3.1136095e-06
1.135222e-12
1.7074888e-05
-7.2472028e-06
1.0592044e-12
-1.1471871e-05
8.8515674e-13
5.1637519e-06
5.7593087e-06
9.6783152e-13
1.1780441e-05
4.2345445e-06
1.9609105e-12
1.8657036e-05
2.8833009e-06
2.3495968e-12
2.4707177e-05
1.6385592e-06
2.3955151e-12
2.9973386e-05
6.4362507e-07
2.2578618e-12
3.4487288e-05
-1.8837957e-08
2.1444446e-12
3.8378229e-05
-4.9604049e-07
1.9136096e-12
4.1707784e-05
-7.8448282e-07
1.5966955e-12
4.4547781e-05
-9.4593641e-07
1.1989402e-12
4.6973078e-05
-1.021903e-06
8.0535935e-13
4.9064825e-05
-1.0477157e-06
3.8756762e-13
5.0904209e-05
-1.0529928e-06
-1.2735501e-13
-1.1462966e-06
-5.789978e-13
8.2883912e-05
1.8020218e-06
4.7567424e-15
8.6087822e-05
2.1122778e-06
5.0407767e-15
8.9016516e-05
1.9937815e-06
1.4589469e-14
9.1505364e-05
1.788883e-06
5.9781427e-14
9.3405099e-05
1.5475724e-06
1.76615e-13
9.454415e-05
1.2978791e-06
3.9829821e-13
9.4651466e-05
1.0544772e-06
7.4422987e-13
9.328389e-05
7.9101619e-07
1.2068401e-12
8.957194e-05
4.2807927e-07
1.7301689e-12
8.1940693e-05
-2.1992649e-07
2.2043268e-12
6.7410246e-05
-1.4707974e-06
2.4573732e-12
4.1058606e-05
-3.7406183e-06
2.3319424e-12
-6.4510839e-06
1.7047487e-12
1.3316925e-05
3.0748541e-06
1.3787466e-12
2.6665078e-05
2.4089832e-06
2.7783996e-12
3.940775e-05
1.7062493e-06
3.3808049e-12
5.0379425e-05
1.0969698e-06
3.4765421e-12
5.968288e-05
5.7323216e-07
3.2313057e-12
6.7587364e-05
1.9185861e-07
2.657059e-12
7.4303167e-05
-9.5089611e-08
1.9475796e-12
8.0060231e-05
-2.9119001e-07
1.1341186e-12
8.5040765e-05
-4.2455069e-07
2.4955564e-13
8.9377446e-05
-5.0983573e-07
-6.8656276e-13
9.3157322e-05
-5.6260748e-07
-1.6959888e-12
9.6430494e-05
-6.0335073e-07
-2.6968699e-12
-6.6369014e-07
-3.5036503e-12
8.3895456e-05
-1.8020218e-06
4.5356441e-15
8.8644086e-05
-2.1122778e-06
4.8199436e-15
9.3250136e-05
-1.9937815e-06
1.4907902e-14
9.7397904e-05
-1.7888829e-06
6.0580772e-14
0.00010085779
-1.5475723e-06
1.7667428e-13
0.00010342811
-1.2978788e-06
3.976205e-13
0.00010480893
-1.0544768e-06
7.4735221e-13
0.00010454341
-7.9101573e-07
1.2380133e-12
0.00010171767
-4.2807878e-07
1.8283866e-12
9.4492089e-05
2.1992687e-07
2.418469e-12
7.9247073e-05
1.4707973e-06
2.8303492e-12
4.9497554e-05
3.7406173e-06
2.8292871e-12
6.4510822e-06
2.1250318e-12
1.5772923e-05
-3.0748567e-06
1.4845588e-12
3.1184984e-05
-2.4089868e-06
2.6104129e-12
4.5483807e-05
-1.706253e-06
2.7247299e-12
5.7785865e-05
-1.0969734e-06
2.2795632e-12
6.8164151e-05
-5.732353e-07
1.4008852e-12
7.6960007e-05
-1.9186127e-07
2.3530172e-13
8.4438487e-05
9.5087684e-08
-1.0596484e-12
9.0855395e-05
2.911887e-07
-2.4658887e-12
9.6401813e-05
4.2455004e-07
-3.9129783e-12
0.00010122323
5.098357e-07
-5.330374e-12
0.00010541498
5.6260801e-07
-6.6569294e-12
0.00010900425
6.0335172e-07
-7.8381294e-12
6.636914e-07
-8.6538538e-12
8.2883912e-05
-4.4025042e-06
4.466713e-15
8.6087822e-05
-4.8112197e-06
4.0225218e-15
8.9016516e-05
-4.3362591e-06
1.1926414e-14
9.1505364e-05
-3.7576687e-06
5.41303e-14
9.34051e-05
-3.1555414e-06
1.6612562e-13
9.4544151e-05
-2.5767939e-06
3.8230555e-13
9.4651467e-05
-2.0424918e-06
7.2379907e-13
9.328389e-05
-1.4845926e-06
1.1876647e-12
8.9571941e-05
-7.0079508e-07
1.7212382e-12
8.1940694e-05
6.2850055e-07
2.2196799e-12
6.7410248e-05
3.1136094e-06
2.5103274e-12
4.1058607e-05
7.2472023e-06
2.4201336e-12
1.1471871e-05
1.7943163e-12
1.3316924e-05
-5.7593098e-06
1.4608224e-12
2.6665074e-05
-4.2345459e-06
2.111983e-12
3.9407744e-05
-2.8833022e-06
1.6063228e-12
5.0379419e-05
-1.6385603e-06
5.6868555e-13
5.9682872e-05
-6.4362589e-07
-8.266096e-13
6.7587355e-05
1.88373e-08
-2.3582479e-12
7.4303158e-05
4.9604015e-07
-3.9550322e-12
8.0060221e-05
7.8448267e-07
-5.5320077e-12
8.5040756e-05
9.4593642e-07
-7.0103301e-12
8.9377437e-05
1.0219032e-06
-8.3136941e-12
9.3157314e-05
1.0477161e-06
-9.3924722e-12
9.6430486e-05
1.0529933e-06
-1.021033e-11
1.1462972e-06
-1.0569576e-11
7.5841846e-05
4.385337e-15
7.1438509e-05
3.5564799e-15
6.7533395e-05
7.9501934e-15
6.4085443e-05
4.0697577e-14
6.0964713e-05
1.3177427e-13
5.7926083e-05
3.020441e-13
5.4658128e-05
5.4991424e-13
5.0774268e-05
8.314341e-13
4.5842902e-05
1.0731297e-12
3.9285018e-05
1.2093418e-12
3.0205514e-05
1.218202e-12
1.7074889e-05
1.1652904e-12
9.7278963e-13
5.1637507e-06
1.0544649e-12
1.1780439e-05
1.3264337e-12
1.8657032e-05
6.6516515e-13
2.4707173e-05
-2.1868562e-13
2.9973382e-05
-1.1274775e-12
3.4487284e-05
-1.9510934e-12
3.8378225e-05
-2.6491842e-12
4.1707781e-05
-3.2325674e-12
4.4547778e-05
-3.6971062e-12
4.6973075e-05
-4.053473e-12
4.9064822e-05
-4.3028917e-12
5.0904206e-05
-4.4363797e-12
-4.3437916e-12
7.5841846e-05
4.4025042e-06
-2.4435024e-07
7.1438509e-05
4.8112197e-06
-4.0788211e-07
6.7533395e-05
4.3362591e-06
-4.3114545e-07
6.4085443e-05
3.7576687e-06
-3.0971649e-07
6.0964713e-05
3.1555415e-06
-3.4811586e-08
5.7926083e-05
2.576794e-06
4.6183636e-07
5.4658128e-05
2.0424919e-06
1.2254634e-06
5.0774268e-05
1.4845929e-06
2.3992685e-06
4.5842901e-05
7.0079534e-07
4.230572e-06
3.9285018e-05
-6.2850032e-07
7.1863849e-06
3.0205513e-05
-3.1136094e-06
1.2193115e-05
1.7074888e-05
-7.2472025e-06
2.0377829e-05
-1.1471871e-05
2.854676e-05
5.1637518e-06
5.7593093e-06
-1.092306e-05
1.1780441e-05
4.2345457e-06
-1.0851233e-05
1.8657036e-05
2.8833025e-06
-9.7598947e-06
2.4707177e-05
1.6385612e-06
-7.6887005e-06
2.9973386e-05
6.4362742e-07
-5.9098335e-06
3.4487287e-05
-1.8834901e-08
-4.4950645e-06
3.8378228e-05
-4.9603769e-07
-3.3949009e-06
4.1707783e-05