/*--------------------------------*- C++ -*----------------------------------*\
| =========                 |                                                 |
| \\      /  F ield         | OpenFOAM: The Open Source CFD Toolbox           |
|  \\    /   O peration     | Version:  2412                                  |
|   \\  /    A nd           | Website:  www.openfoam.com                      |
|    \\/     M anipulation  |                                                 |
\*---------------------------------------------------------------------------*/
FoamFile
{
    version     2.0;
    format      ascii;
    arch        "LSB;label=32;scalar=64";
    class       volScalarField;
    location    "80/bottomWater";
    object      T;
}
// * * * * * * * * * * * * * * * * * * * * * * * * * * * * * * * * * * * * * //

dimensions      [0 0 0 1 0 0 0];

internalField   nonuniform List<scalar> 
1460
(
300
300
300
300
300
299.99999
299.99999
299.99999
299.99999
300
300.00007
300.00149
300.01507
300.02511
300.0259
300.02321
300.02006
300.01671
300.0134
300.0103
300.00758
300.00535
300.00363
300.00237
300.0015
300.00092
300.00055
300.00032
300.00018
300.0001
300
300
300
300
300
300
300
299.99999
299.99999
299.99999
300
300.00024
300.00371
300.00907
300.01385
300.01639
300.0169
300.01693
300.01645
300.01545
300.01399
300.0122
300.01023
300.00824
300.0064
300.00479
300.00346
300.00242
300.00164
300.00108
300
300
300
300
300
300
300
300
300
300
300.00001
300.00009
300.00169
300.00468
300.00804
300.01077
300.01215
300.01325
300.01395
300.01413
300.01374
300.01282
300.01144
300.00977
300.00801
300.0063
300.00477
300.00349
300.00248
300.00174
300.00001
300.00002
300.00003
300.00004
300.00005
300.00006
300.00007
300.00008
300.0001
300.00012
300.00015
300.00032
300.00311
300.02001
300.04039
300.06108
300.07915
300.09339
300.10245
300.10549
300.10253
300.0944
300.08258
300.06879
300.05492
300.04215
300.03135
300.02297
300.0168
300.01269
300.00014
300.00025
300.00037
300.00051
300.00069
300.00094
300.00126
300.00166
300.00215
300.00272
300.00337
300.00505
300.03526
301.02531
301.74066
302.21208
302.46951
302.54141
302.45983
302.25698
301.97364
301.6533
301.33448
301.04428
300.79926
300.60236
300.45126
300.34043
300.26404
300.21731
300
300
300
300
300
299.99999
299.99999
299.99999
299.99999
300.00002
300.00068
300.01522
300.1921
300.30117
300.3292
300.30879
300.28058
300.24668
300.2101
300.17322
300.13813
300.1064
300.07908
300.05663
300.03919
300.0262
300.01695
300.01064
300.0065
300.00389
300
300
300
300
300
300
300
299.99999
299.99999
300
300.00007
300.00257
300.0534
300.11347
300.16674
300.20112
300.20521
300.20563
300.20251
300.19605
300.18647
300.174
300.15894
300.14169
300.1231
300.10388
300.08493
300.06713
300.0512
300.03776
300
300
300
300
300
300
300
300
300
300
300.00003
300.00112
300.02774
300.06283
300.0986
300.12807
300.14203
300.14639
300.14872
300.14886
300.14661
300.14181
300.13441
300.12445
300.11242
300.09877
300.0842
300.0695
300.05546
300.04284
300.00001
300.00002
300.00003
300.00004
300.00005
300.00006
300.00008
300.0001
300.00012
300.00014
300.00021
300.00179
300.03551
300.08376
300.1336
300.17469
300.1971
300.21562
300.22849
300.23413
300.2318
300.22174
300.20502
300.18309
300.15833
300.13245
300.10723
300.08411
300.06411
300.04799
300.00014
300.00026
300.00038
300.00052
300.0007
300.00095
300.00128
300.00172
300.00228
300.00298
300.00403
300.01034
300.09626
300.99527
301.69522
302.21443
302.56963
302.75728
302.78679
302.67343
302.44583
302.14156
301.80095
301.45943
301.14711
300.87856
300.66059
300.49283
300.37075
300.28915
300
300
300
300
300
299.99999
299.99999
299.99999
300
300.00012
300.00386
300.09485
301.45316
302.16481
302.45957
302.40371
302.29298
302.09481
301.84089
301.56236
301.28304
301.02027
300.7854
300.58448
300.42108
300.29346
300.19811
300.12984
300.08278
300.05176
300
300
300
300
300
300
300
299.99999
299.99999
300.00001
300.00051
300.01956
300.50963
300.9538
301.34456
301.63781
301.70874
301.70202
301.6574
301.58239
301.48405
301.36862
301.24145
301.10651
300.96894
300.83196
300.69915
300.5739
300.45922
300.35849
300
300
300
300
300
300
300
300
300
300.00001
300.00022
300.00996
300.30756
300.60435
300.88794
301.13387
301.25947
301.27112
301.2614
301.23297
301.18775
301.1273
301.05328
300.96723
300.87241
300.77141
300.6676
300.56459
300.4659
300.37552
300.00001
300.00002
300.00003
300.00004
300.00006
300.00007
300.00009
300.00011
300.00014
300.00017
300.0005
300.01293
300.34498
300.6448
300.90867
301.11311
301.1787
301.19871
301.1927
301.15856
301.09752
301.01379
300.91335
300.80221
300.68799
300.57559
300.46956
300.37333
300.28919
300.21898
300.00015
300.00028
300.00041
300.00056
300.00078
300.00107
300.00148
300.00204
300.00279
300.00384
300.00643
300.04224
300.6209
301.94193
302.88862
303.49118
303.88113
304.035
303.98102
303.74687
303.37373
302.91338
302.41984
301.93897
301.50808
301.14339
300.85069
300.62675
300.46359
300.35302
300
300
300
300
300
299.99999
299.99999
299.99999
300
300.00042
300.01365
300.36234
306.66906
309.78544
313.1599
316.36912
318.39279
315.59302
312.5072
309.73208
307.42187
305.57285
304.11767
302.98608
302.12301
301.47691
301.00786
300.67597
300.44436
300.28782
300
300
300
300
300
300
299.99999
299.99999
300
300.00004
300.00216
300.09257
302.91117
304.90007
307.15882
309.49892
311.74561
311.28222
310.32476
309.18517
308.02907
306.93897
305.94303
305.0444
304.24357
303.5319
302.90167
302.34725
301.86656
301.46145
300
300
300
300
300
300
300
300
300.00001
300.00002
300.00104
300.05279
301.95512
303.40502
305.00151
306.64966
308.25855
308.07107
307.58782
306.96619
306.29017
305.60914
304.94645
304.31236
303.71745
303.16437
302.65656
302.19646
301.78611
301.43059
300.00001
300.00002
300.00003
300.00005
300.00006
300.00008
300.00011
300.00013
300.00016
300.00022
300.00158
300.06209
302.0037
303.31822
304.79632
306.29926
307.69749
307.27673
306.56545
305.75581
304.94739
304.19206
303.50942
302.90279
302.37453
301.918
301.52743
301.19768
300.92385
300.7024
300.00016
300.0003
300.00044
300.00062
300.00086
300.00121
300.00171
300.00243
300.00344
300.005
300.01165
300.1521
302.91409
305.59736
308.2265
310.41471
311.59747
310.35643
308.78827
307.21246
305.7617
304.49845
303.4404
302.58205
301.91028
301.39668
301.0145
300.73693
300.54023
300.40791
300
300
300
300
299.99999
299.99999
299.99999
299.99999
300.00002
300.00101
300.0329
300.93366
321.937
341.86313
317.09192
310.0649
306.69073
304.61106
303.21454
302.25695
301.58189
301.09844
300.75214
300.50615
300.33412
300.21873
300
300
300
300
300
300
299.99999
299.99999
300
300.00012
300.00606
300.28257
311.29857
335.85284
319.24978
313.20151
310.02283
307.94972
306.41779
305.19026
304.18345
303.34491
302.6452
302.06407
301.58595
301.2017
300
300
300
300
300
300
300
300
300.00001
300.00006
300.00317
300.17439
308.16296
327.78182
315.6755
311.04698
308.52203
306.8413
305.58757
304.58484
303.75775
303.06056
302.46919
301.96831
301.54699
301.19978
300.00001
300.00002
300.00004
300.00005
300.00007
300.00009
300.00012
300.00015
300.00017
300.00026
300.00416
300.19248
307.86152
320.94879
310.85195
307.30987
305.44558
304.22265
303.32469
302.62577
302.0714
301.62275
301.25809
300.96276
300.7258
300.5401
300.00016
300.00031
300.00046
300.00065
300.00092
300.00131
300.00188
300.00272
300.00397
300.00612
300.02038
300.3954
309.94636
320.23449
309.97829
306.76786
304.97675
303.73259
302.81165
302.11728
301.59139
301.1911
300.88829
300.66238
300.49811
300.38556
300
300
300
300
299.99999
299.99999
299.99999
299.99999
300.00002
300.00101
300.0329
300.93366
321.937
341.86329
317.09197
310.0649
306.69072
304.61105
303.21453
302.25695
301.58189
301.09844
300.75214
300.50615
300.33412
300.21873
300
300
300
300
300
300
299.99999
299.99999
300
300.00012
300.00606
300.28257
311.29856
335.85291
319.24982
313.20153
310.02283
307.94972
306.41778
305.19026
304.18345
303.34491
302.6452
302.06407
301.58595
301.2017
300
300
300
300
300
300
300
300
300.00001
300.00006
300.00317
300.17439
308.16295
327.78188
315.67554
311.047
308.52204
306.84131
305.58758
304.58485
303.75775
303.06057
302.46919
301.96831
301.54699
301.19978
300.00001
300.00002
300.00004
300.00005
300.00007
300.00009
300.00012
300.00015
300.00017
300.00026
300.00416
300.19248
307.86151
320.94893
310.85203
307.30991
305.4456
304.22266
303.32469
302.62577
302.07141
301.62276
301.25809
300.96277
300.72581
300.5401
300.00016
300.00031
300.00046
300.00065
300.00092
300.00131
300.00188
300.00272
300.00397
300.00612
300.02038
300.3954
309.94635
320.23476
309.97839
306.76789
304.97677
303.7326
302.81165
302.11728
301.5914
301.1911
300.88829
300.66238
300.49811
300.38556
300
300
300
300
300
299.99999
299.99999
299.99999
300
300.00042
300.01365
300.36234
306.66905
309.78507
313.15969
316.36905
318.39282
315.59437
312.50779
309.73226
307.42191
305.57286
304.11759
302.98606
302.12301
301.47691
301.00786
300.67597
300.44436
300.28782
300
300
300
300
300
300
299.99999
299.99999
300
300.00004
300.00216
300.09257
302.91116
304.90001
307.15878
309.49889
311.74562
311.28274
310.32511
309.18535
308.02914
306.93899
305.94295
305.04437
304.24356
303.5319
302.90167
302.34725
301.86656
301.46145
300
300
300
300
300
300
300
300
300.00001
300.00002
300.00104
300.05279
301.95512
303.40498
305.00148
306.64964
308.25855
308.07142
307.58808
306.96633
306.29023
305.60916
304.9464
304.31234
303.71745
303.16437
302.65657
302.19646
301.78612
301.43059
300.00001
300.00002
300.00003
300.00005
300.00006
300.00008
300.00011
300.00013
300.00016
300.00022
300.00158
300.06209
302.00369
303.31806
304.7962
306.2992
307.69749
307.27768
306.56607
305.75612
304.94751
304.1921
303.50934
302.90276
302.37453
301.918
301.52744
301.19769
300.92385
300.7024
300.00016
300.0003
300.00044
300.00062
300.00086
300.00121
300.00171
300.00243
300.00344
300.005
300.01165
300.1521
302.91407
305.59686
308.22624
310.41462
311.59754
310.35867
308.78924
307.21275
305.76178
304.49847
303.44017
302.58202
301.91029
301.39669
301.0145
300.73694
300.54023
300.40791
300
300
300
300
300
299.99999
299.99999
299.99999
300
300.00012
300.00386
300.09485
301.45315
302.16464
302.45947
302.40366
302.29298
302.09535
301.8412
301.56248
301.28307
301.02027
300.78491
300.58469
300.42119
300.2935
300.19812
300.12984
300.08278
300.05176
300
300
300
300
300
300
300
299.99999
299.99999
300.00001
300.00051
300.01956
300.50963
300.95379
301.34454
301.6378
301.70873
301.70216
301.65752
301.58248
301.48409
301.36863
301.241
301.10666
300.96911
300.83208
300.69921
300.57393
300.45923
300.3585
300
300
300
300
300
300
300
300
300
300.00001
300.00022
300.00996
300.30756
300.60435
300.88794
301.13387
301.25947
301.27117
301.26145
301.23302
301.18777
301.1273
301.05295
300.96734
300.87255
300.77152
300.66768
300.56463
300.46591
300.37553
300.00001
300.00002
300.00003
300.00004
300.00006
300.00007
300.00009
300.00011
300.00014
300.00017
300.0005
300.01293
300.34497
300.64476
300.90864
301.11309
301.1787
301.19896
301.19291
301.1587
301.09759
301.01381
300.91281
300.80238
300.68816
300.57572
300.46963
300.37336
300.2892
300.21898
300.00015
300.00028
300.00041
300.00056
300.00078
300.00107
300.00148
300.00204
300.00279
300.00384
300.00643
300.04224
300.62089
301.94175
302.88852
303.49113
303.88116
304.03629
303.98174
303.74716
303.37382
302.91335
302.41836
301.93968
301.50846
301.14353
300.85073
300.62676
300.4636
300.35302
300
300
300
300
300
299.99999
299.99999
299.99999
299.99999
300.00002
300.00068
300.01522
300.1921
300.30113
300.32918
300.30878
300.28058
300.2468
300.21016
300.17325
300.13814
300.1064
300.07901
300.05666
300.0392
300.0262
300.01695
300.01064
300.0065
300.00389
300
300
300
300
300
300
300
299.99999
299.99999
300
300.00007
300.00257
300.0534
300.11347
300.16673
300.20112
300.20521
300.20566
300.20253
300.19607
300.18648
300.174
300.15886
300.14172
300.12313
300.10391
300.08495
300.06714
300.05121
300.03776
300
300
300
300
300
300
300
300
300
300
300.00003
300.00112
300.02774
300.06283
300.0986
300.12807
300.14203
300.14639
300.14872
300.14886
300.14661
300.14181
300.13435
300.12448
300.11245
300.09879
300.08422
300.06951
300.05546
300.04284
300.00001
300.00002
300.00003
300.00004
300.00005
300.00006
300.00008
300.0001
300.00012
300.00014
300.00021
300.00179
300.03551
300.08375
300.13359
300.17469
300.1971
300.21571
300.22856
300.23417
300.23182
300.22174
300.20484
300.18315
300.15838
300.13249
300.10725
300.08412
300.06411
300.048
300.00014
300.00026
300.00038
300.00052
300.0007
300.00095
300.00128
300.00172
300.00228
300.00298
300.00403
300.01034
300.09625
300.99523
301.69519
302.21442
302.56966
302.7583
302.78732
302.67364
302.4459
302.14154
301.79979
301.46001
301.1474
300.87866
300.66062
300.49284
300.37075
300.28915
300
300
300
300
300
299.99999
299.99999
299.99999
299.99999
300
300.00007
300.00149
300.01507
300.02511
300.0259
300.02321
300.02006
300.01672
300.0134
300.0103
300.00758
300.00535
300.00362
300.00237
300.0015
300.00092
300.00055
300.00032
300.00018
300.0001
300
300
300
300
300
300
300
299.99999
299.99999
299.99999
300
300.00024
300.00371
300.00907
300.01385
300.01639
300.0169
300.01694
300.01645
300.01545
300.01399
300.0122
300.01022
300.00825
300.0064
300.00479
300.00346
300.00242
300.00164
300.00108
300
300
300
300
300
300
300
300
300
300
300.00001
300.00009
300.00169
300.00468
300.00804
300.01077
300.01215
300.01325
300.01395
300.01413
300.01375
300.01282
300.01143
300.00978
300.00801
300.0063
300.00477
300.00349
300.00248
300.00174
300.00001
300.00002
300.00003
300.00004
300.00005
300.00006
300.00007
300.00008
300.0001
300.00012
300.00015
300.00032
300.00311
300.02001
300.04039
300.06108
300.07915
300.09344
300.10248
300.10551
300.10253
300.0944
300.08249
300.06882
300.05494
300.04216
300.03135
300.02297
300.0168
300.01269
300.00014
300.00025
300.00037
300.00051
300.00069
300.00094
300.00126
300.00166
300.00215
300.00272
300.00337
300.00505
300.03525
301.02529
301.74065
302.21207
302.46956
302.5424
302.46022
302.25709
301.97367
301.65328
301.33375
301.0447
300.7994
300.60239
300.45127
300.34044
300.26404
300.21731
)
;

boundaryField
{
    minX
    {
        type            fixedValue;
        value           uniform 300;
    }
    maxX
    {
        type            inletOutlet;
        inletValue      uniform 300;
        value           nonuniform List<scalar> 
50
(
300.0001
300.00108
300.00174
300.01266
300.21696
300.00388
300.03769
300.04275
300.04789
300.28868
300.05165
300.35795
300.37496
300.21856
300.35244
300.28733
301.45962
301.42875
300.70129
300.40725
300.21831
301.19984
301.19786
300.53912
300.38496
300.21831
301.19984
301.19787
300.53912
300.38496
300.28733
301.45962
301.42875
300.7013
300.40725
300.05165
300.35795
300.37496
300.21857
300.35244
300.00388
300.03769
300.04276
300.04789
300.28868
300.0001
300.00108
300.00174
300.01266
300.21697
)
;
    }
    minY
    {
        type            zeroGradient;
    }
    minZ
    {
        type            zeroGradient;
    }
    maxZ
    {
        type            zeroGradient;
    }
    bottomWater_to_rightSolid
    {
        type            compressible::turbulentTemperatureRadCoupledMixed;
        refValue        nonuniform List<scalar> 
130
(
321.14894
318.60288
316.01033
313.5156
311.21976
309.18326
307.43404
305.97707
304.80292
303.89491
303.23435
302.80438
302.59259
323.54332
320.45079
317.37793
314.49669
311.90777
309.65793
307.75786
306.19653
304.95156
303.99652
303.30582
302.85801
302.63791
328.3854
324.03422
319.9272
316.26461
313.11368
310.47169
308.30338
306.56123
305.19598
304.1623
303.4218
302.94476
302.71114
335.62737
328.90302
323.12668
318.35069
314.47159
311.35648
308.88129
306.94026
305.44651
304.33059
303.5388
303.03199
302.78468
344.09202
333.46949
325.72037
319.88515
315.40756
311.94032
309.25167
307.17857
305.60215
304.43442
303.61077
303.08564
302.82997
344.09201
333.46948
325.72037
319.88515
315.40756
311.94032
309.25168
307.17857
305.60215
304.43442
303.61077
303.08564
302.82998
335.62736
328.90301
323.12668
318.35069
314.4716
311.35649
308.8813
306.94026
305.44651
304.33059
303.53881
303.03199
302.78469
328.38542
324.03423
319.92721
316.26463
313.11369
310.47169
308.3034
306.56124
305.19599
304.1623
303.4218
302.94477
302.71115
323.54335
320.45081
317.37795
314.4967
311.90778
309.65794
307.75789
306.19654
304.95157
303.99652
303.30582
302.85801
302.63792
321.14899
318.60292
316.01036
313.51562
311.21978
309.18328
307.43406
305.97708
304.80293
303.89492
303.23435
302.80438
302.5926
)
;
        refGradient     uniform 0;
        valueFraction   uniform 0.99248593;
        source          uniform 0;
        logInterval     -1;
        writePrecision  8;
        updateHeader    1;
        writeToFile     0;
        useUserTime     1;
        kappaMethod     fluidThermo;
        value           nonuniform List<scalar> 
130
(
321.00911
318.48157
315.90697
313.42886
311.14787
309.12427
307.38602
305.93815
304.77135
303.86903
303.2126
302.78529
302.57474
323.38712
320.31804
317.26743
314.40612
311.83437
309.59888
307.71053
306.15858
304.92095
303.97144
303.28467
302.83931
302.62026
328.20241
323.88352
319.8056
316.16773
313.03702
310.41117
308.25554
306.52325
305.16552
304.1374
303.40079
302.92611
302.69342
335.43745
328.75184
323.00707
318.25606
314.39663
311.29698
308.83394
306.90245
305.41606
304.30566
303.51774
303.01326
302.76681
343.9127
333.29294
325.57793
319.7731
315.31981
311.87171
309.19805
307.13658
305.56899
304.40776
303.58861
303.06619
302.8116
343.91269
333.29293
325.57793
319.7731
315.31981
311.87171
309.19805
307.13658
305.56899
304.40776
303.58861
303.06619
302.81161
335.43746
328.75185
323.00707
318.25607
314.39663
311.29698
308.83395
306.90245
305.41607
304.30566
303.51774
303.01326
302.76682
328.20244
323.88354
319.80562
316.16775
313.03703
310.41116
308.25557
306.52326
305.16553
304.13741
303.40079
302.92612
302.69342
323.38716
320.31807
317.26745
314.40614
311.83439
309.59888
307.71055
306.15859
304.92095
303.97145
303.28468
302.83932
302.62026
321.00916
318.48161
315.907
313.42888
311.14788
309.12428
307.38604
305.93816
304.77136
303.86904
303.21261
302.78529
302.57475
)
;
    }
    bottomWater_to_leftSolid
    {
        type            compressible::turbulentTemperatureRadCoupledMixed;
        refValue        nonuniform List<scalar> 
130
(
300.00659
300.00725
300.00859
300.01067
300.01355
300.01729
300.02194
300.02747
300.03377
300.04052
300.04723
300.05313
300.05725
300.00681
300.00751
300.00896
300.01122
300.01439
300.01859
300.02392
300.03045
300.03816
300.04685
300.056
300.06463
300.07109
300.00716
300.00795
300.00957
300.01214
300.0158
300.02078
300.02733
300.0357
300.04616
300.05884
300.07351
300.08924
300.10327
300.00752
300.00838
300.01019
300.01308
300.01728
300.02313
300.03105
300.04163
300.05562
300.07389
300.09744
300.12686
300.15987
300.00774
300.00866
300.01058
300.01368
300.01824
300.02466
300.03355
300.04575
300.06252
300.08573
300.11838
300.16539
300.23196
300.00774
300.00866
300.01058
300.01368
300.01824
300.02466
300.03355
300.04575
300.06252
300.08573
300.11838
300.16539
300.23196
300.00752
300.00838
300.01019
300.01308
300.01728
300.02313
300.03105
300.04163
300.05562
300.07389
300.09744
300.12686
300.15987
300.00716
300.00795
300.00957
300.01214
300.0158
300.02078
300.02733
300.0357
300.04616
300.05884
300.07351
300.08924
300.10327
300.00681
300.00751
300.00896
300.01122
300.01439
300.01859
300.02392
300.03045
300.03816
300.04685
300.056
300.06463
300.07109
300.00659
300.00725
300.00859
300.01067
300.01355
300.01729
300.02194
300.02747
300.03377
300.04052
300.04723
300.05313
300.05725
)
;
        refGradient     uniform 0;
        valueFraction   uniform 0.99248593;
        source          uniform 0;
        logInterval     -1;
        writePrecision  8;
        updateHeader    1;
        writeToFile     0;
        useUserTime     1;
        kappaMethod     fluidThermo;
        value           nonuniform List<scalar> 
130
(
300.00654
300.0072
300.00853
300.01059
300.01345
300.01717
300.02179
300.02728
300.03353
300.04024
300.0469
300.05277
300.05708
300.00676
300.00746
300.0089
300.01114
300.01429
300.01845
300.02375
300.03023
300.03789
300.04652
300.05561
300.06422
300.07128
300.00711
300.00789
300.0095
300.01205
300.01569
300.02064
300.02713
300.03545
300.04584
300.05842
300.07301
300.08889
300.10716
300.00746
300.00832
300.01012
300.01299
300.01716
300.02296
300.03083
300.04134
300.05522
300.07338
300.09679
300.12705
300.18057
300.00768
300.0086
300.01051
300.01358
300.01811
300.02449
300.03331
300.04543
300.06208
300.08514
300.11765
300.16712
300.30494
300.00768
300.0086
300.01051
300.01358
300.01811
300.02449
300.03331
300.04543
300.06208
300.08514
300.11765
300.16712
300.30494
300.00746
300.00832
300.01012
300.01299
300.01716
300.02296
300.03083
300.04134
300.05522
300.07338
300.09679
300.12705
300.18057
300.00711
300.00789
300.0095
300.01205
300.01569
300.02064
300.02713
300.03545
300.04584
300.05842
300.07301
300.08889
300.10716
300.00676
300.00746
300.0089
300.01114
300.01429
300.01845
300.02375
300.03023
300.03789
300.04652
300.05561
300.06422
300.07128
300.00654
300.0072
300.00853
300.01059
300.01345
300.01717
300.02179
300.02728
300.03353
300.04024
300.0469
300.05277
300.05708
)
;
    }
    bottomWater_to_heater
    {
        type            compressible::turbulentTemperatureRadCoupledMixed;
        refValue        nonuniform List<scalar> 
92
(
327.4537
326.75233
325.39162
323.47052
331.29641
330.44471
328.77957
326.40964
339.40126
338.25481
335.95275
332.5657
483.35125
484.11745
484.14965
483.49615
454.21613
455.15809
455.15639
454.31034
428.5554
429.28658
429.08899
428.15425
406.13507
406.43723
405.75381
404.47369
352.57268
387.03807
351.08275
386.63305
347.88458
384.88581
342.70625
382.34101
483.35125
483.49615
454.21613
454.31034
428.5554
428.15425
406.13507
404.47369
387.03807
382.34101
483.35124
483.35124
484.11744
484.14964
483.49614
483.49614
454.21611
454.21611
455.15807
455.15638
454.31034
454.31034
428.55538
428.55538
429.28657
429.08898
428.15425
428.15425
406.13504
406.13504
406.43722
405.7538
404.4737
404.4737
387.03804
387.03804
386.63305
384.88581
382.34103
382.34103
352.57269
351.08276
347.88459
342.70626
339.40126
338.25482
335.95276
332.56571
331.2964
330.44471
328.77958
326.40966
327.45365
326.75232
325.39164
323.47057
)
;
        refGradient     uniform 0;
        valueFraction   uniform 0.99248593;
        source          uniform 0;
        logInterval     -1;
        writePrecision  8;
        updateHeader    1;
        writeToFile     0;
        useUserTime     1;
        kappaMethod     fluidThermo;
        value           nonuniform List<scalar> 
92
(
327.25511
326.56438
325.21744
323.3127
331.06873
330.22868
328.57995
326.23049
339.11978
337.98906
335.70882
332.35015
482.04706
482.83286
482.88892
482.25554
453.09416
454.04601
454.06191
453.23909
427.61501
428.35269
428.16897
427.25334
405.36249
405.67349
405.00649
403.7465
352.2197
386.42611
350.76072
386.04389
347.60301
384.32621
342.47248
381.80941
482.13837
482.43186
453.14224
453.42019
427.65076
427.4
405.39663
403.84603
386.45878
381.87429
482.13835
482.04705
482.83285
482.88892
482.43186
482.25553
453.14222
453.09414
454.04599
454.0619
453.42019
453.23909
427.65074
427.61499
428.35268
428.16896
427.4
427.25335
405.3966
405.36247
405.67347
405.00649
403.84604
403.74651
386.45876
386.42608
386.04388
384.32621
381.8743
381.80943
352.2197
350.76072
347.60301
342.47248
339.11978
337.98906
335.70883
332.35016
331.06872
330.22868
328.57996
326.23052
327.25506
326.56437
325.21746
323.31275
)
;
    }
}


// ************************************************************************* //
