/*--------------------------------*- C++ -*----------------------------------*\
| =========                 |                                                 |
| \\      /  F ield         | OpenFOAM: The Open Source CFD Toolbox           |
|  \\    /   O peration     | Version:  2412                                  |
|   \\  /    A nd           | Website:  www.openfoam.com                      |
|    \\/     M anipulation  |                                                 |
\*---------------------------------------------------------------------------*/
FoamFile
{
    version     2.0;
    format      ascii;
    arch        "LSB;label=32;scalar=64";
    class       volVectorField;
    location    "80/bottomWater";
    object      U;
}
// * * * * * * * * * * * * * * * * * * * * * * * * * * * * * * * * * * * * * //

dimensions      [0 1 -1 0 0 0 0];

internalField   nonuniform List<vector> 
1460
(
(0.00091141361 5.8913234e-05 4.1855688e-05)
(0.00088249957 6.2107771e-05 4.8945866e-05)
(0.00078425622 5.3677617e-05 4.5404574e-05)
(0.00070007134 4.325257e-05 3.8356587e-05)
(0.00063581583 3.320212e-05 3.0047966e-05)
(0.00058776974 2.4911152e-05 2.1722695e-05)
(0.00055433104 1.8753369e-05 1.3729507e-05)
(0.00053509343 1.4531137e-05 5.7590467e-06)
(0.00053006967 1.2047184e-05 -2.3746517e-06)
(0.00053819199 1.0780507e-05 -9.9583864e-06)
(0.0005592212 9.5965468e-06 -1.5643458e-05)
(0.0005924391 7.736732e-06 -1.6984906e-05)
(0.00063515298 4.7576688e-06 -1.0307079e-05)
(0.00066984935 1.357388e-06 1.1297253e-05)
(0.00068533449 -1.9596981e-06 2.8675109e-05)
(0.00068446753 -4.4680065e-06 3.7745699e-05)
(0.00066924461 -5.4649673e-06 4.1772645e-05)
(0.00064106037 -5.2402569e-06 4.3562488e-05)
(0.00060330033 -4.6696232e-06 4.2183735e-05)
(0.00056179984 -4.1396749e-06 3.7931402e-05)
(0.00052181038 -3.6525027e-06 3.2222756e-05)
(0.00048624544 -3.1047708e-06 2.6231671e-05)
(0.00045612223 -2.4415348e-06 2.0643088e-05)
(0.00043141596 -1.6685778e-06 1.5774237e-05)
(0.00041159268 -8.2911242e-07 1.1701797e-05)
(0.00039590326 2.9638528e-09 8.3950738e-06)
(0.00038355735 7.5667334e-07 5.8046099e-06)
(0.00037389527 1.4290591e-06 3.9098492e-06)
(0.00036634637 2.0175631e-06 2.5795678e-06)
(0.00035371303 3.7246541e-06 2.2458807e-06)
(0.00097341543 5.5458423e-05 4.612236e-05)
(0.00099264797 5.9878117e-05 5.9183175e-05)
(0.00097489417 5.5867696e-05 5.8411896e-05)
(0.00094982605 4.8222359e-05 5.3476252e-05)
(0.00092695383 3.9345707e-05 4.6429309e-05)
(0.00090708907 3.1091141e-05 3.8291045e-05)
(0.00089157181 2.4215508e-05 2.9666654e-05)
(0.00088280454 1.8848125e-05 2.0533222e-05)
(0.00088343187 1.5137729e-05 1.0473022e-05)
(0.00089770977 1.3029622e-05 -4.0059253e-07)
(0.00092656036 1.1536312e-05 -1.0436069e-05)
(0.0009707754 9.7156001e-06 -1.6989326e-05)
(0.0010283687 7.2094897e-06 -1.5644086e-05)
(0.0010824071 4.1411732e-06 1.9439222e-06)
(0.0011194199 1.0751425e-06 2.066232e-05)
(0.001136393 -1.7235423e-06 3.436115e-05)
(0.0011355642 -3.443227e-06 4.3249298e-05)
(0.0011196488 -3.9295147e-06 4.8721627e-05)
(0.0010898509 -3.9093633e-06 5.0770141e-05)
(0.0010505999 -3.8513084e-06 4.95493e-05)
(0.0010067346 -3.8386243e-06 4.6034917e-05)
(0.00096175293 -3.7858554e-06 4.1232301e-05)
(0.00091786798 -3.6039342e-06 3.5873105e-05)
(0.0008765041 -3.2344495e-06 3.0448784e-05)
(0.00083855055 -2.6451674e-06 2.5261533e-05)
(0.00080448227 -1.8381755e-06 2.0492694e-05)
(0.0007744723 -8.3704092e-07 1.6290171e-05)
(0.00074849113 3.757291e-07 1.2835717e-05)
(0.00072701056 1.9697884e-06 1.0162023e-05)
(0.00069899631 4.516008e-06 9.4364467e-06)
(0.00097809857 3.3741465e-14 4.6073064e-05)
(0.0010097444 1.1958663e-13 5.9815726e-05)
(0.001009728 3.0909235e-13 5.9859331e-05)
(0.0010013637 6.7011502e-13 5.5717693e-05)
(0.00099254248 1.2544513e-12 4.9278693e-05)
(0.00098374006 2.0570215e-12 4.151858e-05)
(0.00097629785 2.9598758e-12 3.3106365e-05)
(0.00097287656 3.7350336e-12 2.4134483e-05)
(0.00097626018 4.1550989e-12 1.4107724e-05)
(0.00099163849 4.0921087e-12 3.1327916e-06)
(0.0010209629 3.5653196e-12 -7.1951903e-06)
(0.0010650733 2.6967202e-12 -1.4164384e-05)
(0.0011222406 1.7006515e-12 -1.3516687e-05)
(0.0011769814 7.0985273e-13 2.3883519e-06)
(0.0012166647 -1.0576157e-13 1.9630982e-05)
(0.0012379905 -6.5336785e-13 3.2486901e-05)
(0.0012411343 -1.0083305e-12 4.1313126e-05)
(0.0012301269 -1.3396863e-12 4.6866501e-05)
(0.0012054671 -1.7724555e-12 4.9232082e-05)
(0.0011711381 -2.4516086e-12 4.8658442e-05)
(0.0011314041 -3.5146335e-12 4.5992752e-05)
(0.0010892476 -5.0386843e-12 4.2080146e-05)
(0.0010466002 -6.9252389e-12 3.7536921e-05)
(0.0010048491 -8.9292003e-12 3.2782141e-05)
(0.00096504272 -1.0543028e-11 2.8083128e-05)
(0.00092795769 -1.1141317e-11 2.3614771e-05)
(0.00089416538 -1.0090214e-11 1.95385e-05)
(0.00086413337 -7.8156768e-12 1.6060533e-05)
(0.00083864921 -4.4435625e-12 1.325624e-05)
(0.00080600422 -1.1604475e-12 1.2492039e-05)
(0.00097341543 -5.5458423e-05 4.612236e-05)
(0.00099264797 -5.9878116e-05 5.9183175e-05)
(0.00097489417 -5.5867695e-05 5.8411896e-05)
(0.00094982605 -4.8222358e-05 5.3476252e-05)
(0.00092695383 -3.9345705e-05 4.6429309e-05)
(0.00090708907 -3.1091139e-05 3.8291045e-05)
(0.00089157181 -2.4215505e-05 2.9666655e-05)
(0.00088280455 -1.8848121e-05 2.0533222e-05)
(0.00088343187 -1.5137724e-05 1.0473023e-05)
(0.00089770978 -1.3029617e-05 -4.0059229e-07)
(0.00092656037 -1.1536308e-05 -1.0436068e-05)
(0.00097077542 -9.7155967e-06 -1.6989326e-05)
(0.0010283687 -7.2094877e-06 -1.5644085e-05)
(0.0010824072 -4.1411725e-06 1.9439229e-06)
(0.0011194199 -1.0751429e-06 2.0662321e-05)
(0.001136393 1.7235413e-06 3.4361151e-05)
(0.0011355642 3.4432257e-06 4.3249299e-05)
(0.0011196488 3.929513e-06 4.8721628e-05)
(0.0010898509 3.9093612e-06 5.0770141e-05)
(0.0010505999 3.8513055e-06 4.95493e-05)
(0.0010067346 3.8386201e-06 4.6034916e-05)
(0.00096175293 3.7858492e-06 4.12323e-05)
(0.00091786798 3.6039256e-06 3.5873103e-05)
(0.00087650409 3.2344385e-06 3.0448779e-05)
(0.00083855054 2.6451546e-06 2.5261527e-05)
(0.00080448225 1.8381624e-06 2.0492688e-05)
(0.00077447228 8.3702929e-07 1.6290167e-05)
(0.0007484911 -3.7573733e-07 1.2835717e-05)
(0.00072701054 -1.9697923e-06 1.0162026e-05)
(0.00069899628 -4.5160076e-06 9.436453e-06)
(0.00091141361 -5.8913234e-05 4.1855688e-05)
(0.00088249957 -6.2107771e-05 4.8945866e-05)
(0.00078425622 -5.3677617e-05 4.5404574e-05)
(0.00070007134 -4.325257e-05 3.8356587e-05)
(0.00063581583 -3.320212e-05 3.0047966e-05)
(0.00058776974 -2.4911152e-05 2.1722695e-05)
(0.00055433104 -1.8753369e-05 1.3729507e-05)
(0.00053509343 -1.4531136e-05 5.7590471e-06)
(0.00053006967 -1.2047183e-05 -2.3746513e-06)
(0.000538192 -1.0780506e-05 -9.958386e-06)
(0.00055922121 -9.5965462e-06 -1.5643458e-05)
(0.00059243911 -7.7367316e-06 -1.6984906e-05)
(0.00063515299 -4.7576687e-06 -1.0307078e-05)
(0.00066984936 -1.3573881e-06 1.1297254e-05)
(0.0006853345 1.9596981e-06 2.867511e-05)
(0.00068446754 4.4680065e-06 3.77457e-05)
(0.00066924462 5.4649672e-06 4.1772646e-05)
(0.00064106037 5.2402569e-06 4.3562489e-05)
(0.00060330034 4.669623e-06 4.2183736e-05)
(0.00056179984 4.1396745e-06 3.7931402e-05)
(0.00052181038 3.6525019e-06 3.2222756e-05)
(0.00048624544 3.1047696e-06 2.6231671e-05)
(0.00045612222 2.4415332e-06 2.0643086e-05)
(0.00043141596 1.6685761e-06 1.5774235e-05)
(0.00041159267 8.2911088e-07 1.1701795e-05)
(0.00039590325 -2.9648815e-09 8.3950727e-06)
(0.00038355734 -7.5667382e-07 5.8046111e-06)
(0.00037389525 -1.4290584e-06 3.9098531e-06)
(0.00036634635 -2.0175615e-06 2.5795739e-06)
(0.000353713 -3.7246516e-06 2.2458884e-06)
(0.00094638908 6.2182056e-05 4.7755671e-05)
(0.00094106522 6.9471918e-05 6.1060698e-05)
(0.00089228984 6.1476825e-05 6.2033387e-05)
(0.00084629049 5.178667e-05 5.4927613e-05)
(0.00081061756 4.2268337e-05 4.2565352e-05)
(0.00078343495 3.3853353e-05 2.6761969e-05)
(0.00076431932 2.714057e-05 8.1464919e-06)
(0.00075426234 2.2080021e-05 -1.3589696e-05)
(0.00075439629 1.7827051e-05 -3.8618117e-05)
(0.00076755124 1.367899e-05 -6.6659901e-05)
(0.00079719473 9.4450055e-06 -9.6408573e-05)
(0.00084706569 5.2663232e-06 -0.00012333387)
(0.00092198546 2.1472008e-06 -0.00013552481)
(0.0009799431 4.0259065e-06 -9.5500255e-05)
(0.00099750589 5.8872403e-06 -4.9389587e-05)
(0.00099412267 6.6329839e-06 -6.4439512e-06)
(0.0009785026 6.7237399e-06 3.2800665e-05)
(0.00094828598 6.5626572e-06 6.8151434e-05)
(0.00090442594 6.0609699e-06 8.7804935e-05)
(0.00085578439 5.2396762e-06 9.3105419e-05)
(0.00080943989 4.222364e-06 8.8863002e-05)
(0.00076845799 3.2302579e-06 7.9398573e-05)
(0.00073371279 2.4046916e-06 6.7779058e-05)
(0.00070503332 1.80578e-06 5.5890458e-05)
(0.00068176167 1.4450362e-06 4.4782976e-05)
(0.00066306711 1.290181e-06 3.4977996e-05)
(0.00064809707 1.3198795e-06 2.6699812e-05)
(0.00063609818 1.5997117e-06 2.0046723e-05)
(0.00062638851 2.255082e-06 1.5096708e-05)
(0.00061192985 4.6548852e-06 1.1593673e-05)
(0.0010168593 5.8995075e-05 5.3047794e-05)
(0.0010676418 6.6100082e-05 7.1648768e-05)
(0.0011132134 6.1448797e-05 7.5185149e-05)
(0.0011492603 5.4740786e-05 7.1719288e-05)
(0.0011788496 4.72249e-05 6.2957021e-05)
(0.0012043863 3.9982513e-05 4.9814663e-05)
(0.0012280875 3.3792217e-05 3.2625125e-05)
(0.0012527432 2.8887071e-05 1.0933584e-05)
(0.0012820038 2.459508e-05 -1.6349556e-05)
(0.0013181817 2.0282651e-05 -4.9633979e-05)
(0.0013667019 1.5786431e-05 -8.8357578e-05)
(0.0014329633 1.0995684e-05 -0.00012916709)
(0.0015232892 7.079065e-06 -0.00015991164)
(0.0016065758 6.3608985e-06 -0.00014086861)
(0.0016580639 7.152056e-06 -0.00010572466)
(0.0016900124 7.4580544e-06 -6.6090149e-05)
(0.0017075924 7.1950792e-06 -2.4773084e-05)
(0.0017072526 6.5361984e-06 1.7500043e-05)
(0.0016889742 5.7876221e-06 5.011161e-05)
(0.0016584324 4.8962559e-06 7.1288195e-05)
(0.0016215212 3.8699611e-06 8.3262606e-05)
(0.0015817609 2.838204e-06 8.8513765e-05)
(0.0015411795 1.9088899e-06 8.9047741e-05)
(0.0015010931 1.1513271e-06 8.6362942e-05)
(0.0014623691 6.1772975e-07 8.1541336e-05)
(0.0014256052 3.4247268e-07 7.5360066e-05)
(0.001391269 3.7399018e-07 6.8390959e-05)
(0.001359849 8.3556119e-07 6.1124841e-05)
(0.0013320169 2.0624393e-06 5.4070745e-05)
(0.0012977601 4.8595986e-06 4.7740639e-05)
(0.001022496 4.0848854e-14 5.3754849e-05)
(0.0010877387 1.4795607e-13 7.315107e-05)
(0.0011536534 3.8169526e-13 7.7465899e-05)
(0.001210155 8.1782456e-13 7.4971425e-05)
(0.0012585378 1.5336858e-12 6.724506e-05)
(0.0013008601 2.555221e-12 5.5131364e-05)
(0.0013392414 3.8310582e-12 3.896432e-05)
(0.001376205 5.185648e-12 1.8416876e-05)
(0.0014159005 6.3491544e-12 -7.6764983e-06)
(0.0014605589 6.9811838e-12 -3.9922201e-05)
(0.0015148798 6.8402709e-12 -7.7794407e-05)
(0.0015842024 5.8488005e-12 -0.00011834262)
(0.0016744673 4.1556896e-12 -0.0001508156)
(0.0017586001 2.1862664e-12 -0.00013851297)
(0.0018141833 5.8428168e-14 -0.00011040434)
(0.0018525786 -2.2454878e-12 -7.654549e-05)
(0.0018796604 -4.6347057e-12 -3.9248251e-05)
(0.0018896352 -6.7973007e-12 -1.7484496e-07)
(0.0018825734 -8.9549235e-12 3.0908933e-05)
(0.001863198 -1.1190463e-11 5.2365284e-05)
(0.0018363237 -1.3612547e-11 6.6211507e-05)
(0.0018047964 -1.6433492e-11 7.4479074e-05)
(0.001770291 -1.992668e-11 7.872928e-05)
(0.0017339972 -2.432852e-11 8.0076445e-05)
(0.0016968353 -2.9542318e-11 7.9287281e-05)
(0.0016595919 -3.4908153e-11 7.6895143e-05)
(0.0016230293 -3.8916242e-11 7.3287923e-05)
(0.0015880446 -4.0190423e-11 6.8806069e-05)
(0.0015559183 -3.8443076e-11 6.3855269e-05)
(0.0015162935 -3.4513227e-11 5.8874304e-05)
(0.0010168593 -5.8995075e-05 5.3047794e-05)
(0.0010676418 -6.6100081e-05 7.1648768e-05)
(0.0011132134 -6.1448797e-05 7.5185149e-05)
(0.0011492603 -5.4740785e-05 7.1719288e-05)
(0.0011788496 -4.7224898e-05 6.2957021e-05)
(0.0012043863 -3.998251e-05 4.9814663e-05)
(0.0012280875 -3.3792213e-05 3.2625126e-05)
(0.0012527432 -2.8887065e-05 1.0933584e-05)
(0.0012820038 -2.4595072e-05 -1.6349555e-05)
(0.0013181817 -2.0282642e-05 -4.9633978e-05)
(0.0013667019 -1.5786423e-05 -8.8357577e-05)
(0.0014329633 -1.0995677e-05 -0.00012916709)
(0.0015232892 -7.0790601e-06 -0.00015991163)
(0.0016065758 -6.3608961e-06 -0.00014086861)
(0.001658064 -7.1520564e-06 -0.00010572466)
(0.0016900125 -7.4580578e-06 -6.6090145e-05)
(0.0017075924 -7.1950854e-06 -2.477308e-05)
(0.0017072526 -6.5362073e-06 1.7500046e-05)
(0.0016889743 -5.7876335e-06 5.0111612e-05)
(0.0016584324 -4.8962698e-06 7.1288197e-05)
(0.0016215212 -3.8699776e-06 8.3262607e-05)
(0.0015817609 -2.8382236e-06 8.8513764e-05)
(0.0015411795 -1.9089134e-06 8.9047737e-05)
(0.001501093 -1.1513556e-06 8.6362935e-05)
(0.001462369 -6.1776406e-07 8.1541327e-05)
(0.0014256051 -3.4251318e-07 7.5360055e-05)
(0.0013912689 -3.740358e-07 6.8390946e-05)
(0.0013598489 -8.3560932e-07 6.1124829e-05)
(0.0013320168 -2.0624866e-06 5.4070736e-05)
(0.0012977599 -4.8596421e-06 4.7740634e-05)
(0.00094638908 -6.2182056e-05 4.7755671e-05)
(0.00094106522 -6.9471918e-05 6.1060698e-05)
(0.00089228984 -6.1476825e-05 6.2033387e-05)
(0.00084629049 -5.178667e-05 5.4927613e-05)
(0.00081061756 -4.2268337e-05 4.2565352e-05)
(0.00078343496 -3.3853352e-05 2.6761969e-05)
(0.00076431932 -2.7140569e-05 8.146492e-06)
(0.00075426235 -2.2080019e-05 -1.3589695e-05)
(0.0007543963 -1.7827049e-05 -3.8618117e-05)
(0.00076755126 -1.3678988e-05 -6.66599e-05)
(0.00079719475 -9.4450042e-06 -9.6408572e-05)
(0.00084706571 -5.2663225e-06 -0.00012333387)
(0.00092198548 -2.1472006e-06 -0.00013552481)
(0.00097994312 -4.0259066e-06 -9.5500252e-05)
(0.00099750591 -5.8872407e-06 -4.9389584e-05)
(0.00099412269 -6.6329846e-06 -6.4439483e-06)
(0.00097850262 -6.7237407e-06 3.2800667e-05)
(0.00094828599 -6.5626583e-06 6.8151436e-05)
(0.00090442595 -6.0609712e-06 8.7804937e-05)
(0.00085578439 -5.2396775e-06 9.3105419e-05)
(0.00080943989 -4.2223654e-06 8.8863001e-05)
(0.00076845799 -3.2302594e-06 7.939857e-05)
(0.00073371279 -2.4046931e-06 6.7779054e-05)
(0.00070503331 -1.8057816e-06 5.5890452e-05)
(0.00068176165 -1.4450382e-06 4.4782968e-05)
(0.00066306708 -1.2901837e-06 3.4977987e-05)
(0.00064809703 -1.3198838e-06 2.6699804e-05)
(0.00063609813 -1.5997173e-06 2.0046719e-05)
(0.00062638845 -2.2550879e-06 1.5096709e-05)
(0.00061192978 -4.6548905e-06 1.1593678e-05)
(0.00094512553 6.2345451e-05 1.362296e-05)
(0.00093854605 7.0122449e-05 2.2356785e-05)
(0.00089286592 6.2353023e-05 2.5074955e-05)
(0.00085111209 5.2843526e-05 2.2155174e-05)
(0.00081909089 4.3406774e-05 1.3983748e-05)
(0.00079394892 3.4825106e-05 7.8765427e-07)
(0.00077433297 2.7424172e-05 -1.7517929e-05)
(0.00076041977 2.1065989e-05 -4.1250515e-05)
(0.00075380536 1.5241149e-05 -7.1587312e-05)
(0.00075824357 8.8489647e-06 -0.00011003581)
(0.00078144074 5.315573e-07 -0.00015771425)
(0.00083557544 -9.3874178e-06 -0.0002085531)
(0.00095300692 -1.5420876e-05 -0.0002284786)
(0.0010520173 -4.8381033e-06 -7.2140398e-05)
(0.001075915 4.3783987e-06 -3.0387805e-06)
(0.0010768691 1.1649691e-05 4.7789738e-05)
(0.0010617355 1.7394208e-05 9.2949075e-05)
(0.0010176773 2.2372354e-05 0.0001467232)
(0.00094739027 2.3282977e-05 0.00016597258)
(0.00088011787 2.0932765e-05 0.00016504119)
(0.00082513199 1.6998766e-05 0.00015159033)
(0.00078304432 1.2783058e-05 0.00013217599)
(0.00075186567 8.9313887e-06 0.00011125487)
(0.00072924216 5.719228e-06 9.1283852e-05)
(0.00071315745 3.2107726e-06 7.3447051e-05)
(0.00070196995 1.3656068e-06 5.8174698e-05)
(0.00069437012 1.1290858e-07 4.5430259e-05)
(0.00068930178 -5.3410043e-07 3.4925468e-05)
(0.00068577208 -4.3632561e-07 2.6390019e-05)
(0.0006815231 9.6157674e-07 1.9414081e-05)
(0.0010162023 5.9277494e-05 1.5868048e-05)
(0.0010668323 6.6988396e-05 2.7775669e-05)
(0.0011172758 6.2544745e-05 3.3327702e-05)
(0.0011607277 5.6006383e-05 3.3164285e-05)
(0.0011980307 4.8565987e-05 2.7526512e-05)
(0.0012302279 4.114129e-05 1.6305522e-05)
(0.0012584796 3.4220292e-05 -1.0546107e-06)
(0.0012842223 2.7839282e-05 -2.5499029e-05)
(0.0013094298 2.1759098e-05 -5.8316639e-05)
(0.0013378202 1.5028575e-05 -0.00010208079)
(0.0013765919 6.3195328e-06 -0.00015981994)
(0.0014363545 -5.5483606e-06 -0.00022896621)
(0.0015479973 -1.5406062e-05 -0.00027760201)
(0.0016656103 -9.8125118e-06 -0.00014411467)
(0.0017199354 -1.532489e-06 -7.9385468e-05)
(0.0017520634 6.1115388e-06 -2.9595275e-05)
(0.00177724 1.3579798e-05 2.5006532e-05)
(0.0017721132 2.0088477e-05 9.0013397e-05)
(0.001736381 2.3808978e-05 0.00013106635)
(0.0016930267 2.4147725e-05 0.00015409542)
(0.0016521989 2.2356269e-05 0.00016404908)
(0.0016160441 1.9446136e-05 0.00016514692)
(0.0015845095 1.6076955e-05 0.00016051451)
(0.0015570321 1.267224e-05 0.00015232684)
(0.0015329948 9.4868617e-06 0.0001420433)
(0.0015118238 6.678126e-06 0.00013060597)
(0.0014930425 4.3516821e-06 0.00011858824)
(0.0014764017 2.64119e-06 0.00010636403)
(0.0014618432 1.8295387e-06 9.4043435e-05)
(0.0014454138 2.524073e-06 8.1589024e-05)
(0.001021951 3.8915886e-14 1.6154647e-05)
(0.001087462 1.4766427e-13 2.8558378e-05)
(0.0011588251 3.8776475e-13 3.4698006e-05)
(0.0012234975 8.3872262e-13 3.5298161e-05)
(0.0012805761 1.5715196e-12 3.0610515e-05)
(0.0013307429 2.61185e-12 2.0533239e-05)
(0.0013750348 3.8904503e-12 4.514221e-06)
(0.0014149078 5.1986953e-12 -1.8515729e-05)
(0.0014519619 6.2086783e-12 -4.9537579e-05)
(0.0014894035 6.4950213e-12 -9.0871977e-05)
(0.0015335619 5.6847096e-12 -0.00014541699)
(0.0015949666 3.5094985e-12 -0.00021188736)
(0.0017011253 3.5868786e-13 -0.00026133817)
(0.0018151559 -2.1631281e-12 -0.00014110196)
(0.0018719156 -4.4416756e-12 -8.653427e-05)
(0.0019097191 -6.966686e-12 -4.6302872e-05)
(0.0019423535 -9.6413296e-12 1.250382e-06)
(0.0019520218 -1.2682727e-11 6.0395735e-05)
(0.0019325458 -1.6123827e-11 0.00010026013)
(0.001904767 -2.000278e-11 0.00012524661)
(0.001877325 -2.4311339e-11 0.00013950455)
(0.0018516824 -2.9102979e-11 0.00014639754)
(0.0018277654 -3.4388013e-11 0.00014826103)
(0.001805231 -4.0066539e-11 0.00014664896)
(0.001783777 -4.5875226e-11 0.00014260707)
(0.0017631888 -5.1177294e-11 0.00013682019)
(0.0017433636 -5.4982474e-11 0.00012969888)
(0.0017244398 -5.6346749e-11 0.00012141262)
(0.0017068846 -5.5000034e-11 0.00011189554)
(0.0016864083 -5.2119053e-11 0.00010094907)
(0.0010162023 -5.9277494e-05 1.5868048e-05)
(0.0010668323 -6.6988396e-05 2.7775669e-05)
(0.0011172758 -6.2544745e-05 3.3327702e-05)
(0.0011607277 -5.6006382e-05 3.3164285e-05)
(0.0011980307 -4.8565985e-05 2.7526512e-05)
(0.0012302279 -4.1141287e-05 1.6305522e-05)
(0.0012584796 -3.4220288e-05 -1.0546107e-06)
(0.0012842223 -2.7839276e-05 -2.5499029e-05)
(0.0013094298 -2.175909e-05 -5.8316638e-05)
(0.0013378202 -1.5028566e-05 -0.00010208078)
(0.0013765919 -6.3195256e-06 -0.00015981994)
(0.0014363546 5.5483647e-06 -0.0002289662)
(0.0015479974 1.5406062e-05 -0.000277602)
(0.0016656103 9.8125085e-06 -0.00014411467)
(0.0017199354 1.5324831e-06 -7.9385462e-05)
(0.0017520635 -6.1115476e-06 -2.959527e-05)
(0.00177724 -1.357981e-05 2.5006536e-05)
(0.0017721132 -2.0088492e-05 9.00134e-05)
(0.001736381 -2.3808997e-05 0.00013106635)
(0.0016930267 -2.4147749e-05 0.00015409542)
(0.0016521988 -2.2356297e-05 0.00016404907)
(0.0016160441 -1.9446169e-05 0.00016514691)
(0.0015845094 -1.6076994e-05 0.00016051449)
(0.001557032 -1.2672286e-05 0.00015232682)
(0.0015329947 -9.4869148e-06 0.00014204328)
(0.0015118237 -6.6781868e-06 0.00013060593)
(0.0014930424 -4.35175e-06 0.0001185882)
(0.0014764016 -2.6412627e-06 0.00010636399)
(0.001461843 -1.8296122e-06 9.404339e-05)
(0.0014454137 -2.5241438e-06 8.1588978e-05)
(0.00094512553 -6.2345451e-05 1.362296e-05)
(0.00093854605 -7.0122449e-05 2.2356785e-05)
(0.00089286592 -6.2353022e-05 2.5074955e-05)
(0.00085111209 -5.2843526e-05 2.2155174e-05)
(0.0008190909 -4.3406773e-05 1.3983748e-05)
(0.00079394892 -3.4825106e-05 7.8765418e-07)
(0.00077433297 -2.7424171e-05 -1.7517929e-05)
(0.00076041977 -2.1065988e-05 -4.1250514e-05)
(0.00075380537 -1.5241148e-05 -7.1587311e-05)
(0.00075824359 -8.8489634e-06 -0.0001100358)
(0.00078144076 -5.3155654e-07 -0.00015771425)
(0.00083557546 9.3874175e-06 -0.00020855309)
(0.00095300694 1.5420875e-05 -0.0002284786)
(0.0010520173 4.8381021e-06 -7.2140393e-05)
(0.001075915 -4.3783999e-06 -3.038776e-06)
(0.0010768691 -1.1649692e-05 4.7789741e-05)
(0.0010617355 -1.739421e-05 9.2949077e-05)
(0.0010176773 -2.2372356e-05 0.0001467232)
(0.00094739027 -2.3282979e-05 0.00016597257)
(0.00088011787 -2.0932767e-05 0.00016504119)
(0.00082513198 -1.6998769e-05 0.00015159032)
(0.00078304431 -1.2783061e-05 0.00013217598)
(0.00075186565 -8.9313921e-06 0.00011125485)
(0.00072924214 -5.7192325e-06 9.1283826e-05)
(0.00071315741 -3.2107792e-06 7.3447022e-05)
(0.00070196991 -1.3656166e-06 5.8174665e-05)
(0.00069437006 -1.1292174e-07 4.5430226e-05)
(0.00068930171 5.3408551e-07 3.4925437e-05)
(0.00068577199 4.3631169e-07 2.6389991e-05)
(0.000681523 -9.6158812e-07 1.9414055e-05)
(0.00094255449 6.2494297e-05 9.33311e-06)
(0.00092948552 7.0407205e-05 1.5376414e-05)
(0.00087844717 6.2496056e-05 1.6905459e-05)
(0.00083284234 5.2752093e-05 1.4180398e-05)
(0.00079758293 4.3102634e-05 7.1400446e-06)
(0.00076846618 3.437919e-05 -4.711516e-06)
(0.00074335345 2.694954e-05 -2.2735305e-05)
(0.00072184484 2.0327483e-05 -4.9408434e-05)
(0.00070508441 1.3271001e-05 -8.8742735e-05)
(0.00069672166 3.5691307e-06 -0.00014758194)
(0.00071096909 -1.1388333e-05 -0.00023829584)
(0.00076439661 -3.0687082e-05 -0.00037319067)
(0.00091310425 -3.1589344e-05 -0.00052251007)
(0.00096568204 3.4934503e-05 -0.00025363118)
(0.00077800828 4.6386655e-05 -0.0001062431)
(0.00073718149 4.2084271e-05 -2.125314e-05)
(0.00074241476 4.2921953e-05 5.7153173e-05)
(0.0007347782 4.7699818e-05 0.00020823717)
(0.00065897957 4.3379606e-05 0.00022619073)
(0.00061975997 3.5116591e-05 0.00021393938)
(0.00059922867 2.5857657e-05 0.00018029412)
(0.00059289849 1.7687431e-05 0.00014499068)
(0.00059513038 1.093496e-05 0.00011375016)
(0.00060212021 5.5741771e-06 8.789202e-05)
(0.00061168019 1.418298e-06 6.7153588e-05)
(0.0006224642 -1.7372556e-06 5.0858384e-05)
(0.00063399679 -3.9745676e-06 3.8312812e-05)
(0.00064559307 -5.1933387e-06 2.8818524e-05)
(0.00065612957 -5.3797281e-06 2.1654764e-05)
(0.00067059875 -5.4870097e-06 1.5217547e-05)
(0.0010135936 5.9294805e-05 1.0620931e-05)
(0.001057311 6.7263733e-05 1.854419e-05)
(0.0011020218 6.2748823e-05 2.1902881e-05)
(0.0011415179 5.6022333e-05 2.0952329e-05)
(0.0011756056 4.8397998e-05 1.5593374e-05)
(0.001203996 4.0833602e-05 5.1224928e-06)
(0.001226438 3.3831088e-05 -1.2023045e-05)
(0.0012434964 2.7109734e-05 -3.8781039e-05)
(0.001256304 1.9772182e-05 -8.0394694e-05)
(0.0012677162 9.8321074e-06 -0.00014584887)
(0.0012852261 -5.8425385e-06 -0.00025035918)
(0.0013248044 -3.0674058e-05 -0.00041526801)
(0.0014250361 -4.4370478e-05 -0.00064268391)
(0.0014917081 2.5466626e-05 -0.00040918218)
(0.0012874186 4.991133e-05 -0.00025532811)
(0.0012257966 4.8615695e-05 -0.00015414998)
(0.001220297 4.9288225e-05 -4.6669822e-05)
(0.0012378687 5.4269897e-05 0.00013785622)
(0.0011999424 5.4400177e-05 0.00019690549)
(0.0011883758 4.8618086e-05 0.00022174651)
(0.0011933999 4.0657158e-05 0.00021919471)
(0.0012083773 3.2507017e-05 0.00020492129)
(0.0012280766 2.4876897e-05 0.00018675488)
(0.0012494294 1.8004808e-05 0.00016815096)
(0.0012707396 1.1965615e-05 0.00015055948)
(0.0012910691 6.7611172e-06 0.00013439525)
(0.0013095989 2.4141026e-06 0.00011957021)
(0.0013259088 -1.006907e-06 0.00010581678)
(0.0013402094 -3.5151356e-06 9.2697547e-05)
(0.001358098 -5.1110004e-06 7.9053021e-05)
(0.001019348 3.8874727e-14 1.0916486e-05)
(0.0010780094 1.4505461e-13 1.9205456e-05)
(0.0011438378 3.8246601e-13 2.2966057e-05)
(0.0012048298 8.2936063e-13 2.2542127e-05)
(0.0012590157 1.5552813e-12 1.787441e-05)
(0.0013058466 2.5760808e-12 8.3051291e-06)
(0.0013448629 3.8061975e-12 -7.6584358e-06)
(0.0013765776 5.0061769e-12 -3.2854066e-05)
(0.0014019793 5.7738118e-12 -7.2410993e-05)
(0.0014232614 5.5664613e-12 -0.00013505376)
(0.0014469729 3.8230194e-12 -0.00023664205)
(0.0014882455 -2.4149794e-13 -0.00040124279)
(0.0015684296 -5.5688318e-12 -0.00064326961)
(0.0016288287 -6.5276492e-12 -0.00042847729)
(0.0014303792 -7.9773591e-12 -0.00028585268)
(0.0013682375 -1.0645496e-11 -0.00019189181)
(0.0013610062 -1.4061835e-11 -8.7780442e-05)
(0.001380022 -2.0158144e-11 9.1499726e-05)
(0.0013537081 -2.8133705e-11 0.00015582267)
(0.0013520647 -3.6794606e-11 0.00018963574)
(0.0013667725 -4.5580812e-11 0.00019776409)
(0.0013904136 -5.4017844e-11 0.00019362068)
(0.0014173882 -6.1542483e-11 0.000184487)
(0.0014445509 -6.7641488e-11 0.00017350001)
(0.0014703268 -7.165627e-11 0.00016202321)
(0.0014939049 -7.2595294e-11 0.00015061942)
(0.0015148056 -7.1576321e-11 0.000139386)
(0.0015326542 -6.9029304e-11 0.00012812883)
(0.0015475055 -6.3226507e-11 0.00011635649)
(0.0015648692 -5.6433279e-11 0.00010285617)
(0.0010135936 -5.9294805e-05 1.0620931e-05)
(0.001057311 -6.7263733e-05 1.854419e-05)
(0.0011020218 -6.2748823e-05 2.1902881e-05)
(0.0011415179 -5.6022332e-05 2.0952329e-05)
(0.0011756056 -4.8397996e-05 1.5593374e-05)
(0.001203996 -4.0833599e-05 5.1224927e-06)
(0.001226438 -3.3831083e-05 -1.2023045e-05)
(0.0012434964 -2.7109728e-05 -3.8781039e-05)
(0.001256304 -1.9772175e-05 -8.0394694e-05)
(0.0012677162 -9.8321003e-06 -0.00014584886)
(0.0012852261 5.842543e-06 -0.00025035918)
(0.0013248044 3.0674057e-05 -0.00041526801)
(0.0014250361 4.4370471e-05 -0.00064268391)
(0.0014917081 -2.5466633e-05 -0.00040918218)
(0.0012874186 -4.9911339e-05 -0.00025532811)
(0.0012257966 -4.8615707e-05 -0.00015414998)
(0.001220297 -4.928824e-05 -4.6669823e-05)
(0.0012378687 -5.4269919e-05 0.00013785622)
(0.0011999424 -5.4400208e-05 0.00019690549)
(0.0011883757 -4.8618125e-05 0.0002217465)
(0.0011933998 -4.0657205e-05 0.00021919469)
(0.0012083772 -3.2507073e-05 0.00020492127)
(0.0012280765 -2.4876961e-05 0.00018675485)
(0.0012494293 -1.8004878e-05 0.00016815092)
(0.0012707394 -1.1965692e-05 0.00015055942)
(0.0012910689 -6.7611994e-06 0.00013439518)
(0.0013095987 -2.4141866e-06 0.00011957014)
(0.0013259086 1.0068267e-06 0.00010581669)
(0.0013402092 3.5150629e-06 9.2697452e-05)
(0.0013580978 5.110936e-06 7.9052922e-05)
(0.00094255449 -6.2494297e-05 9.33311e-06)
(0.00092948552 -7.0407205e-05 1.5376414e-05)
(0.00087844717 -6.2496056e-05 1.6905459e-05)
(0.00083284234 -5.2752092e-05 1.4180398e-05)
(0.00079758293 -4.3102634e-05 7.1400445e-06)
(0.00076846618 -3.437919e-05 -4.7115161e-06)
(0.00074335345 -2.6949539e-05 -2.2735305e-05)
(0.00072184485 -2.0327482e-05 -4.9408433e-05)
(0.00070508442 -1.3271e-05 -8.8742734e-05)
(0.00069672167 -3.5691296e-06 -0.00014758194)
(0.00071096911 1.1388333e-05 -0.00023829584)
(0.00076439663 3.068708e-05 -0.00037319067)
(0.00091310427 3.1589341e-05 -0.00052251007)
(0.00096568205 -3.4934505e-05 -0.00025363118)
(0.00077800829 -4.6386656e-05 -0.0001062431)
(0.0007371815 -4.2084273e-05 -2.1253141e-05)
(0.00074241476 -4.2921955e-05 5.7153171e-05)
(0.00073477819 -4.7699821e-05 0.00020823716)
(0.00065897955 -4.3379609e-05 0.00022619072)
(0.00061975995 -3.5116595e-05 0.00021393937)
(0.00059922863 -2.585766e-05 0.0001802941)
(0.00059289845 -1.7687434e-05 0.00014499065)
(0.00059513033 -1.0934964e-05 0.00011375012)
(0.00060212016 -5.5741817e-06 8.7891974e-05)
(0.00061168013 -1.4183059e-06 6.7153536e-05)
(0.00062246414 1.7372429e-06 5.0858325e-05)
(0.0006339967 3.9745546e-06 3.8312747e-05)
(0.00064559297 5.1933298e-06 2.8818456e-05)
(0.00065612947 5.3797221e-06 2.1654695e-05)
(0.00067059864 5.4870051e-06 1.521748e-05)
(0.00094174076 6.2590346e-05 4.7414415e-07)
(0.00092612236 7.0584743e-05 6.8639361e-07)
(0.00087141306 6.272201e-05 2.079413e-08)
(0.00082125303 5.2984429e-05 -1.908144e-06)
(0.00078015274 4.3312093e-05 -5.588894e-06)
(0.00074279173 3.4372811e-05 -1.1632991e-05)
(0.00070443071 2.641622e-05 -2.1377625e-05)
(0.00066085394 1.8411454e-05 -3.7393693e-05)
(0.00060673862 7.5072249e-06 -6.4503704e-05)
(0.00053589218 -1.1498137e-05 -0.00011258769)
(0.00044511643 -4.5517802e-05 -0.0002023829)
(0.00030461553 -9.7976857e-05 -0.00036102732)
(0.00013463705 -0.00013870169 -0.00049668266)
(5.6080625e-05 6.7948168e-05 0.00018668453)
(8.281626e-05 4.8545183e-05 0.00017322828)
(0.00020193249 3.1703589e-05 0.00014644594)
(0.00027044214 1.5022289e-05 0.00010856622)
(0.00034290519 2.491346e-06 7.9045835e-05)
(0.00040391774 -5.9614195e-06 5.7307601e-05)
(0.00045671818 -1.0948029e-05 4.1659723e-05)
(0.00050180825 -1.3405928e-05 3.0212622e-05)
(0.00054027292 -1.4202506e-05 2.1783102e-05)
(0.00057307336 -1.3986692e-05 1.5643484e-05)
(0.00060101533 -1.3285196e-05 1.1382295e-05)
(0.00062375114 -1.2284619e-05 8.6011596e-06)
(0.00065737581 -1.3235068e-05 5.9393255e-06)
(0.001012745 5.9395271e-05 6.830101e-07)
(0.0010537748 6.7529946e-05 1.2185702e-06)
(0.0010946516 6.3138304e-05 9.1404802e-07)
(0.0011293547 5.6454184e-05 -6.567355e-07)
(0.0011571834 4.8778164e-05 -3.9958831e-06)
(0.0011767291 4.0915657e-05 -9.8346588e-06)
(0.0011853626 3.3284071e-05 -1.9456645e-05)
(0.0011788356 2.5049229e-05 -3.557743e-05)
(0.0011500921 1.3695076e-05 -6.3686053e-05)
(0.0010851051 -6.1856887e-06 -0.00011521694)
(0.00096118203 -4.3814425e-05 -0.00021475389)
(0.0007097794 -0.0001110115 -0.00040697676)
(0.00034474689 -0.00018983247 -0.00064167204)
(0.00012996371 9.6398774e-05 0.00024411692)
(0.00022175519 7.4670187e-05 0.00022831189)
(0.00042802809 5.2814707e-05 0.0002070259)
(0.00056459013 3.3864588e-05 0.00017466585)
(0.00069019564 1.7590864e-05 0.0001456836)
(0.00079841018 5.5681396e-06 0.00012196993)
(0.00088940077 -3.0675533e-06 0.00010274517)
(0.00096699942 -9.1076097e-06 8.731561e-05)
(0.0010338234 -1.3153011e-05 7.4863761e-05)
(0.0010918077 -1.5708934e-05 6.4663221e-05)
(0.0011421972 -1.7259281e-05 5.6053693e-05)
(0.0011848912 -1.8438936e-05 4.8437958e-05)
(0.0012385909 -2.0165379e-05 4.0701991e-05)
(0.0010184947 3.4159999e-14 7.0508133e-07)
(0.0010745057 1.2901017e-13 1.3008199e-06)
(0.0011366224 3.4457267e-13 1.0930707e-06)
(0.0011929923 7.534762e-13 -3.2927185e-07)
(0.0012410953 1.4204362e-12 -3.4572188e-06)
(0.0012792883 2.3516574e-12 -9.0223067e-06)
(0.0013048496 3.4404713e-12 -1.8198787e-05)
(0.0013133306 4.3852535e-12 -3.357422e-05)
(0.001297073 4.6470247e-12 -6.0390779e-05)