/*--------------------------------*- C++ -*----------------------------------*\
| =========                 |                                                 |
| \\      /  F ield         | OpenFOAM: The Open Source CFD Toolbox           |
|  \\    /   O peration     | Version:  2412                                  |
|   \\  /    A nd           | Website:  www.openfoam.com                      |
|    \\/     M anipulation  |                                                 |
\*---------------------------------------------------------------------------*/
FoamFile
{
    version     2.0;
    format      ascii;
    arch        "LSB;label=32;scalar=64";
    class       volScalarField;
    location    "90/heater";
    object      T;
}
// * * * * * * * * * * * * * * * * * * * * * * * * * * * * * * * * * * * * * //

dimensions      [0 0 0 1 0 0 0];

internalField   nonuniform List<scalar> 
80
(
330.83305
330.09851
328.67068
326.64901
334.63591
333.75367
332.02659
329.56329
342.64876
341.47832
339.12689
335.66396
355.64754
354.14502
350.92007
345.70005
483.67337
484.44351
484.4816
483.83918
455.16005
456.11356
456.12328
455.29082
430.07431
430.8219
430.63719
429.71319
408.16033
408.48091
407.80954
406.53651
389.48624
389.09692
387.35892
384.8205
374.52724
373.07295
369.44226
362.13958
483.67336
484.4435
484.4816
483.83918
455.16003
456.11355
456.12327
455.29082
430.07428
430.82189
430.63718
429.7132
408.16031
408.4809
407.80953
406.53652
389.48622
389.09691
387.35892
384.82051
374.52725
373.07296
369.44227
362.13959
355.64754
354.14503
350.92007
345.70006
342.64876
341.47833
339.1269
335.66398
334.63591
333.75367
332.02661
329.56332
330.83301
330.09851
328.6707
326.64906
)
;

boundaryField
{
    minY
    {
        type            fixedValue;
        value           uniform 500;
    }
    minZ
    {
        type            zeroGradient;
    }
    maxZ
    {
        type            zeroGradient;
    }
    heater_to_topAir
    {
        type            compressible::turbulentTemperatureRadCoupledMixed;
        refValue        nonuniform List<scalar> 
40
(
301.80259
303.32953
304.64833
305.74753
301.70248
303.1655
304.43476
305.49001
302.04835
303.79748
305.29934
306.52362
302.66703
304.94751
306.90806
308.48695
303.5528
306.61644
309.25931
311.34842
303.5528
306.61644
309.25931
311.34842
302.66703
304.94751
306.90806
308.48695
302.04835
303.79748
305.29934
306.52362
301.70248
303.1655
304.43476
305.49001
301.80259
303.32952
304.64833
305.74753
)
;
        refGradient     uniform 0;
        valueFraction   uniform 0.00032132529;
        source          uniform 0;
        logInterval     -1;
        writePrecision  8;
        updateHeader    1;
        writeToFile     0;
        useUserTime     1;
        kappaMethod     solidThermo;
        value           nonuniform List<scalar> 
40
(
330.81555
330.08181
328.65499
326.63454
334.61727
333.73585
332.00986
329.54788
342.62792
341.45846
339.10837
335.6471
355.62318
354.1219
350.89865
345.68088
374.49787
373.04502
369.41631
362.11659
374.49788
373.04502
369.41632
362.1166
355.62319
354.12191
350.89866
345.68089
342.62792
341.45847
339.10838
335.64711
334.61727
333.73585
332.00988
329.54791
330.81551
330.0818
328.65502
326.6346
)
;
    }
    heater_to_rightSolid
    {
        type            compressible::turbulentTemperatureRadCoupledMixed;
        refValue        nonuniform List<scalar> 10(324.18676 326.56445 331.37103 338.55231 346.93161 346.9316 338.55232 331.37106 326.56449 324.18681);
        refGradient     uniform 0;
        valueFraction   uniform 0.49999997;
        source          uniform 0;
        logInterval     -1;
        writePrecision  8;
        updateHeader    1;
        writeToFile     0;
        useUserTime     1;
        kappaMethod     solidThermo;
        value           nonuniform List<scalar> 10(325.41401 328.06003 333.51374 342.12257 354.53226 354.53226 342.12258 333.51377 328.06007 325.41406);
    }
    heater_to_leftSolid
    {
        type            compressible::turbulentTemperatureRadCoupledMixed;
        refValue        nonuniform List<scalar> 10(300.07205 300.08715 300.12199 300.18252 300.25868 300.25868 300.18252 300.12199 300.08715 300.07205);
        refGradient     uniform 0;
        valueFraction   uniform 2.0832464e-05;
        source          uniform 0;
        logInterval     -1;
        thicknessLayers List<scalar> 1(0.001);
        kappaLayers     List<scalar> 1(0.0005);
        writePrecision  8;
        updateHeader    1;
        writeToFile     0;
        useUserTime     1;
        kappaMethod     solidThermo;
        value           nonuniform List<scalar> 10(330.82423 334.62713 342.64008 355.63905 374.51912 374.51913 355.63905 342.64008 334.62713 330.82419);
    }
    heater_to_bottomWater
    {
        type            compressible::turbulentTemperatureRadCoupledMixed;
        refValue        nonuniform List<scalar> 
92
(
301.19724
302.07147
302.68859
303.06945
301.1277
301.94434
302.57867
303.04644
302.13561
303.21247
303.93623
304.4451
309.96686
313.44106
316.7995
318.98429
304.93484
307.22058
309.60116
311.90746
303.43816
305.0538
306.72675
308.37069
303.41142
304.95118
306.53572
308.03677
305.97706
305.97706
308.83712
308.83712
311.29369
311.29369
312.72478
312.72478
322.16512
344.09428
311.37027
338.07675
308.24984
329.93161
308.04847
323.01561
310.45668
322.70912
322.16512
309.96655
313.44076
316.7993
344.09465
318.98425
311.37027
304.93478
307.22051
309.6011
338.0769
311.90744
308.24983
303.43811
305.05375
306.7267
329.93172
308.37067
308.04847
303.41128
304.95102
306.53559
323.01591
308.0367
310.45667
305.97657
308.8367
311.29342
322.70975
312.72477
305.97657
308.8367
311.29342
312.72477
302.13542
303.2123
303.9361
304.44508
301.12765
301.9443
302.57864
303.04648
301.19721
302.07145
302.68858
303.06952
)
;
        refGradient     uniform 0;
        valueFraction   nonuniform List<scalar> 
92
(
0.0075140686
0.0075140686
0.0075140686
0.0075140686
0.0075140686
0.0075140686
0.0075140686
0.0075140686
0.0075140686
0.0075140686
0.0075140686
0.0075140686
0.0075140686
0.0075140686
0.0075140686
0.0075140686
0.0075140686
0.0075140686
0.0075140686
0.0075140686
0.0075140686
0.0075140686
0.0075140686
0.0075140686
0.0075140686
0.0075140686
0.0075140686
0.0075140686
0.0075140686
0.0075140686
0.0075140686
0.0075140686
0.0075140686
0.0075140686
0.0075140686
0.0075140686
0.0075140679
0.0075140679
0.0075140679
0.0075140679
0.0075140679
0.0075140679
0.0075140679
0.0075140679
0.0075140679
0.0075140679
0.0075140679
0.0075140686
0.0075140686
0.0075140686
0.0075140679
0.0075140686
0.0075140679
0.0075140686
0.0075140686
0.0075140686
0.0075140679
0.0075140686
0.0075140679
0.0075140686
0.0075140686
0.0075140686
0.0075140679
0.0075140686
0.0075140679
0.0075140686
0.0075140686
0.0075140686
0.0075140679
0.0075140686
0.0075140679
0.0075140686
0.0075140686
0.0075140686
0.0075140679
0.0075140686
0.0075140686
0.0075140686
0.0075140686
0.0075140686
0.0075140686
0.0075140686
0.0075140686
0.0075140686
0.0075140686
0.0075140686
0.0075140686
0.0075140686
0.0075140686
0.0075140686
0.0075140686
0.0075140686
)
;
        source          uniform 0;
        logInterval     -1;
        writePrecision  8;
        updateHeader    1;
        writeToFile     0;
        useUserTime     1;
        kappaMethod     solidThermo;
        value           nonuniform List<scalar> 
92
(
330.60225
329.87987
328.46754
326.46414
334.37613
333.50672
331.79751
329.35642
342.3366
341.1831
338.85487
335.42193
482.36739
483.15783
483.22087
482.59966
454.02907
454.99256
455.02007
454.21117
429.11924
429.87332
429.70253
428.79781
407.36854
407.69823
407.04378
405.79157
355.26703
388.85303
353.79732
388.48808
350.61509
386.78157
345.44512
384.27295
482.45905
482.78834
454.07743
454.40781
429.1554
428.95982
407.40338
405.90413
388.88669
384.34797
482.45904
482.36738
483.15782
483.22086
482.78834
482.59966
454.07741
454.02905
454.99255
455.02006
454.40781
454.21117
429.15537
429.11922
429.87331
429.70253
428.95982
428.79781
407.40336
407.36852
407.69822
407.04377
405.90414
405.79158
388.88667
388.85301
388.48807
386.78157
384.34799
384.27296
355.26703
353.79732
350.61509
345.44512
342.3366
341.1831
338.85488
335.42195
334.37612
333.50672
331.79753
329.35645
330.60221
329.87986
328.46756
326.46419
)
;
    }
}


// ************************************************************************* //
