/*--------------------------------*- C++ -*----------------------------------*\
| =========                 |                                                 |
| \\      /  F ield         | OpenFOAM: The Open Source CFD Toolbox           |
|  \\    /   O peration     | Version:  2412                                  |
|   \\  /    A nd           | Website:  www.openfoam.com                      |
|    \\/     M anipulation  |                                                 |
\*---------------------------------------------------------------------------*/
FoamFile
{
    version     2.0;
    format      ascii;
    arch        "LSB;label=32;scalar=64";
    class       volVectorField;
    location    "0.7";
    object      flux;
}
// * * * * * * * * * * * * * * * * * * * * * * * * * * * * * * * * * * * * * //

dimensions      [0 1 -1 1 0 0 0];

internalField   nonuniform List<vector> 
5712
(
(-0.394668 0.61436 0.375586)
(-0.485766 0.337818 1.13386)
(-0.890663 1.05625 0.287541)
(-1.40931 0.698415 1.23227)
(-1.36408 1.02057 0.155283)
(-2.65961 0.877898 1.28883)
(-0.930048 1.46604 0.256881)
(-2.79061 1.85405 1.99666)
(-0.949975 2.24718 0.416249)
(-2.22675 2.89479 2.49582)
(-1.16944 1.20753 0.43286)
(-1.93801 1.07324 1.79937)
(-0.888295 0.741445 0.466327)
(-1.19244 0.516881 1.61207)
(-0.479589 0.496031 0.462368)
(-0.492904 0.283037 1.39653)
(-0.692246 0.97591 0.212298)
(-0.809356 0.819914 0.124274)
(-0.917423 0.898463 0.650081)
(-0.848187 0.851237 0.320168)
(-0.62509 1.10911 0.196662)
(-0.937599 1.01708 0.0930206)
(-0.918544 1.31463 0.684166)
(-0.921234 1.08406 0.277851)
(-0.271027 0.352069 0.294149)
(-0.207702 0.23506 0.228334)
(-0.365973 0.185418 0.863639)
(-0.271878 0.128486 0.659627)
(-0.624376 0.500969 0.196993)
(-0.433306 0.311824 0.165405)
(-1.13535 0.28038 0.866765)
(-0.819843 0.183568 0.685284)
(-0.94403 1.0669 0.447665)
(-0.974901 1.09742 0.166468)
(-0.999234 0.91226 0.354087)
(-1.05906 0.681442 0.138378)
(-0.261813 0.717515 0.168739)
(-0.215264 0.587677 0.432141)
(-2.13648 0.620251 1.99866)
(-2.6416 0.59834 0.602627)
(-1.1607 0.805441 0.606988)
(-1.53619 0.804968 0.26395)
(-2.68613 1.72263 2.37151)
(-3.31429 1.91378 0.730014)
(-1.25786 1.18148 0.545362)
(-1.54744 1.26918 0.235748)
(-1.63702 0.941662 1.36302)
(-2.13893 0.744284 0.450191)
(-1.33212 0.914887 0.696623)
(-1.82574 0.632627 0.308255)
(-0.778398 0.391856 1.14329)
(-0.974289 0.345661 0.359884)
(-0.169969 0.316848 0.347478)
(-0.0553778 0.539602 0.185968)
(-0.216594 0.159469 0.514864)
(-0.0768927 0.236992 0.215441)
(-0.383954 0.416687 0.32489)
(-0.160319 0.708048 0.19585)
(-0.641747 0.267923 0.536909)
(-0.240373 0.393841 0.211273)
(-0.448975 0.413113 0.416597)
(-0.149695 0.83686 0.26248)
(-0.427227 0.3223 0.345909)
(-0.123577 0.576422 0.1534)
(-0.819658 0.095252 0.572901)
(-0.243507 0.381227 0.213514)
(-1.0686 0.0123384 0.221106)
(-0.341896 0.271065 0.0840061)
(-1.29047 0.76946 0.723109)
(-0.755697 0.934679 0.566646)
(-1.08414 0.847941 0.417289)
(-0.750027 0.94769 0.386717)
(-1.26477 0.949401 0.722967)
(-0.817024 0.94266 0.63774)
(-1.00302 1.00921 0.380449)
(-0.790051 0.947378 0.404542)
(-0.884979 0.800735 0.417947)
(-0.645588 0.974622 0.37923)
(-0.985751 0.770427 0.597159)
(-0.638789 0.947015 0.528962)
(-1.05241 0.867738 0.293565)
(-0.763557 0.954822 0.25822)
(-1.09023 0.86001 0.153366)
(-0.779489 0.957234 0.131509)
(-0.984402 1.04059 0.267432)
(-0.79421 0.951313 0.265321)
(-1.02554 1.05493 0.134165)
(-0.806345 0.953715 0.133889)
(-0.904023 0.762671 0.300331)
(-0.670441 0.984264 0.248546)
(-0.971181 0.698561 0.160807)
(-0.691319 0.985589 0.115619)
(-0.987506 0.918804 0.377631)
(-0.423673 1.05331 0.218329)
(-0.593995 1.1546 0.397578)
(-0.700541 1.74728 0.427824)
(-1.07145 0.968046 0.542199)
(-0.498049 1.25096 0.411277)
(-0.603415 1.15359 0.59727)
(-0.750934 1.9593 0.755697)
(-0.984192 0.86714 0.257845)
(-0.389499 0.918565 0.115594)
(-0.611649 1.1449 0.242724)
(-0.680323 1.63616 0.247738)
(-1.01774 0.834495 0.135196)
(-0.390364 0.838657 0.0498489)
(-0.637697 1.14408 0.101718)
(-0.682519 1.58636 0.0910591)
(-0.165026 0.287004 0.446286)
(-0.189066 0.379643 0.853605)
(-0.0595229 0.795493 0.31023)
(-0.127786 1.36832 0.957682)
(-0.472394 0.333868 0.483382)
(-0.560195 0.38816 0.852381)
(-0.205338 0.959626 0.366575)
(-0.413393 1.49468 1.00572)
(-0.769461 0.381094 0.604732)
(-0.913147 0.400977 0.820475)
(-0.381738 1.14474 0.493931)
(-0.701483 1.61951 0.999089)
(-0.767236 1.09654 0.560611)
(-0.383508 1.0943 0.569823)
(-0.872957 1.0266 0.517387)
(-1.14174 1.02018 0.538187)
(-0.62163 1.56333 0.610011)
(-0.252784 1.10183 0.374485)
(-0.41402 1.03153 0.494034)
(-0.59711 1.01108 0.732664)
(-1.15554 0.918626 0.896576)
(-0.849431 1.82906 1.28787)
(-0.499413 1.00487 0.515474)
(-0.691297 0.993119 0.49199)
(-0.816307 0.909889 0.520054)
(-0.848602 1.06567 0.662735)
(-1.10234 2.29142 1.00626)
(-0.17476 0.0922253 1.05969)
(-0.172863 0.121901 1.02267)
(-0.114124 0.272111 1.23722)
(-0.1184 0.606448 1.25114)
(-0.514989 0.127594 1.01794)
(-0.459896 0.18315 1.01165)
(-0.360327 0.343467 1.22697)
(-0.3526 0.672068 1.22427)
(-0.765661 0.183434 0.911505)
(-0.649373 0.174939 0.939592)
(-0.540241 0.441396 1.15368)
(-0.520031 0.753716 1.16635)
(-0.392499 1.02905 0.463316)
(-0.423807 0.945707 0.488563)
(-0.62197 0.912614 0.537371)
(-0.654132 0.799586 0.568557)
(-0.807886 0.856132 0.678525)
(-0.742627 0.689499 0.702718)
(-1.02783 0.663477 0.834819)
(-0.904444 0.54419 0.833204)
(-0.806397 0.592322 1.09153)
(-0.784159 0.926896 1.11603)
(-0.564639 0.914999 0.412908)
(-0.549939 0.764709 0.462332)
(-0.7471 0.899192 0.521517)
(-0.600868 0.780026 0.595717)
(-0.75165 0.82243 0.631432)
(-0.552407 0.701755 0.727945)
(-0.725341 0.786603 0.76937)
(-0.510517 0.647201 0.885014)
(-0.886626 0.685396 1.0403)
(-0.654999 0.968986 1.17021)
(-0.605574 0.954347 0.495148)
(-0.244549 0.988805 0.334985)
(-0.494103 1.00031 0.389804)
(-0.422905 1.07425 0.367068)
(-0.648418 0.905907 0.504837)
(-0.678615 0.811544 0.525517)
(-0.667199 0.935361 0.402437)
(-0.801415 0.874828 0.488445)
(-0.441285 0.933856 0.389822)
(-0.378088 0.923905 0.37059)
(-0.575816 0.916623 0.510368)
(-0.169965 0.885005 0.366608)
(-0.492746 1.02256 0.173322)
(-0.699025 1.10405 0.257383)
(-0.519717 1.02198 0.056711)
(-0.7626 1.10125 0.086038)
(-0.686042 0.957461 0.241956)
(-1.00086 0.919252 0.351383)
(-0.718425 0.954343 0.0790135)
(-1.04453 0.919757 0.120015)
(-0.447531 0.922852 0.16407)
(-0.651629 0.914394 0.246124)
(-0.474495 0.939465 0.0510554)
(-0.72216 0.925653 0.0818031)
(-0.569961 0.864913 0.395458)
(-0.368733 0.836962 0.325124)
(-0.778908 0.621891 0.42652)
(-0.307695 0.751299 0.270624)
(-0.589752 0.877431 0.572119)
(-0.125194 0.825362 0.412067)
(-0.727727 0.651176 0.678445)
(-0.0843755 0.799004 0.46336)
(-0.605921 0.835091 0.19406)
(-0.560201 0.81962 0.201672)
(-0.824055 0.609702 0.240011)
(-0.394528 0.741759 0.13935)
(-0.56026 0.840807 0.130051)
(-0.658757 0.809031 0.132968)
(-0.768029 0.600829 0.145407)
(-0.507827 0.720158 0.10669)
(-0.150187 0.092554 0.896993)
(-0.128702 0.0655309 0.594361)
(-0.0954801 0.0427216 0.199027)
(-0.0991744 0.045301 0.972965)
(-0.0902758 0.0329298 0.616963)
(-0.0709908 0.0314439 0.214035)
(-0.388075 0.144187 0.870968)
(-0.293347 0.0835691 0.57547)
(-0.220311 0.0559969 0.200981)
(-0.273443 0.108938 0.956895)
(-0.20026 0.0860046 0.610028)
(-0.146322 0.0641108 0.208937)
(-0.483933 0.137615 0.811391)
(-0.34918 0.106253 0.528757)
(-0.279675 0.098253 0.177799)
(-0.39817 0.196889 0.920035)
(-0.272203 0.146355 0.591414)
(-0.212686 0.117103 0.203746)
(-0.341791 0.788329 0.366843)
(-0.217349 0.579931 0.223453)
(-0.173523 0.45862 0.0668612)
(-0.571227 0.696224 0.497446)
(-0.336586 0.547558 0.338679)
(-0.223726 0.452326 0.111134)
(-0.577324 0.502604 0.619429)
(-0.341737 0.40654 0.427501)
(-0.213239 0.351653 0.14447)
(-0.680914 0.401785 0.720642)
(-0.442373 0.320605 0.474415)
(-0.311289 0.273609 0.157701)
(-0.621732 0.32356 0.869867)
(-0.360039 0.194615 0.556904)
(-0.220591 0.132371 0.195307)
(-0.635171 0.62445 0.380888)
(-0.421469 0.475983 0.220173)
(-0.309312 0.38647 0.0763838)
(-0.515469 0.66148 0.463397)
(-0.331742 0.509111 0.307982)
(-0.218273 0.423361 0.111534)
(-0.508457 0.524016 0.564071)
(-0.31053 0.380945 0.37713)
(-0.190861 0.309626 0.133944)
(-0.506066 0.413627 0.682518)
(-0.310183 0.300161 0.440783)
(-0.192239 0.245182 0.153878)
(-0.626135 0.31835 0.827313)
(-0.321953 0.188807 0.495152)
(-0.15661 0.128418 0.174209)
(-0.513979 1.22009 -0.0242789)
(-0.813652 1.22782 0.0351909)
(-0.451389 1.32762 0.00634547)
(-0.6226 1.18408 0.0988942)
(-0.452163 1.23547 0.0834385)
(-0.895836 1.1905 0.0793748)
(-0.392395 1.51321 0.211603)
(-0.746385 1.25289 0.179717)
(-0.00276764 0.744005 0.0235449)
(-0.0638835 0.777943 0.033613)
(0.012719 0.750677 0.0248889)
(-0.0407436 0.708305 0.0351795)
(-0.141042 0.995939 0.0110426)
(-0.258009 0.834637 0.0310645)
(-0.0953179 0.991317 0.0211095)
(-0.167535 0.749212 0.0459802)
(-0.0961763 1.08538 0.0542475)
(-0.172352 1.10827 0.0376141)
(-0.469454 0.919468 0.134674)
(-0.674983 1.00827 0.100219)
(-0.340189 1.15159 0.0568955)
(-0.275327 1.03892 0.0845258)
(-0.529914 1.25302 0.110412)
(-0.469092 1.31748 -0.00126672)
(-0.749107 1.36948 0.266163)
(-0.808094 1.49043 0.0594019)
(0.00968387 1.05079 -0.211644)
(0.227101 1.09114 -0.0779249)
(-0.366117 0.909542 -0.000420644)
(-0.25615 0.905852 -0.0123874)
(-0.273658 1.01332 -0.0395444)
(-0.154384 0.985391 -0.0460961)
(-0.0604614 0.628379 0.356725)
(-0.0381587 0.345179 0.133621)
(-0.0533011 0.596831 0.092265)
(-0.0345673 0.382934 0.0469387)
(-0.153809 0.614709 0.349984)
(-0.0478331 0.33815 0.132662)
(-0.0889471 0.579182 0.0978012)
(-0.0219678 0.370202 0.0527139)
(-0.39395 0.565362 0.332078)
(-0.108329 0.310785 0.138409)
(-0.314107 0.543814 0.118328)
(-0.0984604 0.350968 0.0672648)
(-0.349708 0.537477 0.0825088)
(-0.103292 0.363917 0.0397869)
(-0.388034 0.517096 0.0196535)
(-0.119549 0.361238 0.017332)
(-0.554731 0.898716 0.53826)
(-0.508684 0.663966 0.460693)
(-0.428584 0.904551 0.223493)
(-0.494521 0.687837 0.285711)
(-0.878066 1.03029 0.672092)
(-0.75297 0.880257 0.619036)
(-0.712848 1.06604 0.318423)
(-0.704601 0.89041 0.376516)
(-0.296219 0.8126 0.177632)
(-0.346141 0.515993 0.215443)
(-0.347106 0.823366 0.40972)
(-0.325613 0.485471 0.325448)
(-0.398463 0.939437 0.128927)
(-0.48402 0.702247 0.175259)
(-0.414996 0.975064 0.0552101)
(-0.484271 0.706688 0.0851646)
(-0.679331 1.11479 0.201026)
(-0.682675 0.90092 0.233728)
(-0.703206 1.14815 0.096584)
(-0.684137 0.90568 0.115886)
(-0.26029 0.802574 0.0852504)
(-0.345102 0.530258 0.132027)
(-0.248507 0.802402 0.0292047)
(-0.344862 0.533339 0.0663556)
(-0.0260564 0.457697 0.139538)
(-0.0347972 0.298634 0.0785544)
(-0.243603 0.375695 0.156254)
(-0.10269 0.237312 0.0806601)
(-0.0304167 0.411909 0.260995)
(-0.0272256 0.264859 0.121159)
(-0.21605 0.343174 0.217732)
(-0.0866318 0.215688 0.10979)
(-0.0238051 0.473418 0.0682619)
(-0.0299962 0.316835 0.0456846)
(-0.253049 0.390716 0.100655)
(-0.111776 0.249098 0.0498014)
(-0.0311069 0.478092 0.0209995)
(-0.0312985 0.326986 0.0186753)
(-0.251748 0.394474 0.0533794)
(-0.116108 0.254494 0.0243802)
(0.00547045 0.0971948 0.398859)
(0.0114114 0.0497497 0.223539)
(-0.016572 0.178965 0.164647)
(-0.00817245 0.104112 0.144862)
(0.0277365 0.099459 0.396133)
(0.0460474 0.0561192 0.226422)
(-0.0250585 0.180522 0.159359)
(-0.0101681 0.11296 0.140822)
(-0.0408088 0.105889 0.401809)
(-0.00277889 0.0729759 0.224999)
(-0.0744821 0.177263 0.157545)
(-0.0547338 0.127015 0.130604)
(0.252532 0.463545 0.53833)
(0.127884 0.8282 0.583584)
(0.141773 0.295498 0.44828)
(0.0952979 0.26716 0.305124)
(0.00778293 0.194813 0.13705)
(0.263128 0.837352 0.34937)
(0.363764 0.50271 0.368147)
(0.156889 0.265477 0.342677)
(0.156134 0.235385 0.280429)
(0.0116713 0.151065 0.150335)
(-0.418688 0.814953 0.503474)
(-0.289571 0.558353 0.398075)
(-0.209852 0.39315 0.290227)
(-0.184065 0.28042 0.201864)
(-0.0794187 0.182347 0.100033)
(0.01555 0.0307471 0.152388)
(0.0119439 0.0239977 0.120993)
(-0.00312176 0.0711437 0.130483)
(-0.0028125 0.0585518 0.126632)
(0.0443951 0.037883 0.158575)
(0.0420017 0.0254856 0.125363)
(-0.00722935 0.0833741 0.129438)
(-0.00596271 0.0679525 0.127196)
(0.0387856 0.0530432 0.163775)
(0.0471115 0.0382307 0.133344)
(-0.0272758 0.0988978 0.126176)
(-0.0228384 0.0813996 0.126683)
(0.0846425 0.82293 0.387537)
(0.0117575 0.712933 0.364207)
(0.252362 0.484556 0.311955)
(0.14319 0.392533 0.259928)
(0.120691 0.282754 0.200761)
(0.066342 0.233792 0.186376)
(0.111715 0.211263 0.160334)
(0.078126 0.170462 0.148247)
(0.00766961 0.134618 0.112333)
(-0.00255799 0.111575 0.124563)
(-0.231797 0.718 0.293211)
(-0.16326 0.561067 0.326019)
(-0.0195517 0.489633 0.21754)
(0.0312607 0.372766 0.237193)
(0.00586466 0.34553 0.163656)
(0.0366324 0.269929 0.175328)
(-0.00822785 0.236919 0.128386)
(0.0200279 0.189362 0.138395)
(-0.00124481 0.161956 0.0831409)
(-0.00263543 0.150006 0.116787)
(-0.173049 0.47435 0.199614)
(-0.168006 0.328023 0.15731)
(-0.363566 0.490932 0.134369)
(-0.221075 0.316068 0.0837022)
(-0.361945 0.64879 0.331211)
(-0.3133 0.440716 0.243056)
(-0.520505 0.677445 0.261172)
(-0.377318 0.448926 0.169656)
(-0.247301 0.374374 0.085238)
(-0.142329 0.255905 0.0550003)
(-0.0928984 0.364485 0.130024)
(-0.104057 0.267501 0.11288)
(-0.423849 0.518144 0.152347)
(-0.182921 0.306827 0.0724065)
(-0.453236 0.527912 0.0561528)
(-0.174435 0.314363 0.0301784)
(-0.594534 0.725122 0.223399)
(-0.371846 0.471698 0.130531)
(-0.635946 0.730639 0.0754266)
(-0.367404 0.480787 0.050916)
(-0.294048 0.381703 0.106417)
(-0.107146 0.244612 0.0473437)
(-0.316422 0.390672 0.0424447)
(-0.0954246 0.25693 0.0199072)
(-0.151117 0.257774 0.0521111)
(-0.102855 0.194781 0.0578287)
(-0.0737121 0.178113 0.0468153)
(-0.124382 0.189914 0.0731031)
(-0.0700802 0.257812 0.0842358)
(-0.0819347 0.200259 0.0922708)
(-0.0403998 0.180321 0.0562643)
(-0.100277 0.184095 0.0939989)
(-0.164976 0.258253 0.0628698)
(-0.0912721 0.191375 0.0404029)
(-0.0922255 0.174406 0.0324347)
(-0.1428 0.197797 0.0522679)
(-0.200899 0.272048 0.0187798)
(-0.0823955 0.195649 0.00441175)
(-0.116338 0.181203 -0.00504652)
(-0.134776 0.196062 0.00570581)
(0.0101814 0.0339005 0.0868474)
(0.00910213 0.0228434 0.0403952)
(0.00926608 0.0155517 0.0116581)
(-0.00197711 0.118615 0.0805682)
(0.00162193 0.0515185 0.022834)
(0.001953 0.0347842 0.00623924)
(0.0353021 0.0318382 0.0923293)
(0.0312646 0.0249285 0.0460707)
(0.0293492 0.0183209 0.0143589)
(-0.00225108 0.128288 0.0830447)
(0.00703679 0.0610203 0.0248371)
(0.00756798 0.0429599 0.00711482)
(0.0439552 0.0419545 0.0978428)
(0.0463147 0.0364561 0.0507525)
(0.0448921 0.0311747 0.0143186)
(-0.0120165 0.14128 0.0837284)
(0.0124946 0.0769296 0.0257267)
(0.0153686 0.0581167 0.0067773)
(-0.0167386 0.537038 0.252525)
(0.010089 0.395305 0.146227)
(0.00950994 0.315935 0.0428969)
(0.0706841 0.300078 0.176043)
(0.0720001 0.223533 0.101385)
(0.0618297 0.182702 0.0306458)
(0.0504287 0.191299 0.137829)
(0.0534253 0.143837 0.0757577)
(0.0486379 0.119615 0.0233489)
(0.0590582 0.146354 0.106074)
(0.0590659 0.108296 0.0549371)
(0.0548415 0.0893122 0.0153273)
(-0.00580367 0.170595 0.0846155)
(0.0173583 0.103004 0.0257105)
(0.0148655 0.0787788 0.00632981)
(-0.179989 0.401159 0.267964)
(-0.0902157 0.288957 0.146745)
(-0.0497509 0.226127 0.0487524)
(-0.0172382 0.265083 0.195996)
(0.0155707 0.189677 0.107978)
(0.0273208 0.149654 0.0362025)
(0.00115348 0.20398 0.146038)
(0.0258844 0.143206 0.0788518)
(0.0322518 0.110021 0.0260412)
(0.00152012 0.168634 0.110739)
(0.0241673 0.117588 0.0522682)
(0.0283554 0.091429 0.0160226)
(-0.0285157 0.226534 0.0934723)
(0.00887976 0.128843 0.0279782)
(0.0112939 0.0988576 0.00916789)
(-0.00331022 0.16499 0.0424046)
(-0.000706296 0.0770905 0.0132536)
(-7.6418e-05 0.0378749 0.0055815)
(8.82608e-05 0.0191692 0.00170321)
(-0.000112491 0.184379 0.0169106)
(0.000595001 0.0833124 0.00545544)
(0.000999142 0.0396372 0.00241353)
(0.000584632 0.0200088 0.000788409)
(-0.00838245 0.159643 0.0424026)
(-0.001904 0.0757986 0.0135814)
(-2.05182e-06 0.037752 0.00621345)
(0.000313238 0.0193029 0.0020818)
(-0.000348756 0.181982 0.0186492)
(0.0013108 0.0832357 0.00642698)
(0.00197633 0.0403692 0.00342554)
(0.00115192 0.0206491 0.00134111)
(-0.013546 0.150328 0.046372)
(-0.00359251 0.0739179 0.0153509)
(-0.000575219 0.0389022 0.00759442)
(0.000593403 0.0199565 0.0027513)
(-0.00670862 0.175207 0.0272431)
(-0.000561149 0.0833581 0.010443)
(0.000435644 0.0424896 0.00420969)
(0.000786165 0.0217398 0.0015496)
(-0.00376152 0.181856 0.0143119)
(-0.000361407 0.0858193 0.00669673)
(-0.000483752 0.0411309 0.00128917)
(-7.00338e-05 0.020987 0.000230727)
(-0.00608304 0.18432 0.0107076)
(-0.00163002 0.0878253 0.00580168)
(-0.000333038 0.0412788 0.00173406)
(0.00015827 0.0207642 0.000607843)
(-0.0264034 0.157604 0.0334872)
(-0.00807475 0.0776537 0.0122511)
(-0.00423433 0.040741 0.00503705)
(-0.000778921 0.0207588 0.00135397)
(-0.0329652 0.131805 0.0304508)
(-0.0100575 0.0690275 0.0108691)
(-0.00683745 0.0379544 0.00559124)
(-0.00104851 0.0186665 0.00127)
(-0.0218558 0.138964 0.0460364)
(-0.00657402 0.0708555 0.0156407)
(-0.00319727 0.0392459 0.00797725)
(0.000298043 0.019894 0.00256472)
(-0.0270579 0.120777 0.0391149)
(-0.00824533 0.0647222 0.0131433)
(-0.00606396 0.0365637 0.00739716)
(-0.000888074 0.0179522 0.00143647)
(-0.0238811 0.167957 0.0211346)
(-0.007452 0.0820498 0.00852066)
(-0.00368082 0.0412458 0.00311659)
(-0.000751822 0.0208879 0.000919752)
(-0.035827 0.138476 0.0204916)
(-0.0109305 0.0720984 0.00789107)
(-0.00725201 0.0386906 0.00390381)
(-0.00104852 0.0188902 0.0010897)
(-0.0238918 0.172858 0.0111766)
(-0.0077202 0.0847192 0.00528948)
(-0.00326597 0.0418222 0.00213451)
(-0.00044795 0.0210221 0.000870719)
(-0.0371813 0.141768 0.0106358)
(-0.0113733 0.0740885 0.0047678)
(-0.00746072 0.0394843 0.00240853)
(-0.00109857 0.0192201 0.000975483)
(-0.00255252 0.125753 0.0527398)
(-0.00064143 0.0666778 0.0163915)
(-0.000319469 0.0355176 0.00733286)
(-3.37275e-05 0.0180511 0.00199844)
(-0.00173184 0.0898598 0.0511914)
(-0.000412141 0.0552412 0.0157939)
(-0.000473525 0.0325124 0.00855538)
(2.38917e-05 0.0161913 0.00166759)
(-0.00655981 0.122073 0.0515482)
(-0.00171067 0.0656569 0.0162156)
(-0.000721386 0.0355901 0.00764455)
(3.41253e-05 0.0180955 0.00210151)
(-0.00322875 0.0896106 0.0489155)
(-0.000653889 0.0551641 0.0151145)
(-0.00100794 0.0325492 0.00841454)
(0.000111724 0.0162212 0.00157513)
(-0.0181304 0.116766 0.0504824)
(-0.00538853 0.0641932 0.0161)
(-0.00274774 0.0361208 0.00849433)
(-0.000271755 0.0182719 0.0024499)
(-0.0132111 0.0916806 0.0436636)
(-0.00369462 0.0559927 0.0134906)
(-0.00262509 0.0329095 0.00810614)
(0.000237065 0.0163141 0.0016131)
(-0.00880898 0.111971 0.0449132)
(-0.00250011 0.062095 0.0145049)
(-0.00154699 0.0357882 0.00844645)
(0.000791897 0.0181071 0.0029231)
(-0.00554737 0.0929823 0.0471335)
(-0.00132895 0.0564237 0.0145421)
(-0.00167407 0.0338413 0.009844)
(0.000478937 0.0166232 0.00214505)
(-0.0228323 0.106707 0.0334333)
(-0.00684051 0.0602056 0.0108026)
(-0.005266 0.0346009 0.00644009)
(-3.30287e-05 0.0170354 0.00169114)
(0.000415561 0.0584814 0.0387305)
(0.000273067 0.0455675 0.0112522)
(-3.72842e-06 0.0261797 0.00651382)
(0.000162452 0.00749455 0.00112609)
(0.00224131 0.0300167 0.014424)
(0.000816824 0.0408176 0.00392819)
(0.000281251 0.0235889 0.00204306)
(0.000171654 0.0067543 0.00048916)
(-0.000235707 0.0620099 0.0384374)
(0.000339373 0.046893 0.0112452)
(-0.000326827 0.0267853 0.00647314)
(0.000342829 0.00786364 0.00112075)
(0.00560818 0.0343992 0.0148281)
(0.00210376 0.0422871 0.00408224)
(0.000610965 0.0240829 0.00214231)
(0.000418051 0.00690625 0.000548631)
(-0.00228728 0.067984 0.0364777)
(-0.000173616 0.0490142 0.0107012)
(-0.000760321 0.0272917 0.00637548)
(0.000525034 0.00784497 0.00112273)
(0.00825846 0.0416579 0.0145535)
(0.00307512 0.0447961 0.00404305)
(0.000892992 0.0246618 0.00221902)
(0.000602022 0.00700043 0.000615732)
(-0.00199629 0.0775116 0.0310271)
(-2.851e-05 0.0519093 0.00900571)
(-0.000951138 0.0284841 0.00592548)
(0.000658791 0.00843008 0.00118141)
(0.00989044 0.0517766 0.0130436)
(0.00367186 0.0482342 0.0035466)
(0.000875539 0.0257408 0.00227449)
(0.000599495 0.0073479 0.000694178)
(-0.00550882 0.0923 0.0270598)
(-0.000791828 0.056055 0.00804852)
(-0.00231006 0.0304178 0.00534789)
(0.00017702 0.00948741 0.00128961)
(0.00697569 0.0655853 0.011999)
(0.00317147 0.051995 0.00341466)
(0.000214284 0.0268207 0.0022766)
(0.0003775 0.00764218 0.000747587)
(-0.0213135 0.105176 0.0186065)
(-0.00431169 0.0613095 0.00630432)
(-0.00486507 0.0315912 0.00321111)
(-0.000536095 0.00920897 0.000768371)
(-0.00588675 0.0727747 0.00954186)
(-5.93705e-05 0.0571074 0.00351949)
(-0.00107218 0.0289681 0.00153025)
(-0.000124249 0.00805884 0.000565815)
(-0.0129501 0.102159 0.0215183)
(-0.00216669 0.0590757 0.00667689)
(-0.00390415 0.0308393 0.00415219)
(-0.000287745 0.00918538 0.00100721)
(-0.000284736 0.0716946 0.0105336)
(0.00158863 0.0551738 0.00339159)
(-0.000537228 0.0278854 0.00193031)
(9.8002e-05 0.00783218 0.00070059)
(-0.0277731 0.106022 0.0140377)
(-0.00648071 0.0626773 0.00536851)
(-0.00564203 0.0316723 0.00246058)
(-0.000705982 0.00875074 0.000683668)
(-0.00916435 0.0727193 0.00778905)
(-0.00138716 0.0584803 0.00323394)
(-0.00143589 0.0294509 0.00120217)
(-0.000261887 0.0080234 0.000493956)
(-0.0314618 0.105276 0.00813036)
(-0.00816863 0.0639304 0.00374365)
(-0.0061957 0.0323441 0.00177478)
(-0.000874544 0.0088542 0.000726958)
(-0.0112701 0.0755509 0.00530301)
(-0.0025198 0.0597893 0.00259126)
(-0.00171337 0.0300767 0.0010929)
(-0.000355927 0.0081397 0.000534529)
(3.10314e-05 0.0096088 0.000353428)
(2.20225e-05 0.00469499 7.44015e-05)
(1.0379e-05 0.00218327 1.8311e-05)
(4.29295e-06 0.000922406 5.37442e-06)
(2.04538e-06 0.000250488 2.1574e-06)
(0.000101394 0.0098637 0.000147823)
(4.39239e-05 0.00474748 3.28767e-05)
(1.78584e-05 0.00219458 8.4572e-06)
(6.99928e-06 0.00092514 2.55999e-06)
(3.2652e-06 0.000251043 1.04617e-06)
(4.04859e-05 0.00975782 0.000394093)
(4.49606e-05 0.00473118 9.59316e-05)
(2.17652e-05 0.00219715 2.76937e-05)
(8.99921e-06 0.000927651 9.13562e-06)
(4.2722e-06 0.000251813 3.92784e-06)
(0.000259022 0.0100395 0.000228727)
(0.000121491 0.00479549 6.90752e-05)
(4.91394e-05 0.00221334 2.27218e-05)
(1.91096e-05 0.000932186 8.03977e-06)
(8.87408e-06 0.000252815 3.5802e-06)
(0.000105688 0.00978157 0.000543621)
(7.70736e-05 0.00475906 0.000160656)
(3.37707e-05 0.00221168 5.26058e-05)
(1.34241e-05 0.00093343 1.85935e-05)
(6.26215e-06 0.000253285 8.26988e-06)
(0.000406187 0.0100607 0.000680826)
(0.000180007 0.00486195 0.000242452)
(7.09949e-05 0.00224277 8.7284e-05)
(2.72626e-05 0.000943242 3.22837e-05)
(1.25793e-05 0.000255576 1.46882e-05)
(0.000110841 0.0104299 0.000604734)
(5.37734e-05 0.00498603 0.0002323)
(2.2023e-05 0.00228978 8.66123e-05)
(8.60728e-06 0.000960052 3.26552e-05)
(4.01208e-06 0.000259705 1.50381e-05)
(7.34634e-06 0.0105458 0.000484129)
(1.89146e-05 0.00508189 0.000203792)
(9.85495e-06 0.00233144 8.01081e-05)
(4.18214e-06 0.000975669 3.12436e-05)
(2.01887e-06 0.000263615 1.47207e-05)
(0.000109402 0.0101139 0.000574375)
(6.5611e-05 0.00487953 0.000187418)
(2.81857e-05 0.00225565 6.55167e-05)
(1.11298e-05 0.000948903 2.39758e-05)
(5.1808e-06 0.000257061 1.08787e-05)
(-4.02602e-05 0.00982936 0.000424391)
(9.01683e-07 0.00484566 0.00014298)
(2.46547e-06 0.00225185 5.06941e-05)
(1.22695e-06 0.000948671 1.86717e-05)
(6.13703e-07 0.000257095 8.49633e-06)
(0.000326022 0.00970742 0.000614701)
(0.000135981 0.00479311 0.000192858)
(5.19005e-05 0.00222829 6.60529e-05)
(1.95996e-05 0.000939773 2.38934e-05)
(8.95874e-06 0.000254875 1.0744e-05)
(3.2267e-05 0.00963684 0.000375338)
(2.35461e-05 0.00479754 0.000125613)
(1.02363e-05 0.00223593 4.45934e-05)
(4.03191e-06 0.000943242 1.63956e-05)
(1.87189e-06 0.000255784 7.42928e-06)
(-8.73756e-05 0.0103208 0.000551469)
(-4.91156e-06 0.00496192 0.000197799)
(2.27835e-06 0.00228569 7.18494e-05)
(1.46618e-06 0.000959434 2.68415e-05)
(7.78175e-07 0.000259629 1.23365e-05)
(-4.83182e-05 0.00996342 0.000443722)
(5.24881e-07 0.00491766 0.000170835)
(2.66043e-06 0.00227981 6.40999e-05)
(1.35109e-06 0.000958678 2.42777e-05)
(6.80276e-07 0.000259552 1.12199e-05)
(-0.000129367 0.0104348 0.000444069)
(-1.35875e-05 0.0050617 0.000186092)
(3.77875e-07 0.00233017 7.3187e-05)
(9.74339e-07 0.000976291 2.85723e-05)
(6.00542e-07 0.000263866 1.34757e-05)
(-8.93466e-05 0.0100841 0.000417071)
(-1.18432e-05 0.00501144 0.000178002)
(-1.35536e-06 0.0023225 7.05264e-05)
(-6.6303e-08 0.000975024 2.7612e-05)
(4.84776e-08 0.000263676 1.30413e-05)
(1.40205e-05 0.00920473 0.000360144)
(1.57603e-05 0.00461982 7.04686e-05)
(7.65404e-06 0.00216835 1.64882e-05)
(3.18595e-06 0.000919026 4.67437e-06)
(1.52245e-06 0.000249828 1.83692e-06)
(4.76374e-05 0.00883285 0.000153283)
(2.06909e-05 0.00456381 2.85456e-05)
(8.20014e-06 0.00215821 6.49469e-06)
(3.17974e-06 0.000916845 1.80863e-06)
(1.47718e-06 0.000249414 7.02417e-07)
(5.05864e-05 0.00926679 0.000371685)
(4.01873e-05 0.0046458 7.95943e-05)
(1.82099e-05 0.00217872 2.11065e-05)
(7.36436e-06 0.000922913 6.63036e-06)
(3.4698e-06 0.000250806 2.77629e-06)
(0.000120538 0.00890986 0.000149316)
(4.93336e-05 0.00459111 2.96713e-05)
(1.91162e-05 0.00216803 7.42644e-06)
(7.31942e-06 0.000920346 2.24932e-06)
(3.37608e-06 0.000250279 9.22138e-07)
(6.1061e-05 0.00932608 0.00036432)
(5.09636e-05 0.00467788 9.00581e-05)
(2.27199e-05 0.00219253 2.67537e-05)
(9.06987e-06 0.000928119 8.99795e-06)
(4.23985e-06 0.00025211 3.89778e-06)
(0.000186727 0.00906082 0.000169443)
(6.878e-05 0.00463235 4.37489e-05)
(2.53792e-05 0.0021824 1.34281e-05)
(9.48953e-06 0.000925401 4.60215e-06)
(4.3276e-06 0.000251517 2.01201e-06)
(0.000288087 0.00941418 0.000528995)
(0.000106164 0.00472165 0.000162245)
(3.85246e-05 0.00220986 5.43753e-05)
(1.42314e-05 0.000934339 1.94004e-05)
(6.43531e-06 0.000253637 8.62781e-06)
(0.000177134 0.00927263 0.00026995)
(5.79005e-05 0.00469073 8.11142e-05)
(2.01482e-05 0.00220105 2.69916e-05)
(7.33208e-06 0.000931591 9.59604e-06)
(3.30066e-06 0.000252996 4.25304e-06)
(0.000182916 0.00943718 0.000460304)
(6.54939e-05 0.00475973 0.000158586)
(2.34487e-05 0.0022236 5.63724e-05)
(8.60727e-06 0.000939074 2.0664e-05)
(3.88175e-06 0.000254781 9.3201e-06)
(-0.0199128 0.608946 0.17961)
(-0.0273479 0.954872 0.313939)
(-0.0561822 0.627482 0.172088)
(-0.0798586 0.961092 0.305847)
(-0.0879594 0.657894 0.164066)
(-0.131253 0.970939 0.286089)
(-0.104869 0.694054 0.162236)
(-0.174811 1.00737 0.275694)
(-0.0949808 0.723288 0.168475)
(-0.161016 1.07761 0.300197)
(-0.0932311 0.615467 0.0989648)
(-0.139454 0.753908 0.132672)
(-0.0689029 0.651706 0.133169)
(-0.0924476 0.840042 0.200554)
(-0.126557 0.602181 0.0648395)
(-0.18164 0.72992 0.0784229)
(-0.140696 0.59287 0.0224611)
(-0.196366 0.722447 0.0286513)
(-0.0343696 0.502548 0.545656)
(-0.00786855 0.0916534 0.135242)
(-0.00180188 0.0207368 0.032276)
(-0.000413293 0.00482282 0.00763143)
(-0.000115861 0.000877581 0.00217009)
(-0.0109583 0.597828 0.147406)
(-0.00474798 0.168793 0.0402045)
(-0.000465098 0.0422315 0.0111144)
(-0.000161104 0.00990313 0.00264823)
(-7.35061e-05 0.00178689 0.000679696)
(-0.1113 0.506541 0.535807)
(-0.0256441 0.0892942 0.131126)
(-0.00590761 0.019871 0.0311097)
(-0.00136598 0.00458785 0.00731588)
(-0.000386029 0.000831439 0.00207449)
(-0.0277678 0.600128 0.152698)
(-0.00619196 0.167457 0.0453807)
(-0.00134886 0.0414356 0.0115526)
(-0.000296961 0.00960978 0.00284054)
(-7.79846e-05 0.00173141 0.000799482)
(-0.194116 0.51344 0.506523)
(-0.0450347 0.0873883 0.122134)
(-0.0104567 0.0190264 0.0287459)
(-0.00244683 0.00434949 0.00673183)
(-0.000700828 0.000785131 0.00190718)
(-0.0512977 0.606079 0.148176)
(-0.0131849 0.166058 0.0437025)
(-0.00317828 0.0404788 0.0110297)
(-0.000786607 0.00930763 0.00268449)
(-0.000233149 0.00166996 0.000748618)
(-0.272963 0.520136 0.462117)
(-0.0638547 0.0845534 0.109595)
(-0.0150292 0.0180176 0.0256638)
(-0.00357617 0.00409639 0.00601926)
(-0.00104531 0.000739887 0.00171728)
(-0.0741536 0.613682 0.141065)
(-0.0211636 0.164151 0.0405831)
(-0.00548559 0.0395488 0.0100452)
(-0.00142311 0.0090656 0.00240863)
(-0.000439777 0.00162766 0.00066332)
(-0.371823 0.518715 0.392276)
(-0.0898346 0.0813024 0.092046)
(-0.0217017 0.0172988 0.0216426)
(-0.00529349 0.00397365 0.00513088)
(-0.00158921 0.000725194 0.00148924)
(-0.102734 0.61429 0.127943)
(-0.033381 0.161253 0.0352659)
(-0.00913132 0.0389836 0.00856031)
(-0.00242698 0.00902681 0.00203394)
(-0.000763669 0.00163635 0.000557513)
(-0.481926 0.471101 0.210509)
(-0.128158 0.088607 0.053141)
(-0.0329965 0.0211455 0.0130453)
(-0.00848097 0.00521279 0.00319787)
(-0.00266871 0.000992593 0.000958526)
(-0.125739 0.522823 0.0646992)
(-0.0422927 0.157478 0.0168355)
(-0.0118611 0.0416182 0.00380626)
(-0.00320317 0.0103 0.000829694)
(-0.00102676 0.00195361 0.000208039)
(-0.446816 0.493425 0.299067)
(-0.114757 0.0861332 0.0731548)
(-0.0286988 0.0194877 0.0175784)
(-0.00718913 0.00463553 0.00423836)
(-0.0022097 0.000863425 0.00125303)
(-0.118277 0.560509 0.0901493)
(-0.0408727 0.159917 0.0240615)
(-0.0114872 0.0404268 0.00571951)
(-0.00309353 0.00965608 0.00133921)
(-0.000980611 0.00178775 0.000363052)
(-0.497615 0.458441 0.130317)
(-0.134332 0.0901999 0.0338155)
(-0.035118 0.0222205 0.00844282)
(-0.00916278 0.00560952 0.00209573)
(-0.00292339 0.0010851 0.000634095)
(-0.131531 0.506736 0.040917)
(-0.0424669 0.155967 0.0109051)
(-0.0116752 0.0422543 0.00242854)
(-0.00311363 0.010702 0.000500235)
(-0.000995159 0.00206555 0.000116486)
(-0.510995 0.452409 0.0471581)
(-0.137621 0.0882972 0.0124242)
(-0.0361799 0.0218791 0.00313411)
(-0.00951215 0.00557842 0.000785349)
(-0.00305811 0.00108781 0.000239716)
(-0.133663 0.499663 0.0181852)
(-0.0429697 0.153665 0.00452707)
(-0.0117504 0.0419827 0.000966937)
(-0.00293078 0.0107348 0.000263985)
(-0.000982592 0.0020869 4.21316e-05)
(-0.0222292 1.60736 -0.103045)
(-0.328902 2.33596 -0.0019783)
(-0.319207 2.07106 0.191697)
(-0.174294 1.49358 -0.179004)
(0.162633 0.798416 0.0423091)
(0.224428 0.845945 0.0451812)
(0.444953 1.27883 0.113894)
(0.592233 1.30095 0.140008)
(0.241563 0.886702 0.0955305)