/*--------------------------------*- C++ -*----------------------------------*\
| =========                 |                                                 |
| \\      /  F ield         | OpenFOAM: The Open Source CFD Toolbox           |
|  \\    /   O peration     | Version:  2412                                  |
|   \\  /    A nd           | Website:  www.openfoam.com                      |
|    \\/     M anipulation  |                                                 |
\*---------------------------------------------------------------------------*/
FoamFile
{
    version     2.0;
    format      ascii;
    arch        "LSB;label=32;scalar=64";
    class       volScalarField;
    location    "0.7";
    object      gradTy;
}
// * * * * * * * * * * * * * * * * * * * * * * * * * * * * * * * * * * * * * //

dimensions      [0 -1 0 1 0 0 0];

internalField   nonuniform List<scalar> 
5712
(
15359
8445.46
26406.4
17460.4
25514.3
21947.4
36651
46351.2
56179.5
72369.7
30188.3
26831
18536.1
12922
12400.8
7075.93
24397.7
20497.9
22461.6
21280.9
27727.7
25427.1
32865.8
27101.4
8801.72
5876.51
4635.45
3212.15
12524.2
7795.61
7009.51
4589.21
26672.5
27435.5
22806.5
17036
17937.9
14691.9
15506.3
14958.5
20136
20124.2
43065.7
47844.6
29536.9
31729.4
23541.6
18607.1
22872.2
15815.7
9796.4
8641.52
7921.21
13490
3986.74
5924.8
10417.2
17701.2
6698.07
9846.03
10327.8
20921.5
8057.51
14410.5
2381.3
9530.68
308.461
6776.62
19236.5
23367
21198.5
23692.3
23735
23566.5
25230.2
23684.4
20018.4
24365.5
19260.7
23675.4
21693.4
23870.6
21500.3
23930.9
26014.7
23782.8
26373.3
23842.9
19066.8
24606.6
17464
24639.7
22970.1
26332.9
28865
43682
24201.2
31273.9
28839.8
48982.4
21678.5
22964.1
28622.5
40904
20862.4
20966.4
28602
39659.1
7175.11
9491.08
19887.3
34207.9
8346.69
9704.01
23990.6
37366.9
9527.35
10024.4
28618.5
40487.7
27413.6
27357.4
25665
25504.5
39083.1
27545.8
25788.3
25277.1
22965.6
45726.5
25121.8
24828
22747.2
26641.6
57285.5
2305.63
3047.54
6802.77
15161.2
3189.85
4578.75
8586.67
16801.7
4585.86
4373.48
11034.9
18842.9
25726.1
23642.7
22815.4
19989.6
21403.3
17237.5
16586.9
13604.8
14808.1
23172.4
22875
19117.7
22479.8
19500.7
20560.8
17543.9
19665.1
16180
17134.9
24224.7
23858.7
24720.1
25007.8
26856.3
22647.7
20288.6
23384
21870.7
23346.4
23097.6
22915.6
22125.1
25563.9
27601.2
25549.6
27531.2
23936.5
22981.3
23858.6
22993.9
23071.3
22859.8
23486.6
23141.3
21622.8
20924.1
15547.3
18782.5
21935.8
20634
16279.4
19975.1
20877.3
20490.5
15242.6
18544
21020.2
20225.8
15020.7
18004
2313.85
1638.27
1068.04
1132.53
823.244
786.097
3604.68
2089.23
1399.92
2723.46
2150.11
1602.77
3440.38
2656.33
2456.33
4922.23
3658.88
2927.56
19708.2
14498.3
11465.5
17405.6
13689
11308.1
12565.1
10163.5
8791.34
10044.6
8015.13
6840.22
8089.01
4865.38
3309.26
15611.3
11899.6
9661.75
16537
12727.8
10584
13100.4
9523.61
7740.66
10340.7
7504.03
6129.54
7958.74
4720.18
3210.45
30502.4
30695.5
33190.4
29602.1
30886.7
29762.5
37830.3
31322.3
18600.1
19448.6
18766.9
17707.6
24898.5
20865.9
24782.9
18730.3
27134.4
27706.7
22986.7
25206.7
28789.9
25973.1
31325.6
32937
34237.1
37260.7
26269.7
27278.6
22738.5
22646.3
25333.1
24634.8
15709.5
8629.48
14920.8
9573.35
15367.7
8453.75
14479.5
9255.04
14134.1
7769.63
13595.4
8774.21
13436.9
9097.93
12927.4
9030.94
22467.9
16599.1
22613.8
17195.9
25757.3
22006.4
26650.9
22260.3
20315
12899.8
20584.1
12136.8
23485.9
17556.2
24376.6
17667.2
27869.7
22523
28703.6
22642
20064.3
13256.5
20060.1
13333.5
11442.4
7465.85
9392.36
5932.8
10297.7
6621.47
8579.36
5392.2
11835.4
7920.88
9767.91
6227.45
11952.3
8174.65
9861.84
6362.34
2429.87
1243.74
4474.12
2602.8
2486.47
1402.98
4513.05
2824
2647.23
1824.4
4431.57
3175.38
11588.6
20705
7387.46
6679.01
4870.33
20933.8
12567.7
6636.93
5884.63
3776.63
20373.8
13958.8
9828.74
7010.49
4558.67
768.678
599.943
1778.59
1463.79
947.074
637.139
2084.35
1698.81
1326.08
955.768
2472.44
2034.99
20573.2
17823.3
12113.9
9813.33
7068.84
5844.81
5281.59
4261.55
3365.45
2789.38
17950
14026.7
12240.8
9319.16
8638.25
6748.23
5922.98
4734.05
4048.89
3750.16
11858.7
8200.57
12273.3
7901.7
16219.7
11017.9
16936.1
11223.1
9359.34
6397.62
9112.11
6687.51
12953.6
7670.69
13197.8
7859.07
18128
11792.4
18266
12019.7
9542.57
6115.3
9766.79
6423.25
6444.35
4869.52
4452.81
4747.86
6445.31
5006.48
4508.03
4602.38
6456.34
4784.37
4360.14
4944.92
6801.19
4891.23
4530.08
4901.54
847.512
571.086
388.794
2965.39
1287.96
869.604
795.954
623.212
458.023
3207.2
1525.51
1074
1048.86
911.403
779.367
3532
1923.24
1452.92
13426
9882.62
7898.37
7501.94
5588.33
4567.54
4782.47
3595.94
2990.37
3658.86
2707.4
2232.81
4264.88
2575.1
1969.47
10029
7223.93
5653.19
6627.09
4741.92
3741.36
5099.5
3580.15
2750.54
4215.86
2939.7
2285.72
5663.34
3221.08
2471.44
4124.76
1927.26
946.871
479.229
4609.48
2082.81
990.931
500.221
3991.08
1894.97
943.799
482.571
4549.56
2080.89
1009.23
516.227
3758.19
1847.95
972.555
498.913
4380.17
2083.95
1062.24
543.494
4546.41
2145.48
1028.27
524.675
4607.99
2195.63
1031.97
519.104
3940.09
1941.34
1018.52
518.971
3295.14
1725.69
948.861
466.662
3474.11
1771.39
981.147
497.349
3019.43
1618.06
914.091
448.806
4198.91
2051.25
1031.14
522.197
3461.91
1802.46
967.264
472.255
4321.44
2117.98
1045.55
525.552
3544.19
1852.21
987.106
480.504
3143.83
1666.95
887.941
451.278
2246.5
1381.03
812.811
404.781
3051.82
1641.42
889.752
452.387
2240.27
1379.1
813.729
405.529
2919.15
1604.83
903.019
456.797
2292.02
1399.82
822.738
407.852
2799.27
1552.38
894.706
452.676
2324.56
1410.59
846.033
415.581
2667.67
1505.14
865.022
425.885
1462.04
1139.19
654.493
187.364
750.418
1020.44
589.723
168.857
1550.25
1172.32
669.632
196.591
859.981
1057.18
602.072
172.656
1699.6
1225.35
682.292
196.124
1041.45
1119.9
616.544
175.011
1937.79
1297.73
712.103
210.752
1294.42
1205.85
643.521
183.698
2307.5
1401.38
760.444
237.185
1639.63
1299.87
670.518
191.054
2629.41
1532.74
789.78
230.224
1819.37
1427.68
724.203
201.471
2553.98
1476.89
770.982
229.635
1792.37
1379.34
697.136
195.805
2650.55
1566.93
791.809
218.768
1817.98
1462.01
736.273
200.585
2631.9
1598.26
808.603
221.355
1888.77
1494.73
751.917
203.493
240.22
117.375
54.5816
23.0601
6.26221
246.592
118.687
54.8644
23.1285
6.27607
243.946
118.279
54.9288
23.1913
6.29533
250.987
119.887
55.3334
23.3047
6.32036
244.539
118.977
55.292
23.3358
6.33213
251.518
121.549
56.0694
23.5811
6.38941
260.749
124.651
57.2445
24.0013
6.49262
263.644
127.047
58.286
24.3917
6.59038
252.848
121.988
56.3914
23.7226
6.42652
245.734
121.141
56.2962
23.7168
6.42738
242.686
119.828
55.7072
23.4943
6.37188
240.921
119.938
55.8982
23.5811
6.3946
258.019
124.048
57.1421
23.9859
6.49073
249.086
122.941
56.9952
23.9669
6.4888
260.869
126.543
58.2543
24.4073
6.59666
252.103
125.286
58.0625
24.3756
6.59189
230.118
115.496
54.2089
22.9756
6.24571
220.821
114.095
53.9553
22.9211
6.23535
231.67
116.145
54.468
23.0728
6.27016
222.747
114.778
54.2007
23.0087
6.25697
233.152
116.947
54.8134
23.203
6.30276
226.52
115.809
54.56
23.135
6.28793
235.355
118.041
55.2465
23.3585
6.34093
231.816
117.268
55.0263
23.2898
6.32491
235.93
118.993
55.5899
23.4769
6.36953
15223.7
23871.8
15687.1
24027.3
16447.4
24273.5
17351.3
25184.3
18082.2
26940.1
15386.7
18847.7
16292.6
21001
15054.5
18248
14821.8
18061.2
12563.7
2291.34
518.42
120.571
21.9395
14945.7
4219.83
1055.79
247.578
44.6721
12663.5
2232.35
496.776
114.696
20.786
15003.2
4186.42
1035.89
240.244
43.2853
12836
2184.71
475.659
108.737
19.6283
15152
4151.46
1011.97
232.691
41.749
13003.4
2113.84
450.441
102.41
18.4972
15342.1
4103.77
988.721
226.64
40.6915
12967.9
2032.56
432.47
99.3413
18.1299
15357.2
4031.32
974.591
225.67
40.9088
11777.5
2215.18
528.636
130.32
24.8148
13070.6
3936.95
1040.45
257.499
48.8404
12335.6
2153.33
487.193
115.888
21.5856
14012.7
3997.94
1010.67
241.402
44.6938
11461
2255
555.514
140.238
27.1276
12668.4
3899.17
1056.36
267.551
51.6389
11310.2
2207.43
546.979
139.461
27.1954
12491.6
3841.62
1049.57
268.371
52.1725
40184
58398.9
51776.6
37339.6
19960.4
21148.6
31970.8
32523.7
22167.6
24119.5
36234.4
49497
54195.9
75088.9
27190.1
30352.9
21518.1
21267.8
14713.5
15269.9
3512.22
2195.06
209.68
127.569
156.427
123.301
184.689
3093.74
2691.58
1564.16
1865.34
1418.3
567.663
958.946
671.764
393.22
464.053
340.761
2783.87
1211.66
510.726
466.446
698.574
565.376
374.86
343.792
248.712
216.75
344.649
327.908
3024.21
1616.65
1753.21
1000.32
724.949
1233.86
378.931
226.181
442.801
6934.37
6306.95
5514.5
5760.69
8744.97
4585.65
4543.98
4213
4308.95
4651.59
526.969
696.132
787.645
830.699
847.36
324.846
438.422
505.863
540.257
554.121
397.674
535.066
614.967
654.209
669.347
314.69
426.179
493.05
527.21
540.879
466.684
621.831
708.587
749.964
765.797
6465.05
6205.46
5273.44
5123.4
7529.66
5423.56
5010.79
4293.44
4054.01
4520.34
3387.55
3499.91
3239.38
3149.46
3239.56
3765.3
3570.89
3096.81
2853.55
2933.7
2884.99
2792.36
2435.87
2229.68
2230.87
1335.07
1588.08
1641.69
1640.1
1641.59
2141.61
2342.62
2266.16
2199.08
2201.31
1534.77
1742.19
1731.21
1687.36
1671.42
952.363
1186.39
1272.88
1294.9
1299.99
1103.82
1336.6
1400.09
1403.78
1401.41
833.453
1054.2
1144.91
1171.63
1177.52
5899.17
5797.03
5049.76
5047.29
7494.21
2728.39
3000.55
2917.77
2899.74
2970.14
1223.05
1495.11
1580.58
1601.7
1612
1127.6
1398.87
1497.89
1530.36
1544.95
1641.51
1943.58
2004.95
2021.34
2045.3
1359.69
1668.59
1770.04
1804.99
1823.08
921.711
1173.93
1286.16
1332.75
1351.13
848.168
1086.75
1195.65
1238.95
1254.83
621.47
813.198
910.381
950.512
963.75
544.912
720.034
813.674
855.536
870.571
845.825
1075.52
1174.65
1208.98
1219.82
809.188
1037.74
1142.22
1182.41
1196.42
6170.71
5836.04
5120.82
5290.01
7942.32
3509.6
3686.89
3537.57
3594.93
3798.35
4134.78
4482.02
4090.44
4150.35
4467.41
2325.93
2682.65
2710.98
2748.68
2798.13
1725.34
2072.11
2157.73
2192.09
2214.89
2841.47
3163.03
3067.22
3077.32
3109.71
930.959
1184.37
1295.63
1339.95
1357.02
567.087
746.123
840.47
882.915
898.65
1076.94
1348.08
1454.16
1492.09
1507.74
23052.4
15321.4
24258.5
18727.4
28410.1
42370.6
30724.2
44584.4
25147.6
23789.4
22528.9
22603.5
25336.9
24416.4
32527.1
26695.2
18539.2
17370.6
8268.95
6921.92
21466.7
18033
11392.9
7917.98
28084.8
30603.7
24776.7
21431
27171.1
17954.6
15783.3
15136.1
20837.1
20372.8
43895
48280.9
29620.6
31850.7
24752.1
18943.1
24309.3
16154
10744.7
8851.45
19308.3
23792.7
7722.12
9614.14
20414.9
26409.4
10253.5
13351.6
17401.3
26622
10718.3
17213
2866.97
10574.4
349.529
6990.38
21366.3
22901.8
21813.3
23563.8
23198.8
22482.5
24868.3
23148.8
21577.5
24695.5
23260.7
23972.3
22002.2
23845.6
21582.6
23927.3
25904.8
23539.9
26360.2
23768.4
19730.7
24824
17623.5
24714.7
24295.2
28178.9
29616.1
44638
26235.9
34349.1
29919.6
50365
22364.7
23888.2
29059.1
41472
21060.3
21229.7
28749.9
39855.2
26188.4
29690.6
35509
51015.1
24684.6
26353.9
36504.8
50466.9
21071.2
21414.9
36645.3
48180.8
21506.5
21644.1
24030.1
26732.5
42878.6
21159.9
19743.3
24991.2
24264.3
49690.3
21131.4
21586.3
21813.1
27921.7
59048.7
16659.2
15167
14666.5
19332
16135.6
14947.2
14960.1
19943.9
14711.5
12796.1
14854.3
20058.9
19997.7
18324
18590.5
16833.5
21805.7
18895.6
18232.1
15467.3
16435.9
22683
19825.1
17475.2
20200.6
18612.8
19983.8
17652.3
20548.9
16926.8
17544.3
22986.4
22849.8
23900.4
24539.6
26358.4
21308.4
19412.1
22721.8
21371.5
23260.8
22893.9
22620.1
21807.5
25376.6
27387.9
25500
27470.3
23645
22758
23775.5
22928
23059.7
22772.7
23485.9
23117.5
21808.4
20939.2
15760.4
18842.2
22233.3
20675.4
16620.3
19883.8
20988.1
20512.4
15364.4
18609.5
21063.4
20238.2
15067.7
18031.8
14004.7
15111.7
5525.63
5611.71
13633.3
13453.6
6446.78
6644.18
10752.7
10066.7
7192.63
6821.73
16673.1
14863
16191.8
15135
15546.2
14255.5
12494.2
10882.7
9268.15
6758.2
15990.6
14384.6
17859.8
16007.6
14728.7
12602.6
12038.2
10083.1
8018.56
5662.62
24851.3
24071.2
30888.6
26586.2
27845.8
25982.4
38366.6
30065.5
19636.3
14512.5
21860
16059.1
20367.8
14575.5
22698.6
16088.5
23342.2
20631.6
20055.2
18681.3
20033.5
22136.1
29856.6
32502.5
33715.5
37129.9
24509
26771.3
21252.8
22221.3
23328.2
24028.7
11410.1
8475.54
12661.2
8951.84
11133.4
8276.12
12418.1
8722.61
10598.7
7642.36
11876.9
8329.05
12446.7
8741.34
12604.5
8898.75
18226.1
15465.4
20640.1
16383.4
22758.9
20303.2
25320
21318.2
18116.8
12392.7
16216.3
11704.5
22504.5
17096.3
24087.8
17516.1
27265.2
22051.2
28536.4
22495.7
18946
12918.2
19719.9
13214.3
10739.1
7380.94
9245.36
6054.72
9693.91
6929.55
8749.04
5832.28
11377.6
7784.33
9607.78
6240.92
11801.8
8116.43
9798.45
6359.96
9444.59
9237.44
7600.98
7091.52
9004.41
8967.75
7329.76
6844.98
8396.38
8313.99
6647.65
6171.28
15177.9
20159
12782.6
8522.53
6360.69
19497.5
16095
13679.6
8391.16
5897.14
19312.2
14812.4
11214.3
8459.49
5682.23
9637
10106.6
7088.16
7233.35
9164.13
9249.7
6718.11
6754.2
8230.24
7929.95
5828.4
5539.52
18178.2
15629.8
13751.1
11614.7
11736.8
10768.2
8067.05
7519.66
5623.66
5231.53
16680
13222.4
12676.3
9783.12
9969.96
8128.87
7547.74
6445.36
5248.1
5077.53
11674
8328.81
12058
7929.68
15414.2
10685.9
16449.3
11031.2
9369.81
6568.49
9388.35
7168.84
12785.5
7644.44
13136.4
7843.75
17866.2
11682
18184
11984
9471.94
6137.52
9727.81
6417.85
6596.47
5114.5
4671.14
5080.49
6981.12
5657.12
5073.96
5365.45
6467.05
4846.5
4433.26
5075.21
6796.69
4903.74
4551.51
4935.01
11392.1
11364.1
11703.1
9947.04
10046.9
9951.8
10922.5
9302.56
8250.7
8034.02
9319.33
7982.85
13196.8
11658.3
10184
9194.66
9923.89
9247.38
7285.37
6492.45
8768.99
7469.1
10092.5
8986.25
7612.38
6928.66
6863.47
6225.51
6358.08
5624.49
8984.35
7200.39
4696.71
2277.35
1113.16
560.77
4872.49
2339.49
1131.47
574.223
4512.64
2221.05
1096.19
557.933
4763.72
2300.28
1130.52
581.898
4207.84
2138.15
1109.26
566.447
4531.71
2254.86
1162.48
598.49
4602.34
2242.87
1091.46
559.642
4619.82
2227.26
1052.69
531.035
4121.33
2087.68
1100.86
563.904
3496.17
1863.34
1022.38
504.25
3888.1
2015.74
1101.59
557.277
3411.69
1844.49
1021.67
498.416
4266.52
2127.78
1078.44
549.436
3552.74
1874.95
1010.69
496.236
4336.69
2141.98
1061.41
534.803
3570.22
1874.8
1001.59
488.557
4368.63
2167.47
1096.62
544.14
3955.32
2021.53
1066.63
504.835
4157.55
2112.81
1086.94
540.315
3760.7
1977
1053.89
501.05
3856.13
2030.8
1085.76
537.927
3491.4
1911.88
1035.24
493.375
3565.38
1914.92
1052
521.176
3309.94
1852.64
1031.08
489.017
3322.34
1823.29
1006.25
482.765
3368.7
1855.07
904.748
243.463
2442.99
1753.64
849.976
228.15
3226.78
1831.41
905.957
251.717
2367.75
1731.66
846.744
229.204
3021.79
1787.19
887.79
244.217
2246.56
1695.47
830.314
224.98
2990.46
1758.96
891.458
255.179
2288.32
1674.76
823.628
227.119
3037.53
1741.07
905.272
276.63
2409.6
1655.98
813.136
226.869
2835.62
1672.77
868.866
254.008
1983.86
1565.67
794.002
220.635
2969.41
1708.64
884.017
261.407
2164.74
1612.68
801.269
223.024
2738.18
1639.06
837.261
232.737
1874.63
1531.21
775.048
211.52
2652.69
1619.9
823.128
225.893
1900.42
1515.1
764.07
206.98
280.099
134.626
61.5896
25.6951
6.92835
283.645
135.191
61.6477
25.6906
6.92483
281.583
134.221
61.3739
25.6128
6.9076
284.207
134.575
61.3556
25.5794
6.89658
278.807
133.365
61.0939
25.5161
6.88373
278.048
133.253
60.879
25.4025
6.8515
277.431
131.823
60.2271
25.1405
6.78276
269.83
129.817
59.4504
24.8389
6.70457
275.515
131.993
60.5236
25.2929
6.82564
267.502
130.996
60.3822
25.2722
6.82304
272.318
132.407
60.8003
25.4141
6.85833
268.483
131.419
60.5681
25.3476
6.84297
273.181
131.147
60.1314
25.1311
6.78269
263.092
129.911
59.9717
25.1119
6.78108
265.882
128.917
59.2692
24.7991
6.69684
256.778
127.709
59.1199
24.7861
6.69704
273.905
133.699
61.4831
25.6936
6.93136
268.681
132.987
61.3992
25.6898
6.93277
273.755
133.405
61.3326
25.6351
6.91655
268.924
132.821
61.2853
25.6419
6.92033
272.668
132.862
61.1189
25.5569
6.89692
269.791
132.554
61.1203
25.5747
6.90294
271.368
132.224
60.8784
25.4678
6.87426
271.266
132.296
60.9444
25.4995
6.88301
267.954
131.741
60.7067
25.4027
6.8574
17257.5
23456.5
17183.3
23357.2
17182.3
23229.5
17584
23899.9
17955.9
25395.6
15476.5
18855.6
16336.9
20711.6
15127
18300.4
14846.1
18082.8
13092.5
2341.48
526.614
122.437
22.2965
15078.1
4272.91
1070.42
251.34
45.4006
13050.3
2267.47
502.831
116.195
21.086
15007.9
4215.84
1046.39
243.273
43.9056
13003.7
2197.45
478.619
109.714
19.8484
14964.6
4145.62
1016.41
234.666
42.2097
12991.3
2107.97
450.745
102.911
18.6403
15006.4
4069.07
987.943
227.642
40.9983
12862.9
2018.95
431.557
99.5641
18.2201
14970.2
3988.15
971.656
226.124
41.1124
11786.9
2214.96
529.008
130.584
24.8897
13062.7
3934.97
1041.14
258.024
48.989
12291.3
2145.18
486.62
116.088
21.6642
13874.7
3975.44
1008.96
241.774
44.8566
11484.9
2258.07
556.286
140.491
27.1869
12693.3
3904.68
1057.93
268.057
51.7548
11320.9
2208.91
547.311
139.555
27.2162
12503.5
3844.44
1050.27
268.567
52.2146
39821.3
58648.5
52414
36196.4
26045.5
32421.6
25518.2
32216.6
30352.7
50216.7
33244.4
55145.6
6.4533
9.06363
15.2431
26.9025
47.028
80.1022
8.50487
11.5835
18.6877
31.6387
53.4096
88.5674
4.95293
4.25418
7.22423
6.3288
12.8082
11.5379
24.0149
22.5048
44.0545
43.1553
77.7684
78.4253
132.74
220.791
378.328
671.702
999.69
1279.24
144.056
230.325
360.404
538.046
719.55
846.515
16.9418
24.0514
29.1879
32.4001
33.9149
23.7346
33.5501
40.5305
44.8231
46.8205
39.7743
55.8871
67.0954
73.8254
76.8971
69.9007
97.525
116.236
127.154
132.023
121.55
168.111
198.613
215.793
223.243
205.614
281.19
328.583
354.113
364.822
22.284
31.5283
38.1244
42.1961
44.0968
30.2647
42.6174
51.2806
56.5313
58.9471
48.6332
68.0331
81.3117
89.154
92.6883
81.9572
113.777
134.94
147.066
152.403
137.581
189.255
222.447
240.794
248.652
226.547
308.105
358.228
384.757
395.784
13.0284
18.5547
22.5912
25.1453
26.3612
11.203
15.9847
19.4997
21.7392
22.8111
18.957
26.8872
32.5938
36.1476
37.8178
16.6275
23.6303
28.7049
31.8886
33.3936
33.4943
47.2312
56.9078
62.7959
65.5116
30.2117
42.6928
51.5506
56.9832
59.5046
62.5317
87.5449
104.695
114.828
119.39
58.6708
82.3012
98.6153
108.324
112.719
114.085
158.267
187.518
204.162
211.431
111.857
155.396
184.357
200.904
208.148
199.965
274.173
321.105
346.555
357.26
201.835
277.104
324.867
350.786
361.666
337.526
454.591
523.684
558.839
573.069
553.906
730.117
825.13
870.141
887.992
930.139
1187.12
1305.79
1357.91
1380.28
1601.96
1947.31
2062.09
2115.29
2151.44
2302.18
2662.07
2730.07
2785.94
2863.12
2873.81
3203.9
3211.7
3274.2
3395.5
365.171
489.504
561.619
597.837
612.471
577.178
759.691
857.698
904.059
922.599
890.177
1145.33
1268.72
1323.81
1346.96
1306.25
1636.44
1775.3
1835.91
1866.47
1717.34
2098.31
2236.67
2300.69
2343.92
1997.42
2400.41
2530.84
2597.57
2652.76
6.5409
9.37151
15.9122
28.2129
49.4201
84.1375
8.61154
11.943
19.4172
32.9417
55.5519
91.8051
5.02577
4.31874
7.48909
6.56836
13.4302
12.1231
25.3723
23.8673
46.8371
46.2108
83.2036
85.6738
138.747
228.557
386.592
676.746
1000.83
1278.86
148.455
235.566
365.607
541.847
721.437
846.975
17.1771
24.3967
29.6208
32.8942
34.4405
24.5572
34.7537
42.04
46.5457
48.6523
41.563
58.5061
70.3811
77.5767
80.8874
73.4053
102.66
122.683
134.52
139.862
127.953
177.507
210.429
229.314
237.647
216.438
297.124
348.691
377.19
389.45
22.5701
31.9484
38.6522
42.7994
44.7392
31.2269
44.029
53.0555
58.5613
61.1086
50.5879
70.9055
84.9284
93.2952
97.1009
85.4541
118.928
141.44
154.523
160.357
143.345
197.78
233.246
253.224
261.936
235.298
321.136
374.846
403.986
416.396
13.2232
18.8395
22.9476
25.5516
26.7929
11.3755
16.2367
19.815
22.0983
23.1926
19.6641
27.9203
33.8869
37.621
39.3833
17.2668
24.5637
29.8721
33.2175
34.8051
35.1548
49.6565
59.9426
66.2533
69.1851
31.7729
44.9707
54.3978
60.224
62.9462
66.1543
92.8339
111.311
122.366
127.4
62.3042
87.5988
105.233
115.855
120.717
121.508
169.101
201.072
219.606
227.847
119.998
167.254
199.162
217.751
226.044
214.458
295.311
347.536
376.678
389.287
221.054
304.887
359.322
389.819
403.042
353.734
478.67
554.338
594.275
611.044
575.168
762.378
867.004
919.299
941.133
953.634
1224.55
1356.33
1419.07
1447.52
1618.66
1978.23
2108.16
2175
2219.52
2309.21
2679.82
2760.14
2828.21
2913.9
2874.78
3208.9
3221.58
3289.32
3414.55
377.162
507.579
584.938
625.067
641.812
591.689
782.058
887.133
938.962
960.53
905.047
1169.21
1301.21
1363.31
1390.48
1317.91
1656.72
1804.48
1872.81
1908
1723.94
2111.15
2256.4
2326.72
2373.97
1999.35
2404.63
2537.68
2606.91
2663.76
3502.06
2191.65
222.276
136.326
179.754
138.115
203.613
3034.62
2700.81
1628.79
1990.92
653.464
1064.52
475.039
590.528
421.544
2749.01
1246.3
568.439
507.673
739.07
592.107
390.423
372.159
307.076
257.675
400.719
368.298
2999.1
1613.54
1746.61
1007.06
741.057
1250.7
401.536
253.129
475.206
6921.32
6306.42
5526.94
5795.25
8823.29
4582.45
4548.65
4226.9
4334.51
4687.41
561.079
746.993
852.573
905.998
928.258
348.289
472.793
549.052
589.7
606.843
459.089
622.82
722.655
775.447
797.576
353.768
482.189
561.956
604.871
623.026
517.097
695.18
800.135
854.346
876.938
6509.44
6538.67
5870.7
6014.56
8980.51
5795.07
5849.73
5424.21
5567.19
6585.73
3631.06
3945.07
3856.94
3943.77
4182.37
4541.15
4865.3
4579.85
4642.48
5141.8
1575.85
1951.86
2102.94
2180.52
2234.8
2470.91
2870.01
2943.61
3015.68
3130.24
1171.39
1503.58
1665.42
1743.92
1783.02
1437.84
1808.49
1970.9
2050.28
2097.24
1047.72
1361.63
1523.02
1601.35
1637.27
5895.35
5936.26
5337.13
5500.55
8275.04
2849.42
3223.28
3238.97
3314.65
3453.31
1383.38
1738.56
1893.72
1970.2
2014.61
1242.06
1573.92
1725.36
1799.26
1838.47
1760.27
2135.75
2264.62
2338.55
2399.49
1436.51
1791.29
1935.24
2005.35
2044.57
965.34
1241.97
1376.37
1440.55
1468.96
925.522
1202.94
1344.84
1413.15
1443.07
773.791
1027.65
1170.3
1241.73
1271.94
652.052
871.721
998.399
1062.83
1089.79
996.476
1296.09
1450.85
1526.26
1560.55
918.155
1198.71
1345.71
1417.39
1449.01
6148.02
5858.96
5186.52
5416.66
8205.99
3513.51
3712.55
3587.66
3671.82
3896.86
4159.43
4579.92
4261.06
4403.87
4789.55
2353.06
2739.11
2799.16
2867.18
2935.42
1775.52
2159
2281.21
2347.77
2390.17
2910.56
3301.38
3274.77
3353.27
3430.58
993.487
1280.13
1420.65
1487.77
1517.81
638.772
850.135
969.996
1030.56
1055.98
1166.95
1486.22
1634.5
1705.7
1740.77
2457.33
2396.48
2318.13
2167.52
1765.47
735.953
22457
23784.6
24384.4
25432.2
23700.8
23148.1
22997.1
22832.2
20764.4
26915.9
23311.2
26496.7
31385.6
20712.4
36441.4
20462.2
21846.6
22296.8
22813.8
22100.7
22876.9
21444.3
22122.4
21438
35732.3
24042.2
34301.9
32684.6
25873.2
42365.7
18327.9
19499.7
19356.3
19386.6
20212.8
21817.2
19162.1
20675.6
23937.4
33311.1
26789.9
32606.4
33425.4
29123.9
39445.8
16320
17325.6
16455.7
16254.9
18407.8
20639.8
16661.1
18760.5
21128.9
29550.5
23395.8
27825.4
28279.8
24698.8
33910.9
14475.7
15442.3
14244.8
14002.8
16745.4
19174.8
14448.5
16337.5
18059.4
22846.3
20200.6
20915.8
23311.9
19214.1
25304.7
12931.8
13820.3
12611.5
12382.1
14622.5
16162.1
12780.8
14149.6
14787.5
17192.6
16643.1
16096.7
19169.4
14664.5
20226.9
22740.3
22495
24643.7
26174.5
22621.1
22791.8
23096.6
23346.4
18389.4
10875.1
19306.1
10707.4
19029.5
15431.9
15479.2
21038.1
21141.7
22189
23071.8
21319.6
21598.4
21209.3
21677.3
15428.4
10098.3
15987.6
9867.1
15440.3
13681.9
13376.1
17374.8
17546.4
18758.9
19049.8
17891.5
18121.8
18419.7
19320
13048.2
9680.46
13636.8
9276.15
13737.8
11350.3
12824.1
13631.5
13931.7
15392.8
15363.7
14366.8
14534.8
15598.5
16483.9
10064.3
8872.63
10628.1
8460.77
10799.7
9015.43
11718.4
11112.3
11480.3
12958.1
12853.7
11933.5
12419.7
13182.2
13842.8
8302.58
8662.92
9055.48
8776.89
9711.38
9065.06
11774.7
9232.3
9641.47
11238.1
11113
10494.9
11390
11457.5
12329.2
7600.86
8962.56
8591.18
9462.85
9552.11
9127.76
12285.6
15032.1
8102.96
26384.8
17407
25510.4
21929.8
36646.1
46339.4
56177.9
72353
30199.1
26820.9
18546.2
12897.5
11993.9
6685.39
24391.8
20494.6
22454.7
21278
27724.1
25424.7
32860.7
27099.1
8599.04
5772.71
4491.07
3147.91
12511.3
7786.22
7008.5
4594.28
26665.7
27427.1
22803
17033.3
17932.9
14692.8
15504.3
14957.9
20134.6
20123.5
43063.7
47843.6
29535.5
31728.4
23541.1
18607.4
22871.7
15815.5
9796.34
8641.57
7785.92
13243.2
3899.82
5773.57
10423
17716.7
6710.68
9864.1
10331.4
20929.1
8062.53
14417.3
2382.01
9533.14
308.454
6777.45
19234.9
23366.2
21197.4
23691.7
23733.6
23565.6
25228.9
23683.7
20018.2
24365.5
19259.6
23675.1
21692.7
23870.2
21499.7
23930.5
26013.7
23782.3
26372.4
23842.3
19066.6
24606.6
17463.9
24639.8
22971
26335.8
28865.8
43683.6
24202
31277.8
28840.9
48984.5
21679.2
22966
28623.2
40905.3
20863
20967.7
28602.6
39660.2
7095.47
9434.59
19635
33993.1
8360.25
9718.8
24012.9
37396.5
9532.95
10030.1
28628.2
40496.5
27412.1
27356.4
25662.8
25505.3
39087.5
27544.8
25786.8
25274.4
22966.4
45730.7
25121
24827
22746.7
26643
57288.2
2276.78
3011.04
6732.11
15054.1
3203.7
4586.08
8604.72
16818.6
4590.8
4377
11042.9
18849.9
25725.3
23642.1
22814.3
19989
21401.9
17236.7
16588.5
13606.1
14812.1
23175.9
22874.3
19117.3
22479.2
19500.3
20560.6
17543.9
19666.3
16181
17136.8
24226.3
23858.3
24719.9
25007.5
26856.1
22647.2
20288.3
23383.6
21870.4
23346.4
23097.7
22915.6
22125.2
25563.7
27601
25549.4
27531
23936.2
22981.1
23858.2
22993.7
23071.3
22859.8
23486.6
23141.3
21623.2
20924.4
15547.8
18782.9
21936.4
20634.6
16280.4
19975.9
20877.6
20490.7
15242.9
18544.3
21020.4
20225.9
15021
18004.2
2266.83
1605.51
1050.28
1115.76
811.441
779.641
3607.33
2090.7
1401.72
2728.99
2153.94
1605.79
3441.97
2657.38
2457.19
4924.63
3660.43
2928.98
19707.8
14498
11465.3
17405.2
13688.7
11308.1
12564.8
10163.4
8791.37
10045.3
8015.47
6840.6
8090.34
4866.13
3309.89
15611
11899.4
9661.64
16536.8
12727.7
10584
13100.5
9523.68
7740.75
10341.2
7504.33
6129.81
7959.36
4720.54
3210.75
30507.3
30697.8
33194.8
29603.9
30884.7
29761.7
37827.2
31321.3
18439.6
19403.7
18562.7
17651.8
24921
20859.1
24811.1
18723.1
27140.5
27713.4
22989.3
25209.5
28789.4
25972.7
31326.2
32936.9
34236.3
37259.9
26271.7
27279.2
22739.4
22646.5
25333.8
24635.3
15688
8609.89
14894.8
9556.89
15363.9
8453.8
14476.1
9254.28
14132.6
7769.22
13594.2
8773.68
13436.9
9097.7
12927.7
9031.02
22468.7
16599.2
22614.3
17195.9
25756.8
22006
26650.4
22259.8
20315.5
12899.9
20584.6
12136.9
23486.1
17556.1
24376.4
17667
27869.2
22522.6
28703
22641.5
20064.7
13256.5
20060.2
13333.4
11442.7
7465.71
9392.43
5932.77
10298
6621.33
8579.45
5392.15
11835.7
7920.83
9767.96
6227.43
11952.5
8174.74
9861.9
6362.37
2418.98
1233.08
4461.09
2588.94
2488.47
1404.94
4513.84
2825.12
2647.86
1825
4431.65
3175.65
11588.6
20704.5
7387.62
6679.27
4870.35
20933.3
12567.6
6636.85
5884.74
3776.75
20373.4
13958.7
9828.78
7010.59
4558.63
757.044
589.062
1762.29
1452.57
948.173
637.486
2085.34
1699.18
1326.53
955.996
2472.73
2035.04
20572.7
17822.9
12113.6
9812.97
7068.54
5844.39
5281.54
4261.39
3365.55
2789.38
17949.6
14026.4
12240.6
9318.95
8638.16
6748.08
5923.02
4734
4048.9
3750.1
11858.6
8200.44
12273.2
7901.59
16219.4
11017.7
16935.8
11223
9359.3
6397.55
9112.09
6687.43
12953.4
7670.58
13197.6
7858.95
18127.8
11792.3
18265.7
12019.5
9542.5
6115.23
9766.7
6423.16
6444.35
4869.47
4452.78
4747.79
6445.32
5006.44
4508
4602.31
6456.32
4784.32
4360.12
4944.85
6801.16
4891.18
4530.07
4901.5
834.979
562.417
382.81
2945.49
1276.18
860.665
795.595
623.116
458.162
3209.4
1527.07
1075.19
1048.98
911.466
779.4
3532.62
1923.74
1453.35
13425.6
9882.35
7898.17
7501.58
5588.04
4567.32
4782.02
3595.59
2990.11
3658.64
2707.18
2232.63
4265.08
2575.31
1969.68
10028.7
7223.76
5653.06
6626.89
4741.76
3741.22
5099.33
3580
2750.42
4215.75
2939.59
2285.64
5663.3
3221.13
2471.53
4124.26
1928.12
946.799
478.935
4608.54
2083.29
990.788
499.731
3989.58
1894.63
943.744
482.531
4548.37
2080.75
1009.24
516.234
3757.47
1847.71
972.488
498.879
4379.55
2083.78
1062.2
543.479
4546.07
2145.35
1028.23
524.656
4607.87
2195.55
1031.94
519.09
3939.8
1941.21
1018.47
518.947
3295.01
1725.6
948.812
466.638
3473.77
1771.23
981.08
497.317
3019.27
1617.95
914.034
448.779
4198.73
2051.14
1031.1
522.176
3461.83
1802.39
967.224
472.234
4321.38
2117.92
1045.52
525.536
3544.15
1852.17
987.078
480.488
3142.9
1667.65
888.034
451.167
2243.07
1380.65
812.765
404.777
3050.5
1641.1
889.669
452.329
2239.47
1378.94
813.633
405.482
2918.53
1604.61
902.94
456.757
2291.69
1399.71
822.677
407.825
2799
1552.24
894.64
452.646
2324.37
1410.5
845.979
415.556
2667.52
1505.04
864.967
425.858
1458.21
1138.83
654.629
187.505
746.798
1019.53
589.491
168.79
1550.56
1172.56
669.659
196.607
860.612
1057.44
602.174
172.686
1699.65
1225.38
682.276
196.119
1041.69
1119.99
616.571
175.018
1937.75
1297.69
712.071
210.741
1294.51
1205.84
643.508
183.693
2307.43
1401.3
760.4
237.171
1639.65
1299.82
670.487
191.045
2629.34
1532.67
789.737
230.212
1819.34
1427.62
724.165
201.46
2553.9
1476.82
770.938
229.621
1792.34
1379.28
697.097
195.793
2650.5
1566.88
791.774
218.759
1817.96
1461.96
736.242
200.576
2631.88
1598.23
808.579
221.348
1888.76
1494.7
751.895
203.486
240.06
117.323
54.5621
23.0529
6.26038
246.324
118.622
54.8411
23.1198
6.27387
243.928
118.272
54.9256
23.19
6.29499
250.987
119.882
55.3314
23.3039
6.32014
244.525
118.969
55.2886
23.3343
6.33174
251.511
121.543
56.0667
23.58
6.38911
260.739
124.645
57.2418
24.0002
6.4923
263.636
127.043
58.2836
24.3907
6.59009
252.836
121.982
56.3884
23.7213
6.42618
245.721
121.135
56.2932
23.7155
6.42702
242.673
119.821
55.704
23.493
6.37152
240.908
119.932
55.8949
23.5797
6.39424
258.008
124.042
57.1394
23.9847
6.4904
249.073
122.935
56.9923
23.9657
6.48846
260.86
126.538
58.2519
24.4062
6.59636
252.093
125.281
58.06
24.3745
6.59158
230.024
115.453
54.1921
22.9694
6.24413
220.717
114.054
53.9394
22.9153
6.2339
231.654
116.136
54.464
23.0712
6.26973
222.744
114.77
54.1971
23.0072
6.25657
233.139
116.939
54.8096
23.2014
6.30234
226.514
115.802
54.5563
23.1335
6.28752
235.343
118.034
55.2431
23.357
6.34054
231.807
117.261
55.0228
23.2883
6.32452
235.917
118.987
55.5866
23.4755
6.36915
15182.7
23826.5
15688.8
24032.5
16449
24276.1
17352.3
25185.7
18082.9
26941
15387
18848.1
16293.1
21001.6
15054.8
18248.3
14822
18061.5
12553.6
2281.5
515.871
119.969
21.8304
14932
4213.9
1054.15
247.166
44.5957
12659.8
2228.57
495.469
114.335
20.7145
15000.1
4182.3
1034.21
239.743
43.1811
12834
2183.36
475.107
108.564
19.5914
15150.7
4149.47
1011.04
232.383
41.6818
13002.6
2113.33
450.205
102.327
18.4782
15341.6
4102.89
988.257
226.472
40.6528
12967.6
2032.38