/*--------------------------------*- C++ -*----------------------------------*\
| =========                 |                                                 |
| \\      /  F ield         | OpenFOAM: The Open Source CFD Toolbox           |
|  \\    /   O peration     | Version:  2412                                  |
|   \\  /    A nd           | Website:  www.openfoam.com                      |
|    \\/     M anipulation  |                                                 |
\*---------------------------------------------------------------------------*/
FoamFile
{
    version     2.0;
    format      ascii;
    arch        "LSB;label=32;scalar=64";
    class       volScalarField;
    location    "0.7";
    object      gradTx;
}
// * * * * * * * * * * * * * * * * * * * * * * * * * * * * * * * * * * * * * //

dimensions      [0 -1 0 1 0 0 0];

internalField   nonuniform List<scalar> 
5712
(
-9866.7
-12144.2
-22266.6
-35232.8
-34102
-66490.2
-23251.2
-69765.3
-23749.4
-55668.8
-29235.9
-48450.2
-22207.4
-29811
-11989.7
-12322.6
-17306.2
-20233.9
-22935.6
-21204.7
-15627.2
-23440
-22963.6
-23030.9
-6775.68
-5192.55
-9149.32
-6796.96
-15609.4
-10832.7
-28383.6
-20496.1
-23600.7
-24372.5
-24980.8
-26476.5
-6545.32
-5381.61
-53412.1
-66040
-29017.4
-38404.8
-67153.3
-82857.3
-31446.6
-38685.9
-40925.6
-53473.3
-33303.1
-45643.6
-19459.9
-24357.2
-4249.22
-1384.44
-5414.84
-1922.32
-9598.85
-4007.99
-16043.7
-6009.32
-11224.4
-3742.37
-10680.7
-3089.43
-20491.4
-6087.67
-26714.9
-8547.4
-32261.8
-18892.4
-27103.5
-18750.7
-31619.4
-20425.6
-25075.6
-19751.3
-22124.5
-16139.7
-24643.8
-15969.7
-26310.3
-19088.9
-27255.8
-19487.2
-24610.1
-19855.3
-25638.5
-20158.6
-22600.6
-16761
-24279.5
-17283
-24687.7
-10591.8
-14849.9
-17513.5
-26786.2
-12451.2
-15085.4
-18773.4
-24604.8
-9737.48
-15291.2
-17008.1
-25443.5
-9759.11
-15942.4
-17063
-4125.66
-4726.66
-1488.07
-3194.64
-11809.8
-14004.9
-5133.44
-10334.8
-19236.5
-22828.7
-9543.46
-17537.1
-19180.9
-9587.69
-21823.9
-28543.6
-15540.8
-6319.6
-10350.5
-14927.7
-28888.6
-21235.8
-12485.3
-17282.4
-20407.7
-21215
-27558.5
-4369
-4321.57
-2853.11
-2959.99
-12874.7
-11497.4
-9008.18
-8814.99
-19141.5
-16234.3
-13506
-13000.8
-9812.47
-10595.2
-15549.3
-16353.3
-20197.1
-18565.7
-25695.8
-22611.1
-20159.9
-19604
-14116
-13748.5
-18677.5
-15021.7
-18791.2
-13810.2
-18133.5
-12762.9
-22165.6
-16375
-15139.4
-6113.71
-12352.6
-10572.6
-16210.5
-16965.4
-16680
-20035.4
-11032.1
-9452.2
-14395.4
-4249.11
-12318.6
-17475.6
-12992.9
-19065
-17151.1
-25021.5
-17960.6
-26113.3
-11188.3
-16290.7
-11862.4
-18054
-14249
-9218.34
-19472.7
-7692.37
-14743.8
-3129.85
-18193.2
-2109.39
-15148
-14005
-20601.4
-9863.21
-14006.5
-16468.9
-19200.7
-12695.7
-3754.68
-3217.54
-2387
-2479.36
-2256.9
-1774.77
-9701.87
-7333.68
-5507.79
-6836.08
-5006.5
-3658.04
-12098.3
-8729.49
-6991.89
-9954.25
-6805.08
-5317.14
-8544.77
-5433.73
-4338.08
-14280.7
-8414.64
-5593.15
-14433.1
-8543.44
-5330.98
-17022.9
-11059.3
-7782.22
-15543.3
-9000.98
-5514.78
-15879.3
-10536.7
-7732.81
-12886.7
-8293.55
-5456.82
-12711.4
-7763.25
-4771.54
-12651.6
-7754.58
-4805.98
-15653.4
-8048.82
-3915.25
-12849.5
-20341.3
-11284.7
-15565
-11304.1
-22395.9
-9809.86
-18659.6
-69.1909
-1597.09
317.976
-1018.59
-3526.05
-6450.21
-2382.95
-4188.36
-2404.41
-4308.79
-11736.4
-16874.6
-8504.72
-6883.16
-13247.8
-11727.3
-18727.7
-20202.3
242.097
5677.53
-9152.93
-6403.75
-6841.45
-3859.61
-1511.53
-953.968
-1332.53
-864.183
-3845.24
-1195.83
-2223.68
-549.195
-9848.76
-2708.23
-7852.66
-2461.51
-8742.69
-2582.31
-9700.84
-2988.71
-13868.3
-12717.1
-10714.6
-12363
-21951.6
-18824.3
-17821.2
-17615
-7405.47
-8653.51
-8677.66
-8140.34
-9961.58
-12100.5
-10374.9
-12106.8
-16983.3
-17066.9
-17580.1
-17103.4
-6507.26
-8627.55
-6212.68
-8621.54
-651.409
-869.929
-6090.08
-2567.26
-760.417
-680.641
-5401.24
-2165.8
-595.128
-749.905
-6326.23
-2794.4
-777.672
-782.462
-6293.71
-2902.69
136.761
285.284
-414.299
-204.311
693.412
1151.18
-626.464
-254.204
-1020.22
-69.4722
-1862.05
-1368.35
6313.3
3197.11
3544.32
2382.45
194.573
6578.21
9094.1
3922.23
3903.35
291.782
-10467.2
-7239.29
-5246.31
-4601.64
-1985.47
388.75
298.598
-78.0439
-70.3126
1109.88
1050.04
-180.734
-149.068
969.64
1177.79
-681.894
-570.96
2116.06
293.937
6309.06
3579.76
3017.26
1658.55
2792.88
1953.15
191.74
-63.9498
-5794.93
-4081.51
-488.792
781.518
146.616
915.811
-205.696
500.698
-31.1203
-65.8856
-4326.22
-4200.16
-9089.15
-5526.87
-9048.62
-7832.5
-13012.6
-9432.95
-6182.52
-3558.23
-2322.46
-2601.41
-10596.2
-4573.02
-11330.9
-4360.87
-14863.3
-9296.16
-15898.6
-9185.1
-7351.19
-2678.66
-7910.55
-2385.62
-3777.93
-2571.39
-1842.8
-3109.54
-1752.01
-2048.37
-1009.99
-2506.91
-4124.41
-2281.8
-2305.64
-3569.99
-5022.49
-2059.89
-2908.45
-3369.39
254.536
227.553
231.652
-49.4277
40.5482
48.8251
882.553
781.615
733.73
-56.277
175.92
189.199
1098.88
1157.87
1122.3
-300.413
312.365
384.215
-418.466
252.225
237.749
1767.1
1800
1545.74
1260.72
1335.63
1215.95
1476.45
1476.65
1371.04
-145.092
433.957
371.638
-4499.73
-2255.39
-1243.77
-430.955
389.269
683.019
28.8371
647.111
806.295
38.0029
604.182
708.886
-712.893
221.994
282.347
-82.7554
-17.6574
-1.91045
2.20652
-2.81228
14.875
24.9786
14.6158
-209.561
-47.6
-0.0512954
7.83096
-8.71889
32.7699
49.4083
28.798
-338.651
-89.8128
-14.3805
14.8351
-167.716
-14.0287
10.8911
19.6541
-94.0381
-9.03518
-12.0938
-1.75085
-152.076
-40.7505
-8.32596
3.95674
-660.084
-201.869
-105.858
-19.473
-824.131
-251.437
-170.936
-26.2127
-546.395
-164.35
-79.9318
7.45107
-676.446
-206.133
-151.599
-22.2019
-597.028
-186.3
-92.0204
-18.7956
-895.675
-273.263
-181.3
-26.2131
-597.295
-193.005
-81.6492
-11.1988
-929.531
-284.333
-186.518
-27.4642
-63.813
-16.0358
-7.98673
-0.843189
-43.296
-10.3035
-11.8381
0.597292
-163.995
-42.7667
-18.0346
0.853131
-80.7187
-16.3472
-25.1985
2.7931
-453.259
-134.713
-68.6935
-6.79387
-330.276
-92.3656
-65.6272
5.92662
-220.225
-62.5028
-38.6747
19.7974
-138.684
-33.2237
-41.8517
11.9734
-570.809
-171.013
-131.65
-0.825718
10.389
6.82668
-0.0932104
4.0613
56.0328
20.4206
7.03128
4.29134
-5.89268
8.48432
-8.17069
8.57071
140.204
52.5939
15.2741
10.4513
-57.1821
-4.3404
-19.008
13.1258
206.461
76.8779
22.3248
15.0506
-49.9073
-0.71275
-23.7784
16.4698
247.261
91.7965
21.8885
14.9874
-137.72
-19.7957
-57.7516
4.42551
174.392
79.2868
5.3571
9.43751
-532.837
-107.792
-121.627
-13.4024
-147.169
-1.48426
-26.8046
-3.10623
-323.752
-54.1672
-97.6039
-7.19364
-7.11841
39.7158
-13.4307
2.45005
-694.328
-162.018
-141.051
-17.6496
-229.109
-34.679
-35.8972
-6.54719
-786.545
-204.216
-154.892
-21.8636
-281.751
-62.995
-42.8343
-8.89816
0.775786
0.550563
0.259474
0.107324
0.0511346
2.53484
1.0981
0.446461
0.174982
0.0816299
1.01215
1.12402
0.544129
0.22498
0.106805
6.47554
3.03727
1.22848
0.477741
0.221852
2.6422
1.92684
0.844267
0.335601
0.156554
10.1547
4.50019
1.77487
0.681566
0.314483
2.77102
1.34433
0.550576
0.215182
0.100302
0.183658
0.472866
0.246374
0.104554
0.0504717
2.73505
1.64027
0.704642
0.278245
0.12952
-1.0065
0.0225421
0.0616367
0.0306739
0.0153426
8.15055
3.39951
1.29751
0.489989
0.223969
0.806674
0.588651
0.255906
0.100798
0.0467974
-2.18439
-0.122789
0.0569588
0.0366544
0.0194544
-1.20796
0.013122
0.0665108
0.0337772
0.0170069
-3.23417
-0.339687
0.00944689
0.0243585
0.0150136
-2.23366
-0.296079
-0.0338841
-0.00165757
0.00121194
0.350513
0.394007
0.191351
0.0796487
0.0380612
1.19093
0.517273
0.205003
0.0794934
0.0369295
1.26466
1.00468
0.455247
0.184109
0.0867451
3.01346
1.23334
0.477905
0.182985
0.0844019
1.52652
1.27409
0.567997
0.226747
0.105996
4.66819
1.7195
0.634479
0.237238
0.10819
7.20217
2.65411
0.963114
0.355784
0.160883
4.42834
1.44751
0.503706
0.183302
0.0825165
4.57289
1.63735
0.586217
0.215182
0.0970438
-497.82
-683.697
-1404.56
-1996.46
-2198.98
-3281.33
-2621.73
-4370.29
-2374.52
-4025.41
-2330.78
-3486.35
-1722.57
-2311.19
-3163.92
-4541.01
-3517.39
-4909.16
-859.24
-196.714
-45.047
-10.3323
-2.89652
-273.956
-118.699
-11.6274
-4.02761
-1.83765
-2782.5
-641.103
-147.69
-34.1496
-9.65071
-694.194
-154.799
-33.7214
-7.42401
-1.94962
-4852.9
-1125.87
-261.418
-61.1708
-17.5207
-1282.44
-329.622
-79.457
-19.6652
-5.82872
-6824.08
-1596.37
-375.73
-89.4043
-26.1327
-1853.84
-529.089
-137.14
-35.5777
-10.9944
-9295.57
-2245.87
-542.544
-132.337
-39.7302
-2568.35
-834.524
-228.283
-60.6744
-19.0917
-12048.2
-3203.94
-824.912
-212.024
-66.7177
-3143.47
-1057.32
-296.529
-80.0792
-25.6691
-11170.4
-2868.92
-717.47
-179.728
-55.2425
-2956.92
-1021.82
-287.18
-77.3382
-24.5153
-12440.4
-3358.29
-877.949
-229.069
-73.0847
-3288.27
-1061.67
-291.881
-77.8407
-24.879
-12774.9
-3440.54
-904.499
-237.804
-76.4526
-3341.56
-1074.24
-293.759
-73.2696
-24.5648
-555.729
-8222.55
-7980.18
-4357.34
4065.82
5610.69
11123.8
14805.8
6039.07
12708.2
1596.72
7018.08
5919.38
10323.8
11723.1
16474.3
14076
16221.7
8011.67
9156.75
-17973.7
-12696.6
-2006.27
-1197.31
-855.267
-1299.22
-1099.73
-10862
-9002.25
-7964.63
-7259.41
-5066.13
-3428
-5470.48
-2649.1
-1984.2
-2264.48
-1420.57
-18216.7
-7712.64
-1601.14
-2969.5
-5394.11
-3263.48
-3319.27
-2289.81
-894.832
-1476.73
-1590.95
-1922.08
-17719.8
-10168.5
-9973.71
-5782.93
-5550.29
-6138.75
-2084.05
-2304.17
-3094.3
-11113.1
-9525.79
-7061.52
-5721.13
-4134.54
-8542.04
-5873.84
-4300.55
-3044.35
-1179.91
-1717.25
-1367.99
-983.855
-592.395
-197.65
-1042.05
-844.9
-615.232
-372.337
-124.506
-739.527
-594.978
-429.804
-258.487
-86.1804
-1134.47
-922.789
-673.172
-407.496
-136.251
-949.539
-763.037
-551.22
-331.875
-110.74
-6710.78
-5209.6
-3660.9
-2799.1
-2383.1
-4653.67
-3354.51
-2104.06
-1435.6
-991.757
-5358.31
-3506.48
-2416.45
-1589.64
-622.065
-3825.92
-2632.21
-1656.03
-1097.78
-627.138
-2501.28
-1619.3
-985.359
-673.791
-337.191
-2642.94
-1908.95
-1290.22
-762.772
-259.54
-3848.81
-2603.24
-1743.55
-1059.99
-386.751
-1809.32
-1171.24
-754.768
-444.641
-157.485
-1589.66
-1185.59
-811.737
-477.186
-159.292
-1770.21
-1288.12
-866.207
-504.006
-167.914
-1152.21
-868.465
-597.172
-350.179
-116.19
-11512.1
-8673.93
-6335.17
-4879.7
-3606.3
-5649.18
-3968.18
-2780.95
-1797.09
-680.807
-1287.32
-964.713
-665.724
-395.203
-132.755
-2422.75
-1843.58
-1290.71
-775.036
-261.453
-4270.24
-3168.96
-2212.69
-1352.83
-466.118
-2681.08
-2051.97
-1445.06
-870.753
-292.277
-2775.84
-2157.61
-1530.78
-920.235
-306.163
-1928.66
-1511.23
-1073.37
-642.685
-214.492
-748.443
-581.314
-408.125
-241.483
-80.0923
-1260.56
-1000.59
-715.406
-428.08
-142.543
-1309.7
-1002.55
-698.866
-414.065
-137.994
-1607.66
-1251.12
-883.963
-527.951
-176.312
-10952.2
-8826.26
-6578.54
-5229.69
-3662.87
-7104.25
-4936.4
-3573.93
-2452.71
-955.592
-7470.06
-5529.93
-3915.4
-2668.08
-1038.16
-4502.02
-3188.44
-2242.38
-1411.93
-441.848
-4475.96
-3342.47
-2348.36
-1431.78
-469.909
-4765.11
-3361.66
-2355.79
-1479.28
-451.776
-1727.11
-1331.09
-937.256
-561.369
-187.557
-1965.45
-1559.44
-1116.36
-669.653
-223.254
-2570.19
-1986.89
-1402.99
-841.867
-281.562
-8264.21
-18378.2
-14209.4
-47477.3
-13019.1
-60241.1
-8975.07
-23896
-11400.7
-9945.07
-23035.8
-18118.7
-11121.5
-13290.1
-24471
-20003.2
-5315.44
-3693.77
-12456.1
-8958.13
-9182.03
-4874.86
-34090.6
-24596.5
-19713.4
-13408.1
-21144.2
-13928.6
2633.86
-1957.27
-55857.8
-67048
-28166.9
-38356.1
-69399.5
-83836.3
-30384.5
-38456.8
-42570
-54376.7
-32592.8
-45776.4
-21315.1
-25141.6
-2993.7
-595.209
-6619.93
-2161.34
-5665.56
-2788.46
-18407.2
-6667.04
-2903.69
-1487.72
-7876.5
-2245.82
-20730.3
-6073.32
-27068.1
-8631.46
-23010.9
-14730.3
-24125.2
-16795.4
-21220.8
-15474.6
-21646.9
-17510.5
-20091.4
-14646.3
-18420.2
-12949.7
-25165.7
-18228.5
-27008.5
-19258.9
-23196.6
-18866.5
-25265.1
-19890.1
-21945
-16103.1
-24170.5
-17106.8
-23745
-10385.8
-13788.9
-17158.2
-23304.2
-11561.9
-12837.1
-17919.3
-24471.9
-9718.45
-14842.4
-16876.8
-25487.8
-9776.81
-15829.7
-17031.5
-887.429
-744.292
117.773
-1253.9
-3480.67
-4572.7
-2702.72
-7300.58
-5666.19
-7871.31
-6157.48
-13459.2
-19847.8
-17952.8
-17452.9
-21535.4
-13950.7
-11046.7
-9032.76
-9740.75
-21300.4
-19528.2
-15489.9
-15987
-16319.3
-16387.7
-25380.7
-1154.01
-1431.55
-901.846
-1216.64
-4674.72
-4187.35
-5512.36
-5329.96
-5163.75
-3255.92
-9105.96
-8405.06
-11849.3
-12040.4
-11528
-11360.1
-12541.7
-10412
-17821.1
-15045.1
-17506.6
-16165.5
-16104.4
-14996
-16159
-12856.9
-14394.5
-10533.8
-14031.8
-9856.49
-20287.5
-14101.5
-13962.9
-6669.06
-11554.1
-10561.7
-16253.1
-17751.7
-16188
-20108
-10208.1
-9426.24
-12868.6
-4720.75
-11822.2
-17329.9
-12809.3
-18992.8
-16739.3
-24978.3
-17784.2
-26045.6
-10725.3
-16166.7
-11701.2
-17996.1
-13718.9
-9296.43
-19396.6
-7897.34
-13596.6
-3831.78
-17962.3
-3127.26
-14880.4
-13954.6
-20555.7
-9886.39
-13908.1
-16439.6
-19180.1
-12696.1
-1641.53
-1325.4
-1097.93
-1327.85
-3428.39
-2141.03
-4353.25
-4350.37
-1918.03
-1607.71
-7359.86
-6912.19
-12345.3
-9794.57
-11088.2
-7757.8
-8575.83
-5386.58
-11885.2
-8550.66
-13729.5
-8942.41
-17836
-13736.9
-10364.7
-7318.45
-9082.22
-5737.36
-8786.13
-5242.16
-10851.7
-4750.03
-5730.77
-11155.8
-5128.07
-11322.6
-8047.25
-13035.7
-9751.42
-15272.5
-1500.23
-1309.24
-1193.36
-1120.54
-4193.54
-4155.95
-3677.84
-3585.53
-974.182
-1629.15
-8617.22
-9208.17
-4608.92
-5068.42
-11297
-11155
-16995.3
-19644.8
1003.79
5832.35
-7566.04
-5892.89
-5995.32
-3639.29
-1091.95
-980.287
-1123.01
-920.26
-2464.02
-1400.45
-1719
-833.545
-6978.97
-2912.1
-6562.74
-2624.31
-7895.49
-2621
-9366.8
-2986.52
-6994.87
-9749.48
-8030.19
-10722.7
-12846.8
-14277.8
-14518.6
-15438.6
-5774.2
-7736.36
-4836.48
-6862.25
-8681.96
-11324.8
-9994.78
-11885.3
-15471.3
-16083.2
-17131.5
-16828.9
-5704.65
-8154.51
-5957.64
-8478.68
-236.244
-881.393
-5741.71
-2542.57
-342.171
-882.575
-5138.47
-2203.48
-343.02
-774.75
-6108.33
-2780.45
-676.771
-792.015
-6219.02
-2902.86
-963.393
-1047.09
-954.886
-999.068
-2369.59
-2536.78
-1544.69
-1635.09
-6089.62
-6329.65
-2862.29
-2921.4
-4134
-10053.2
-2434.07
167.501
-517.658
-3847.89
-758.779
-1780.16
1756.4
-189.801
-15133.8
-10158.8
-6865.82
-5651.58
-2302.91
-1202.86
-1207.48
-1096.81
-1167.4
-2897.8
-2897.33
-1828.09
-2018.73
-6310.98
-6463.23
-2753.61
-3047.12
-5789.16
-6725.89
-1661.24
-3497.58
-2854.93
-3794.88
-362.353
-1109.56
-654.223
-1070.61
-11256.2
-8117.29
-5634.93
-3673.31
-3556.88
-2377.5
-2724.23
-1681.11
-872.602
-1009.23
-6363.02
-6350.76
-9589.4
-6247.46
-10623.2
-9712.59
-13123.9
-10018.6
-6912.75
-4281.23
-4208.12
-4511.15
-10635.2
-4873.66
-11286.8
-4401.33
-14678.2
-9512.73
-15778.6
-9191.71
-7562.17
-3003.9
-7931
-2446.98
-4504.72
-3195.61
-2445.48
-3747.22
-3255.37
-3560.36
-1920.72
-3723.13
-4411.59
-2589.81
-2606.29
-3889.29
-5084.03
-2135.74
-2989.12
-3442.21
-945.364
-985.885
-784.814
-667.044
-2986.89
-3236.99
-1223.2
-805.553
-6405.37
-5215.69
-1684.95
-308.814
-7998.29
-6390.71
-5007.04
-3855.6
-3915.67
-3002.24
-1401.7
-913.882
-820.553
202.257
-7451.69
-5517.19
-3730.93
-2515.84
-2437.69
-1471.22
-1615.96
-861.147
-1584.17
66.2474
-148.321
-46.9434
-13.3676
-2.04999
-123.562
-42.0177
1.27501
5.03838
-377.975
-122.688
-28.1046
-1.3765
-274.836
-95.5558
-7.38276
2.41711
-562.285
-192.16
-58.3075
-2.00671
-463.474
-166.52
-68.7261
-22.9816
-261.607
-99.7883
-57.6762
-20.3572
-217.177
-78.5809
-27.5948
-4.29762
-737.513
-252.32
-139.575
-38.4525
-840.629
-263.684
-186.365
-30.3056
-715.588
-244.138
-127.676
-21.3469
-708.883
-223.805
-171.976
-27.354
-655.902
-224.751
-112.919
-25.6982
-910.308
-283.4
-193.464
-31.8594
-621.985
-209.339
-90.5998
-14.7217
-936.82
-289.028
-190.991
-29.2238
-146.789
-43.8868
-17.6564
-3.36769
-146.763
-39.8758
-23.8766
-2.36832
-372.733
-114.574
-43.9242
-6.16025
-364.311
-101.375
-58.4514
-4.957
-653.602
-210.961
-103.51
-15.6202
-625.92
-188.975
-110.609
-4.72532
-582.543
-199.374
-99.9294
-5.25439
-440.523
-137.905
-84.616
3.14809
-695.934
-221.426
-169.259
-11.4094
-111.305
-28.2666
-11.2981
0.580972
-70.2158
-18.4205
-4.34692
-0.190659
-296.694
-77.8466
-38.4008
-1.12255
-182.472
-49.7295
-16.4632
-2.01377
-388.916
-110.744
-60.2482
-1.25328
-218.837
-69.153
-24.2944
-3.39696
-411.746
-128.605
-75.2303
-2.50387
-224.292
-81.6681
-33.8019
-6.64929
-463.423
-139.026
-110.74
-16.9549
-281.947
-88.4472
-51.4417
-13.2763
-810.679
-224.906
-174.428
-34.4813
-385.639
-101.995
-64.5936
-18.6115
-680.218
-189.919
-158.52
-31.3315
-383.168
-101.58
-64.1129
-18.2748
-849.726
-234.145
-174.353
-30.9977
-350.853
-92.2594
-58.4147
-15.5957
-832.635
-227.204
-165.751
-26.2194
-315.669
-80.5242
-49.9131
-11.7582
-1.68437
-0.595225
-0.205567
-0.0758408
-0.0354154
-1.94697
-0.803718
-0.305648
-0.119093
-0.0571322
-4.42648
-1.32747
-0.439724
-0.160799
-0.0751694
-6.25854
-2.25275
-0.847483
-0.332423
-0.160468
-6.39617
-1.8247
-0.620876
-0.233633
-0.1112
-8.92618
-3.16928
-1.20091
-0.475651
-0.231141
-3.57608
-1.15277
-0.418332
-0.162655
-0.0782727
-2.98802
-0.797657
-0.252596
-0.0915438
-0.0426329
-5.5639
-1.55901
-0.517685
-0.193683
-0.0921066
-2.06376
-0.362671
-0.0821219
-0.0240024
-0.0100596
-6.42446
-2.16995
-0.818578
-0.325361
-0.158799
-2.26203
-0.578301
-0.183637
-0.0675101
-0.0318753
-3.7895
-0.630377
-0.125296
-0.0318325
-0.0121807
-2.50789
-0.434726
-0.0993538
-0.0296716
-0.012673
-4.33444
-0.721421
-0.132926
-0.0303536
-0.0105693
-2.41612
-0.33146
-0.0427423
-0.00428756
0.000233438
-1.36028
-0.437207
-0.148812
-0.0543915
-0.0251917
-0.703032
-0.314306
-0.124863
-0.0489548
-0.0233755
-3.06676
-0.96549
-0.332522
-0.123588
-0.0579837
-1.60236
-0.720915
-0.286002
-0.112802
-0.054202
-4.20677
-1.22283
-0.410114
-0.152261
-0.0717634
-1.84767
-0.876239
-0.355612
-0.142981
-0.0695946
-3.57002
-1.3898
-0.555538
-0.225951
-0.111418
-0.975335
-0.590895
-0.25847
-0.1076
-0.0533254
-2.28057
-0.840993
-0.336257
-0.137552
-0.068069
-184.572
-391.963
-660.959
-1271.36
-1350.18
-2390.75
-1965.85
-3584.76
-2069.6
-3669.27
-2428.23
-3622.42
-1814.39
-2589.5
-3193.09
-4573.39
-3517.58
-4910.18
-834.959
-194.713
-44.9954
-10.3754
-2.9173
-223.049
-111.739
-10.4228
-3.86365
-1.82222
-2724.06
-636.958
-147.872
-34.3511
-9.73218
-572.468
-136.384
-30.8803
-6.9788
-1.86444
-4769.43
-1119.87
-261.82
-61.5272
-17.6631
-1143.58
-308.715
-76.2789
-19.1845
-5.74456
-6726.92
-1588.64
-376.119
-89.8306
-26.3095
-1755.25
-514.005
-134.809
-35.2278
-10.938
-9212.75
-2239.51
-543.249
-132.869
-39.9468
-2553.37
-830.174
-227.496
-60.5799
-19.0914
-12062.7
-3208.54
-826.683
-212.62
-66.9238
-3175.12
-1062
-297.218
-80.1986
-25.696
-11143.8
-2867.99
-718.769
-180.345
-55.4786
-2997.9
-1025.4
-287.568
-77.4223
-24.5463
-12461.1
-3363.54
-879.451
-229.507
-73.2251
-3299.05
-1063.76
-292.22
-77.8986
-24.8897
-12783.3
-3442.64
-905.07
-237.963
-76.503
-3342.82
-1074.61
-293.826
-73.2766
-24.5661
-228.613
-7939.04
-7061.24
-2989.72
-1571.05
-733.77
-3176.38
-2091.67
-6313.03
-6842.25
-3794.6
-3525.05
-51.6563
-93.0914
-185.582
-340.96
-574.571
-892.116
-39.5231
-97.9042
-228.875
-453.352
-791.724
-1251.87
-36.9605
-15.349
-75.7495
-43.3674
-165.293
-113.157
-318.701
-256.7
-531.714
-493.39
-816.479
-818.365
-1325.64
-1915.26
-2793.6
-4776.93
-5831.89
-7642.54
-1813.02
-2387.33
-2826.25
-3118.46
-2953.1
-2963.29
-46.1143
-38.4878
-28.7684
-17.7233
-5.97909
-82.941
-69.0593
-51.4952
-31.6643
-10.6712
-164.957
-136.963
-101.843
-62.4892
-21.0355
-302.152
-249.985
-185.25
-113.379
-38.1166
-507.105
-417.602
-308.135
-188.023
-63.1175
-782.775
-640.457
-469.928
-285.723
-95.7591
-35.2436
-29.3738
-21.925
-13.4924
-4.54912
-87.1026
-72.3978
-53.8917
-33.0946
-11.1455
-203.135
-168.366
-124.987
-76.5978
-25.7693
-401.096
-331.238
-245.059
-149.818
-50.341
-697.519
-573.312
-422.354
-257.471
-86.397
-1096.77
-896.002
-656.7
-399.083
-133.74
-33.0257
-27.5961
-20.6517
-12.7346
-4.29823
-13.723
-11.4746
-8.59295
-5.30166
-1.78999
-67.578
-56.3564
-42.0892
-25.912
-8.73819
-38.7247
-32.3294
-24.1716
-14.894
-5.02501
-147.147
-122.395
-91.1705
-56.014
-18.8685
-100.836
-83.9738
-62.6247
-38.5105
-12.9786
-282.848
-234.411
-173.984
-106.602
-35.8579
-228.001
-189.125
-140.487
-86.1283
-28.9793
-469.883
-387.485
-286.248
-174.795
-58.695
-436.298
-360.023
-266.087
-162.518
-54.5758
-716.602
-586.402
-430.244
-261.539
-87.6333
-718.847
-588.646
-431.984
-262.533
-87.9448
-1153.18
-934.921
-681.071
-412.512
-138.05
-1643.76
-1314.64
-949.003
-572.987
-191.648
-2346.45
-1838.43
-1313.05
-793.068
-265.807
-3884.07
-2954.9
-2092.67
-1277.9
-431.257
-4471.97
-3283.58
-2329.51
-1477.03
-525.657
-5621.16
-4033.91
-2878.44
-1882.56
-684.808
-1576.82
-1278.39
-931.473
-564.372
-188.948
-2056.37
-1651.31
-1195.44
-722.69
-241.927
-2402.04
-1904.93
-1369.5
-827.535
-277.474
-2595.17
-2020.35
-1441.64
-874.532
-294.792
-2370.36
-1797.65
-1276.26
-786.672
-270.969
-2293.04
-1695.28
-1201.04
-755.41
-265.284
-52.8956
-97.5253
-195.364
-359.385
-605.754
-938.727
-40.9912
-103.2
-240.485
-474.535
-824.704
-1295.49
-38.0294
-16.0027
-79.9225
-46.2028
-175.805
-121.449
-341.482
-278.789
-575.145
-553.954
-883.777
-963.425
-1391.13
-2002.41
-2900.85
-4860.21
-5873.51
-7651.16
-1861.95
-2433.01
-2860.69
-3133.15
-2952.91
-2960.64
-47.2362
-39.4407
-29.4941
-18.1773
-6.13361
-86.955
-72.4694
-54.0927
-33.2898
-11.2244
-173.818
-144.494
-107.584
-66.0837
-22.2593
-318.855
-264.197
-196.094
-120.176
-40.432
-535.417
-441.736
-326.587
-199.608
-67.0683
-825.243
-676.81
-497.845
-303.317
-101.772
-36.5722
-30.5025
-22.7847
-14.0304
-4.73217
-91.9001
-76.4761
-57.0004
-35.0411
-11.8083
-213.663
-177.327
-131.826
-80.8851
-27.2299
-420.34
-347.651
-257.614
-157.703
-53.03
-727.569
-599.033
-442.102
-269.912
-90.648
-1136.72
-930.412
-683.29
-415.924
-139.512
-33.9932
-28.4169
-21.2761
-13.1249
-4.431
-14.3139
-11.9755
-8.97362
-5.5394
-1.87078
-71.3517
-59.5578
-44.5243
-27.434
-9.25581
-41.2871
-34.5013
-25.822
-15.9248
-5.37541
-156.653
-130.458
-97.3035
-59.8475
-20.1724
-108.328
-90.3226
-67.4483
-41.5228
-14.0027
-303.447
-251.886
-187.276
-114.913
-38.6849
-247.955
-206.033
-153.334
-94.1532
-31.7081
-509.146
-420.783
-311.575
-190.63
-64.0827
-490.851
-406.091
-300.979
-184.264
-61.9617
-777.63
-638.336
-469.895
-286.416
-96.1155
-849.154
-698.328
-514.819
-314.068
-105.438
-1213.22
-986.679
-721.114
-437.91
-146.761
-1724.54
-1385.1
-1004.16
-608.34
-203.845
-2447.97
-1928.78
-1385.22
-840.176
-282.21
-3970.07
-3037.07
-2162.74
-1326.37
-448.489
-4522.59
-3336.36
-2378.08
-1513.64
-539.995
-5636.02
-4051.73
-2896.63
-1897.73
-691.017
-1622.06
-1317.78
-962.233
-584.03
-195.719
-2099.32
-1689.39
-1225.73
-742.334
-248.75
-2435.58
-1935.68
-1394.74
-844.359
-283.403
-2611.81
-2037.52
-1457.18
-885.719
-298.881
-2373.45
-1802.98
-1282.57
-792.165
-273.254
-2292.2
-1695.82
-1202.53
-757.15
-266.09
-17930.7
-12698.6
-2148.69
-1318.11
-1130.42
-1550.02
-1309.96
-11523.2
-11492.3
-9229.02
-10414.2
-4439.53
-7954.66
-2997.53
-3243.32
-2115.84
-18718.9
-8385.08
-2043.41
-3378.72
-5777.72
-3484.53
-3599.39
-2585.43
-1181.37
-1883.07
-2089.02
-2248.54
-17629.3
-10224.6
-10263
-5950.44
-5754.14
-6402.32
-2414.27
-2630.49
-3355.11
-11095.7
-9528.06
-7082.22
-5762.37
-4175.83
-8560.49
-5899.57
-4329.88
-3072.74
-1192.45
-1849.31
-1483.17
-1074.04
-650.232
-217.616
-1151.83
-938.551
-686.933
-417.446
-139.912
-986.214
-802.273
-586.384
-356.126
-119.407
-1360.38
-1113.6
-817.853
-497.845
-166.99
-1139.75
-924.523
-674.362
-409.191
-137.141
-7722.55
-6302.37
-4694.99
-3669.82
-3011.38
-7366.67
-6112.28
-4507.85
-3331.05
-2171.78
-6716.5
-4738.5
-3457.13
-2348.96
-931.023
-6993.96
-5484.45
-3973.54
-2885.92
-1592.5
-3610.16
-2753.38
-1960.4
-1208.4
-422.154
-6131.87
-4463.1
-3183.04
-2035.57
-768.364
-2502.4
-1951.91
-1395.17
-848.621
-288.989
-2696.7
-2095.66
-1495.81
-910.851
-310.994
-1781.97
-1400.88
-1003.9
-608.905
-206.131
-12269.4
-9495.3
-7123.36
-5545.85
-4052.48
-6345.64
-4615.5
-3327.13
-2184.38
-831.301
-1698.55
-1320.37
-943.561
-575.429
-196.367
-2809.63
-2185.74
-1563.26
-953.932
-324.702
-4657.54
-3529.7
-2515.18
-1561.68
-543.041
-2895.42
-2246.3
-1603.48
-976.592
-329.948
-3038.53
-2388.93
-1713.79
-1038.86
-347.336
-2203.9
-1751.96
-1262.52
-764.64
-256.861
-1011.06
-806.895
-582.477
-352.655
-118.548
-1627.58
-1311.55
-952.44
-577.175
-193.583
-1765.25
-1392.32
-999.619
-606.264
-204.796
-1910.69
-1515.03
-1090.69
-661.159
-222.671
-10956.1
-8891.8
-6687.35
-5372.23
-3808.55
-7195.68
-5037.66
-3673.19
-2535.39
-991.907
-7844.78
-5914.02
-4273.95
-2950.52
-1160.5
-4684.07
-3365
-2395.66
-1521.02
-477.998
-4686.19
-3540.38
-2516.2
-1547.99
-511.283
-5046.43
-3625.16
-2581.61
-1638.62
-507.334
-2033.5
-1597.97
-1146.22
-695.832
-234.222
-2264.31
-1816.57
-1315.15
-795.977
-266.713
-2818.19
-2208.1
-1580.4
-958.509
-322.618
-227.332
-649.538
-1052.6
-1480.1
-1947.1
-2402.69
-2978.75
-7534.16
-6793.82
-2872.5
-8636.54
-8461.3
-8697.07
-11989.5
-1734.98
-115.422
-3276.17
2072.51
-12467.3
-11375.3
3015.84
-2104.14
-5765.19
-5282.44
-2123.67
-6355.51
-3922.11
-6636.84
-6782.36
-737.571
1464.81
-1338.56
5163.37
-8168.47
-6110.48
5671.91
-1182.04
-3578.06
-3503.84
-1323.73
-3503.05
-278.077
-4414.28
-4108.97
-97.9291
1614.74
432.55
5104.14
-4228.49
-230.596
6182.62
-673.563
-2237.64
-2451.11
-873.946
-1378.17
1562.7
-3216.71
-3256.44
177.463
1051.31
901.446
3919.81
-2618.69
2339.74
5567.04
-511.956
-1928.38
-2125.34
-714.113
-1048.16
1240.11
-3191.37
-4237.19
262.99
634.989
962.937
2908.54
-2578.74
2006.52
3284.64
-464.617
-1820.77
-1954.88
-647.118
-1551.84
65.1217
-2987.08
-4133.04
286.574
948.513
698.911
2707.03
-3592.07
292.46
1869.11
-1277.34
-2981.7
-4550.86
-1896.11
-6196.85
-11334
-7422.82
-13265.9
-1406.43
-1142.34
-4587.93
-3512.61
-1788.42
-8469.26
-3727.79
-1197.59
-2787.35
-3889.21
-1566.65
-5630.19
-9206.84
-6371.96
-9052.07
-1399.61
-962.738
-4255.43
-3115.13
-1029.98
-7403
-3381.8
-1013.02
-2369.08
-2937.72
-1146.08
-4661.59
-7252.42
-4862.2
-7154.94
-1081.92
-1175.75
-3382.95
-3502.46
-1176.57
-5999.83
-3593.61
-897.386
-2308.11
-2363.44
-876.896
-4368.55
-6277.14
-4258.27
-6270.76
-1004.57
-1341.14
-3108.05
-3924.63
-1438
-5916.65
-3946.66
-817.933
-2091.39
-2110.4
-758.256
-3876.32
-6182.3
-3953.02
-6539.01
-990.048
-1619.68
-3042.17
-4639.83
-2138.77
-6445.46
-4777.69
-773.969
-1962.71
-1958.21
-698.567
-3801.82
-6172.66
-3653.24
-6233.21
-1064.98
-1930.64
-3227.98
-5065.91
-3036.75
-6973.78
-5175.68
9044.96
11036.2
22265.8
35175.5
34108.6
66472.2
23255.6
69760.9
23755.5
55664.2
29255.3
48446.3
22252.1
29799.2
10325.8
10589
17309.6
20234.5
22930.4
21203
15630.4
23441.6
22963.8
23031.3
6245.73
4805.79
8390.78
6237.86
15616.9
10827.6
28339.2
20459.7
23582.7
24370.3
24973.5
26472.5
6540.21
5361.98
53413.8
66041.7
29017.3
38405.4
67153.9
82858.1
31447
38686.4
40927
53475.6
33302
45644.6
19463.7
24359.8
3981.6
1309.21
4995.35
1783.16
9578.19
4009.66
16011
6002.14
11213.5
3739
10666
3084.89
20491.8
6087.58
26716.8
8547.99
32260.7
18891.8
27102.3
18750.1
31619.7
20425.8
25075.6
19751.2
22122.3
16138.7
24641.5
15968.5
26309.8
19088.6
27255.8
19486.9
24610.1
19855.2
25638.6
20158.5
22600
16760.5
24279.5
17282.6
24683.8
10590.8
14848.5
17513.1
26780.9
12449.8
15083.3
18772.6
24604
9737.32
15290.6
17008
25443.8
9759.29
15942.1
17063
3868.78
4415.69
1405.87
2982.7
11768.9
13937.5
5131.65
10302.1
19218.6
22805.8
9537.95
17527
19179.7
9587.29
21821.6
28535.7
15538.9
6319.22
10349.7
14926
28879.5
21233.4
12485.2
17281.7
20405.7
21211
27556.8
4026.9
3990.27
2592.59
2738
12864
11462
9040.36
8820.6
19132.8
16224.1
13511.1
13003.8
9812.13
10594.9
15548.4
16352.6
20195.4
18564.5
25691.2
22607.5
20161.8
19606.4
14115.6
13748.2
18676.6
15021.1
18789.7
13809.4
18131.4
12762.1
22166.2
16376.1
15138.7
6113.45
12352.1
10572.4
16210.2
16965.1
16679.8
20035.1
11031.5
9451.99
14394.5
4248.82
12318.3
17475.4
12992.7
19064.8
17150.9
25021.2
17960.4
26113
11187.9
16290.6
11862.1
18053.9
14248.5
9218.28
19472.8
7692.55
14742.9
3129.7
18193.3
2109.74
15147.8
14005
20601.5
9863.33
14006.4
16469
19200.9
12695.8
3423.18
2930.96
2181.61
2300.11
2096.49
1653.34
9690.72
7323.51
5504.5
6840.21
5008.83
3661.87
12093.9
8726.91
6991.39
9956.22
6806.43
5319.13
8544.59
5433.65
4338.04
14280.3
8414.47
5593.09
14432.5
8543.18
5330.94
17021.1
11058.4
7782.11
15544.7
9001.78
5515.68
15879
10536.6
7732.73
12886.5
8293.41
5456.78
12711.1
7763.13
4771.53
12651.3
7754.44
4806.01
15654
8049.14
3915.57
12858.6
20344.8
11296.9
15568.1
11309.1
22398.7
9815.2
18661.7
98.3082
1480.63
-259.472
939.895
3485.47
6435.22
2338.59
4176.57
2395.11
4300.84
11733.9
16871.4
8497.58
6875.88
13248.8
11727.8
18728.6
20202.9
-243.097
-5677.75
9152.23
6403.86
6840.73
3859.51
1377.42
884.025
1210.93
794.081
3849.66
1190.06
2225.01
546.7
9846.98
2705.77
7850.65
2459.65
8741.89
2581.7
9700.83
2988.56
13869.4
12717.5
10715.3
12363.3
21953
18824.8
17822
17615.3
7405.04
8653.41
8677
8140.17
9961.98
12100.7
10375.3
12107
16983.7
17067
17580.5
17103.5
6507.17
8627.57
6212.86
8621.7
650.302
869.108
6089.77
2566.89
759.134
679.39
5400.84
2165.27
594.554
749.472
6326.1
2794.19
777.58
782.284
6293.76
2902.62
-130.09
-265.229
388.554
192.544
-689.613
-1147.49
621.165
248.993
1020.59
70.3726
1859.48
1366.43
-6313.23
-3197.03
-3544.41
-2382.66
-195.708
-6578.17
-9094.05
-3922.17
-3903
-292.626
10467.3
7239.41
5246.15
4601.32
1984.73
-367.395
-278.019
64.744
57.842
-1103.42
-1047.2
183.288
151.276
-967.527
-1175.9
682.402
572.134
-2115.98
-293.882
-6308.88
-3579.56
-3017.06
-1658.26
-2792.05
-1952.16
-191.846
64.3418
5794.95
4081.49
488.907
-781.393
-146.54
-915.635
205.832
-500.423
30.9393
66.0063
4326.32
4200.17
9089.18
5526.84
9048.68
7832.43
13012.6
9432.86
6182.44
3558.18
2322.43
2601.43
10596.2
4573.01
11331
4360.91
14863.3
9296.08
15898.6
9185.05
7351.13
2678.63
7910.6
2385.65
3777.76
2571.3
1842.55
3109.38
1751.9
2048.36
1009.75
2506.82
4124.3
2281.73
2305.46
3569.85
5022.48
2059.88
2908.38
3369.32
-241.483
-213.495
-216.707
36.9225
-42.9773
-49.0654
-876.853
-777.976
-731.521
60.9359
-173.408
-187.816
-1096.58
-1156.28
-1121.29
301.955
-311.312
-383.556
418.509
-252.173
-237.7
-1766.91
-1799.84
-1545.61
-1260.37
-1335.35
-1215.75
-1475.37
-1475.8
-1370.45
145.653
-433.471
-371.289
4499.7
2255.4
1243.8
431.068