/*--------------------------------*- C++ -*----------------------------------*\
| =========                 |                                                 |
| \\      /  F ield         | OpenFOAM: The Open Source CFD Toolbox           |
|  \\    /   O peration     | Version:  2412                                  |
|   \\  /    A nd           | Website:  www.openfoam.com                      |
|    \\/     M anipulation  |                                                 |
\*---------------------------------------------------------------------------*/
FoamFile
{
    version     2.0;
    format      ascii;
    arch        "LSB;label=32;scalar=64";
    class       volScalarField;
    location    "0.7";
    object      gradTz;
}
// * * * * * * * * * * * * * * * * * * * * * * * * * * * * * * * * * * * * * //

dimensions      [0 -1 0 1 0 0 0];

internalField   nonuniform List<scalar> 
5712
(
9389.65
28346.5
7188.53
30806.6
3882.08
32220.8
6422.03
49916.5
10406.2
62395.4
10821.5
44984.2
11658.2
40301.8
11559.2
34913.2
5307.45
3106.86
16252
8004.21
4916.54
2325.51
17104.2
6946.27
7353.72
5708.34
21591
16490.7
4924.82
4135.13
21669.1
17132.1
11191.6
4161.7
8852.17
3459.44
4218.48
10803.5
49966.6
15065.7
15174.7
6598.76
59287.8
18250.3
13634
5893.7
34075.4
11254.8
17415.6
7706.39
28582.3
8997.1
8686.95
4649.21
12871.6
5386.03
8122.24
4896.26
13422.7
5281.83
10414.9
6562.01
8647.72
3834.99
14322.5
5337.84
5527.64
2100.15
18077.7
14166.2
10432.2
9667.94
18074.2
15943.5
9511.24
10113.6
10448.7
9480.74
14929
13224
7339.12
6455.49
3834.16
3287.72
6685.81
6633.04
3354.13
3347.22
7508.26
6213.66
4020.19
2890.49
9440.78
5458.22
9939.45
10695.6
13555
10281.9
14931.7
18892.4
6446.13
2889.86
6068.11
6193.44
3379.9
1246.22
2542.95
2276.48
11157.1
21340.1
7755.75
23942
12084.6
21309.5
9164.37
25143
15118.3
20511.9
12348.3
24977.2
14015.3
14245.6
12934.7
13454.7
15250.3
9362.11
12350.9
18316.6
22414.4
32196.7
12886.8
12299.7
13001.4
16568.4
25156.6
26492.3
25566.7
30930.5
31278.4
25448.6
25291.3
30674.4
30606.8
22787.6
23489.8
28841.9
29158.7
11582.9
12214.1
13434.3
14213.9
16963.1
17568
20870.5
20830.1
27288.2
27900.7
10322.7
11558.3
13037.9
14892.9
15785.8
18198.6
19234.2
22125.4
26007.5
29255.2
12378.7
8374.63
9745.09
9176.69
12620.9
13137.9
10060.9
12211.1
9745.54
9264.75
12759.2
9165.21
4333.04
6434.58
1417.78
2150.95
6048.91
8784.57
1975.34
3000.39
4101.76
6153.09
1276.39
2045.08
9886.45
8128.1
10663
6765.6
14303
10301.7
16961.1
11584
4851.5
5041.81
6000.27
3483.76
3251.28
3324.2
3635.17
2667.25
22424.8
14859
4975.66
24324.1
15424.1
5350.87
21774.2
14386.7
5024.53
23922.4
15250.7
5223.42
20284.8
13218.9
4444.98
23000.9
14785.4
5093.65
9171.08
5586.34
1671.53
12436.2
8466.99
2778.35
15485.7
10687.5
3611.75
18016.1
11860.4
3942.52
21746.7
13922.6
4882.68
9522.21
5504.32
1909.59
11584.9
7699.56
2788.36
14101.8
9428.24
3348.6
17062.9
11019.6
3846.95
20682.8
12378.8
4355.23
-606.973
879.772
158.637
2472.36
2085.96
1984.37
5290.08
4492.92
588.622
840.324
622.223
879.487
276.065
776.613
527.738
1149.5
1356.19
940.352
3366.84
2505.47
1422.39
2113.15
2760.3
-31.6679
6654.07
1485.05
-5291.1
-1948.12
-10.5161
-309.686
-988.61
-1152.4
8918.14
3340.51
2306.63
1173.47
8749.6
3316.56
2445.03
1317.85
8301.96
3460.21
2958.19
1681.62
2062.72
994.673
491.337
433.299
13456.5
11517.3
5587.33
7142.78
16802.3
15475.9
7960.56
9412.89
4440.81
5386.06
10243
8136.19
3223.17
4381.48
1380.25
2129.11
5025.64
5843.2
2414.6
2897.15
2131.26
3300.67
730.117
1658.89
3488.45
1963.86
3906.35
2016.5
6524.88
3028.98
5443.31
2744.75
1706.55
1142.12
2516.37
1245.04
524.987
466.883
1334.48
609.506
9971.47
5588.48
4116.18
3621.55
9903.33
5660.54
3983.98
3520.55
10045.2
5624.98
3938.64
3265.1
13458.3
14589.6
11207
7628.09
3426.26
8734.25
9203.68
8566.94
7010.73
3758.37
12586.8
9951.86
7255.67
5046.6
2500.82
3809.71
3024.84
3262.07
3165.79
3964.38
3134.09
3235.94
3179.9
4094.37
3333.6
3154.41
3167.08
9688.42
9105.18
7798.87
6498.19
5019.02
4659.41
4008.35
3706.17
2808.31
3114.06
7330.29
8150.48
5438.51
5929.83
4091.39
4383.2
3209.65
3459.88
2078.52
2919.67
4990.35
3932.74
3359.23
2092.55
8280.28
6076.4
6529.31
4241.39
2130.95
1375.01
3250.59
2822
3808.66
1810.16
1403.82
754.461
5584.96
3263.27
1885.66
1272.9
2660.42
1183.59
1061.12
497.68
1302.78
1445.72
1170.38
1827.58
2105.89
2306.77
1406.61
2349.97
1571.74
1010.07
810.868
1306.7
469.495
110.294
-126.163
142.645
2171.19
1009.88
291.452
2014.2
570.849
155.981
2308.23
1151.77
358.973
2076.12
620.927
177.871
2446.07
1268.81
357.964
2093.21
643.167
169.432
6313.13
3655.68
1072.42
4401.08
2534.63
766.146
3445.72
1893.94
583.721
2651.85
1373.43
383.181
2115.39
642.763
158.245
6699.1
3668.62
1218.81
4899.91
2699.45
905.063
3650.95
1971.3
651.031
2768.48
1306.7
400.566
2336.81
699.455
229.197
1060.12
331.339
139.537
42.5804
422.766
136.386
60.3383
19.7102
1060.07
339.535
155.336
52.0451
466.229
160.674
85.6385
33.5277
1159.3
383.772
189.86
68.7826
681.078
261.075
105.242
38.74
357.798
167.418
32.2292
5.76817
267.689
145.042
43.3514
15.1961
837.181
306.277
125.926
33.8493
761.27
271.727
139.781
31.7499
1150.91
391.017
199.431
64.1181
977.871
328.582
184.929
35.9117
528.366
213.016
77.9149
22.9938
512.29
197.277
97.5953
27.2425
279.415
132.237
53.3627
21.768
265.896
119.195
60.2133
24.3871
1318.49
409.787
183.322
49.961
1279.79
394.848
213.885
41.6898
1288.7
405.39
191.114
52.5376
1222.89
377.862
210.363
39.3783
1262.06
402.499
212.358
61.2475
1091.59
337.265
202.653
40.3276
1122.83
362.623
211.161
73.0776
1178.34
363.551
246.1
53.6263
835.832
270.064
161.002
42.2784
968.261
281.304
162.846
28.1523
360.6
98.2049
51.0764
12.229
960.934
281.129
161.828
28.0186
370.702
102.056
53.5578
13.7158
911.942
267.531
159.387
28.0682
363.838
101.076
55.4755
15.3933
775.676
225.143
148.137
29.5354
326.089
88.6651
56.8623
17.3544
676.495
201.213
133.697
32.2401
299.975
85.3666
56.915
18.6897
465.163
157.608
80.2778
19.2093
238.547
87.9872
38.2563
14.1454
537.957
166.922
103.805
25.1802
263.339
84.7899
48.2577
17.5148
350.942
134.213
61.5144
17.0917
194.726
80.8484
30.0543
12.3489
203.259
93.5912
44.3694
18.174
132.575
64.7816
27.3225
13.3632
8.83569
1.86004
0.457775
0.13436
0.0539351
3.69556
0.821918
0.21143
0.0639997
0.0261542
9.85232
2.39829
0.692344
0.228391
0.098196
5.71818
1.72688
0.568045
0.200994
0.0895049
13.5905
4.01639
1.31515
0.464838
0.206747
17.0207
6.06129
2.1821
0.807093
0.367206
15.1183
5.80751
2.16531
0.816381
0.375952
12.1032
5.09479
2.0027
0.78109
0.368016
14.3594
4.68545
1.63792
0.599394
0.271966
10.6098
3.5745
1.26735
0.466792
0.212408
15.3675
4.82145
1.65132
0.597335
0.2686
9.38345
3.14033
1.11484
0.409889
0.185732
13.7867
4.94497
1.79623
0.671038
0.308411
11.0931
4.27088
1.6025
0.606942
0.280497
11.1017
4.65229
1.82968
0.714309
0.336892
10.4268
4.45005
1.76316
0.6903
0.326033
9.0036
1.76171
0.412205
0.116859
0.0459231
3.83209
0.713639
0.162367
0.0452157
0.0175604
9.29214
1.98986
0.527662
0.165759
0.0694072
3.73289
0.741782
0.185661
0.0562331
0.0230535
9.10799
2.25145
0.668843
0.224949
0.0974445
4.23608
1.09372
0.335703
0.115054
0.0503003
13.2249
4.05612
1.35938
0.485011
0.215695
6.74875
2.02786
0.67479
0.239901
0.106326
11.5076
3.96466
1.40931
0.516601
0.233002
4490.25
7848.48
4302.19
7646.18
4101.66
7152.23
4055.91
6892.34
4211.87
7504.92
2474.12
3316.81
3329.23
5013.84
1620.99
1960.57
561.527
716.282
13641.4
3381.05
806.899
190.786
54.2523
3685.15
1005.11
277.859
66.2056
16.9924
13395.2
3278.14
777.743
182.897
51.8623
3817.45
1134.52
288.814
71.0134
19.9871
12663.1
3053.35
718.648
168.296
47.6794
3704.41
1092.56
275.742
67.1123
18.7154
11552.9
2739.86
641.595
150.481
42.932
3526.63
1014.58
251.129
60.2156
16.583
9806.89
2301.15
541.065
128.272
37.231
3198.58
881.647
214.008
50.8485
13.9378
5262.72
1328.53
326.132
79.9467
23.9632
1617.48
420.889
95.1565
20.7424
5.20097
7476.66
1828.87
439.459
105.959
31.3259
2253.73
601.537
142.988
33.4803
9.07631
3257.93
845.388
211.07
52.3932
15.8524
1022.93
272.628
60.7136
12.5059
2.91216
1178.95
310.605
78.3526
19.6337
5.99291
454.63
113.177
24.1734
6.59964
1.05329
-2576.12
-49.4574
4792.44
-4475.11
1057.73
1129.53
2847.34
3500.19
2388.26
3883.74
3332.27
5041.84
3346.94
4345.91
1581.96
2285.46
1656.89
1932.24
1131.64
1172.91
2559.37
1750.41
186.102
-155.607
-163.219
-254.504
56.3165
12947.6
4735.88
4852.54
4023.55
920.523
652.598
3332.56
91.0206
342.275
101.436
83.4275
6259.23
3456.53
2023.4
1105.01
2944.81
1633.92
495.741
744.968
-135.097
-29.5881
1079.45
986.569
8922.86
3886.53
4452.24
2352.9
2727.29
3451.78
590.025
-18.4968
831.896
1608.3
1260.73
966.94
765.286
482.065
1292.03
951.404
695.96
463.25
167.739
158.021
125.304
90.326
54.8261
18.4277
-135.22
-109.291
-79.2303
-47.7264
-15.9035
-143.613
-117.649
-86.0754
-52.0285
-17.367
-223.179
-182.227
-133.127
-80.511
-26.8909
49.1594
40.3381
30.2956
19.0541
6.49297
8821.39
7064.58
5188.05
3915.83
2775.23
3744.53
2665.46
1994.4
1369.01
526.257
3716.8
2710.08
1963.38
1302.64
501.242
2953.84
2091.54
1496.67
964.659
338.273
695.779
476.341
349.99
223.72
87.0685
571.651
466.259
344.34
213.246
72.4395
2637.32
1964.81
1386.21
861.668
301.696
157.373
173.815
144.799
95.2422
32.6852
295.078
239.282
177.564
111.081
38.2265
126.284
129.783
109.251
72.4735
25.2337
61.0897
42.1863
28.5577
17.6677
6.26189
3958.86
3380.32
2537.72
2022.86
1556.99
2682.9
1956.17
1426.52
937.133
328.854
1707.15
1345.11
973.065
598.744
203.543
924.927
723.307
520.082
318.299
107.719
2379.87
1801.82
1274.53
780.97
266.952
1391.31
1096.13
789.708
479.326
156.737
416.178
326.806
236.053
144.64
48.6086
638.415
509.638
368.999
224.135
74.962
-112.437
-86.1358
-58.5077
-33.0068
-10.5679
-26.7932
-21.9183
-14.7785
-7.64828
-2.26155
913.025
720.385
517.333
313.762
105.667
836.858
661.819
475.866
288.441
96.8915
5529.36
4026.61
3089.62
2454.54
1605.94
2864.3
2096.21
1518.19
1001.5
372.403
3276.31
2472.63
1822.74
1279.34
473.751
1784.35
1363.51
992.484
643.802
251.656
2240.04
1722.6
1230.35
754.203
254.945
2736.88
1884.03
1354.85
872.432
213.339
502.314
398.862
289.062
176.465
59.0592
-19.2421
-17.6897
-12.9557
-7.1152
-2.19779
707.633
559.684
405.076
247.441
82.3163
-40262.1
-61287.2
-30847.1
-51915.9
-31794.2
-70526.6
-41413.7
-85889.1
-23385.3
-16387.9
-25053.6
-14217.9
-21380
-14542.5
-24817.3
-12546
-34331.5
-24930.3
-46163.8
-34183.3
-27355.2
-20716.8
-39560.8
-30380.5
-20454
-21681.4
-14815.6
-15284.1
-18545.3
-18612.5
-56730
-17446.3
-18937.8
-9146.23
-65299.5
-20922.5
-17059.4
-8528.37
-40686.3
-13392.7
-20973.8
-9886.44
-34925.5
-10549
-17198.5
-7417.32
-22870
-8704.84
-15136.4
-6883.32
-21068.9
-7652.63
-15833.6
-7890.98
-13064.7
-5133.31
-17773.8
-6439.21
-6924.61
-2610.39
-15320.9
-11833.9
-12403.7
-9753.42
-12921.1
-11348.7
-10798.9
-9551.36
-12654.6
-9898.91
-15059.1
-12567.4
-9220.89
-7141.18
-5473.98
-4180.15
-8242.16
-7027.5
-4869.58
-4080.56
-9388.03
-6953.7
-5546.92
-3742.39
-11450.7
-6154.2
-10358.1
-10814.4
-15226.5
-10815.4
-14860.6
-18619.9
-7979.24
-3427.54
-6640.66
-6417.72
-4547.79
-1666.49
-3168.65
-2517.37
-15625.3
-20264.9
-9166.76
-23624.7
-15589.3
-19748.7
-10118.5
-24455.8
-17304.6
-19002.4
-12677.6
-23903.3
-9860.94
-6368.52
-12791.6
-14981.5
-15419.6
-8367.56
-12074.9
-18153.7
-21513.6
-30914.4
-8086.62
-9638.61
-11804.3
-15814.6
-24362.8
-21543.9
-17587.9
-27549.1
-22840
-20809.3
-17880
-27540.6
-22981.9
-18984.5
-16828
-25976.8
-22743.8
-11283.8
-10334.2
-12412.7
-11173
-14482
-13175.3
-17236.7
-15514.2
-24675.7
-22663.1
-8961.84
-9649.1
-10876.4
-11160.2
-13165.3
-13501.5
-16529.3
-16969.7
-23964.3
-23951.4
-10813.8
-7314.36
-9133.95
-8601.76
-10494.2
-11775.6
-9032.68
-11287.7
-9447.47
-8880.56
-11723.7
-8241.18
-4295
-6249.26
-1645.24
-2182.66
-5745.01
-8380.67
-2034.49
-2880.24
-4194.88
-6090.73
-1565.08
-2149.85
-9744.91
-7845.2
-10545.2
-6511.48
-13585.2
-9438.71
-16430.4
-10692.5
-4959.16
-5032.91
-6062.32
-3470.56
-3492.28
-3444.56
-3780.5
-2753.98
-12772.8
-4906.7
-14254.5
-4965.68
-13034
-4935.85
-14904.6
-5494.8
-12646.2
-4681.88
-15877.5
-6235.83
-6196.72
-1741.91
-7896.35
-2868.09
-9621.87
-3729.46
-11810.2
-4431.44
-15792.9
-6122.31
-6844.14
-1618.11
-7352.26
-2662.01
-8913.2
-3353.09
-11432.5
-4242.94
-14639
-4953.29
-8668.16
-8202.97
-6408.82
-5810.87
-13941.6
-11136.8
-11233.9
-8819.49
-6593.85
-5367.72
-2638.51
-1958.76
-6278.31
-5409.42
-2486.31
-2139.76
-4081.12
-7025.89
-5145.56
-8264.66
-5503.31
-3348.64
-4994.89
-2150.73
-9411.32
-4034.69
2826.31
-176.936
-1501.68
-1288.6
-263.733
-163
-2727.43
-1162.56
-1153.57
-396.272
-2845.56
-1321.85
-1406.57
-490.575
-3262.12
-1587.84
-2089.37
-668.213
-2090.79
-441.417
-934.137
-25.869
-6752.2
-6470.57
-5278.1
-5569.3
-10103.3
-9658.98
-8360.17
-8141.85
-3473
-3836.53
-4907.27
-4481.9
-3882.93
-4013.86
-2289.43
-2231.95
-6140.85
-5816.34
-3686.76
-3328.72
-2250.08
-2711.46
-1185.48
-1474.87
-2151.76
-1013.85
-2611.77
-1170.86
-2970.85
-1515.36
-3016.91
-1508.32
-1364.37
-596.151
-1867.89
-686.726
-549.544
-102.552
-977.857
-193.878
-2782.94
-2372.43
-1681
-2142.62
-2927.39
-2585.31
-1757.41
-2195.56
-3505.03
-2775.41
-1981.45
-2174.61
-3618.92
-4551.55
-3550.79
-2797.63
-1630.49
-6274.12
-4809.61
-3850.96
-3512.32
-2390.36
-6565.93
-4669.99
-3405.84
-2493.49
-1239.64
-2687.03
-3004.7
-3193.06
-5054.55
-2721.94
-2749.86
-2990.07
-4678.47
-2888.47
-3147.99
-2767.24
-4172.88
-9377.35
-7987.86
-6842.25
-5758.91
-4156.02
-4198.49
-3299.76
-3565.89
-2403.06
-3747.58
-6332.05
-6997.98
-4279.02
-5039.68
-2947.27
-3653.29
-2303.28
-2981.2
-1295.37
-2877.74
-3098.14
-2939.3
-2207.72
-1292.4
-6059.69
-4949.05
-5303.63
-3372.37
-1147.56
-686.455
-1819.83
-2020.64
-3213.01
-1358.48
-1141.81
-510.291
-5055.13
-2802.68
-1757.14
-1060.14
-2079.82
-780.698
-722.777
-250.283
-569.382
-955.082
-690.229
-1578.37
-1115.72
-1770.39
-845.256
-2178.1
-1079.83
-691.56
-409.978
-1081.77
-110.108
124.512
453.955
53.1207
-2462.96
-872.561
-3546.56
-469.99
-2305.6
-1005.44
-3341.08
-472.413
-2239.97
-762.091
-2699.99
-193.422
-4598.94
-1233.98
-3471.23
-993.373
-3063
-992.952
-2210.36
-512.451
-2466.17
-197.265
-4992.61
-1020.08
-3789.03
-797.607
-3009.88
-693.08
-2319.52
-346.094
-2557.88
-294.069
-468.887
-159.53
-85.9674
-23.0631
-170.685
-58.1872
-35.2373
-11.4323
-480.345
-158.182
-95.1337
-28.2286
-150.277
-47.4359
-43.8388
-17.0916
-553.401
-175.971
-112.685
-31.5435
-167.86
-39.0255
1.89834
17.8274
59.1614
49.5583
80.5201
50.4371
161.077
102.006
84.2988
42.5411
-390.24
-113.467
-35.1333
12.6015
-345.649
-88.5485
-59.4088
9.62307
-609.43
-189.138
-117.341
-17.1339
-486.618
-137.158
-112.715
5.41335
-169.239
-30.2435
14.182
22.6859
-174.937
-28.4367
-14.9272
15.6726
38.8432
48.19
43.728
27.2609
27.6285
40.7255
23.0639
19.947
-661.079
-219.536
-131.409
-27.7505
-788.497
-236.581
-188.205
-21.1109
-656.635
-213.608
-137.855
-28.6976
-772.898
-229.12
-186.21
-19.2692
-673.238
-210.92
-158.833
-35.8081
-714.246
-208.174
-181.228
-20.5122
-520.546
-150.245
-141.181
-31.551
-707.602
-197.297
-210.332
-24.9022
-389.98
-106.359
-99.3704
4.79027
-707.236
-174.618
-151.432
-13.1534
-296.825
-62.6232
-45.2044
-7.32251
-643.165
-159.017
-145.19
-12.1063
-277.031
-58.4665
-45.1173
-7.85287
-546.622
-130.509
-137.558
-12.2848
-239.736
-48.7192
-43.6668
-8.08981
-453.46
-104.972
-125.86
-14.2113
-211.061
-42.0737
-44.6442
-8.92348
-340.602
-78.2977
-100.357
-11.3813
-141.49
-26.6145
-37.5711
-6.52389
-210.567
-43.0195
-30.3185
11.2034
-25.4037
7.786
2.29065
8.76996
-296.12
-71.053
-68.205
-0.654596
-69.3535
-7.63191
-18.1927
0.264836
-94.4087
-3.97613
-1.26867
16.8604
7.28772
23.2187
16.9011
13.7283
40.4106
41.1844
19.7721
17.2917
54.4254
41.5973
22.0333
13.986
-3.85064
-0.377133
0.03952
0.0469854
0.0292544
-1.43186
-0.117742
0.0303444
0.0251172
0.0149208
-2.36045
0.13858
0.222697
0.117067
0.0627712
0.358693
0.512281
0.272221
0.121633
0.0619015
0.767406
1.21428
0.640902
0.285828
0.145626
6.137
3.03069
1.32171
0.554544
0.275491
7.88898
3.58138
1.52077
0.629707
0.310131
10.9717
4.43897
1.78299
0.714127
0.344022
3.18995
2.08355
0.963447
0.412212
0.206064
3.54664
1.74672
0.767959
0.324321
0.161545
3.02439
1.93827
0.895829
0.383965
0.192853
3.58057
1.52969
0.637473
0.264386
0.131182
5.06992
2.76572
1.23799
0.521878
0.25849
6.29151
2.75688
1.15651
0.477342
0.234726
9.67012
4.04334
1.63669
0.657251
0.316992
9.28125
3.90361
1.57906
0.634182
0.306003
-4.26201
-0.457149
0.0116014
0.0356497
0.0236378
-1.85024
-0.202115
0.000462379
0.0129524
0.00889093
-3.3747
-0.144138
0.115391
0.073492
0.0413718
-1.5252
-0.110568
0.0275855
0.022175
0.0130816
-1.50703
0.292902
0.250125
0.122724
0.0647857
-0.410066
0.202882
0.134023
0.0625623
0.032469
2.58776
1.52041
0.704458
0.303396
0.153507
1.04685
0.724752
0.341479
0.147408
0.0747522
4.98018
1.95856
0.796024
0.327434
0.162382
-4431.09
-6921.7
-4277.48
-6815.41
-4041.99
-6425.91
-3927.52
-6212.39
-3942.02
-6693.55
-2397.6
-3177.48
-3163.06
-4649.73
-1628.67
-1948.05
-625.067
-765.813
-13843
-3430.08
-819.402
-193.925
-55.1458
-3698.71
-1018.79
-282.319
-67.3386
-17.2839
-13539.5
-3316.38
-788.232
-185.645
-52.6625
-3839.27
-1149.61
-293.312
-72.1981
-20.3236
-12705.4
-3073.69
-725.792
-170.383
-48.3207
-3719.82
-1104.3
-279.454
-68.1297
-19.0114
-11505.3
-2743.78
-645.452
-151.874
-43.3989
-3514.55
-1019.73
-253.524
-60.9653
-16.8156
-9723.43
-2296.9
-542.74
-129.1
-37.5367
-3152.87
-880.326
-215.099
-51.3193
-14.1007
-5246.31
-1328.02
-326.911
-80.3122
-24.1023
-1587.98
-418.099
-95.3952
-20.9567
-5.29047
-7425.58
-1825.16
-440.317
-106.468
-31.5259
-2205.16
-597.571
-143.258
-33.7327
-9.17877
-3260.88
-847.167
-211.917
-52.6956
-15.9591
-1019.79
-273.57
-61.458
-12.7947
-3.01573
-1189.88
-313.317
-79.2026
-19.8966
-6.0811
-469.258
-117.243
-25.4099
-6.97066
-1.17249
-861.959
-3400.96
-8513.09
84.3824
-9089.88
-4039.26
-8897.45
-4246.68
-15397.1
-8391.96
-17867.8
-9657.63
-22.8097
-71.9075
-114.74
-138.927
-114.801
6.38529
-41.0784
-129.399
-208.183
-254.884
-223.275
-38.6097
-15.1939
-12.9879
-44.9318
-39.7407
-58.5212
-57.8843
-30.542
-45.4516
3.59837
-33.898
0.366014
-28.716
370.984
1080.26
2228.61
1800.08
1621.62
652.039
405.414
1163.32
2076.15
2393.89
2072.83
850.817
-20.3291
-16.9321
-12.6285
-7.76592
-2.61717
-64.1056
-53.4143
-39.8575
-24.5216
-8.2663
-102.188
-85.0435
-63.3837
-38.9603
-13.1273
-123.581
-102.697
-76.4296
-46.9261
-15.8017
-102.193
-84.9725
-63.2562
-38.8367
-13.0758
4.11983
2.05318
0.677243
0.0986702
-0.0110042
-36.5389
-30.3611
-22.5905
-13.8665
-4.66852
-115.106
-95.6587
-71.1953
-43.715
-14.7211
-184.889
-153.364
-113.94
-69.87
-23.5132
-225.825
-186.807
-138.43
-84.7315
-28.4883
-197.349
-162.813
-120.356
-73.546
-24.7075
-34.9666
-29.5932
-22.3421
-13.8273
-4.66948
-13.567
-11.3254
-8.46645
-5.21606
-1.75964
-11.6095
-9.70405
-7.26427
-4.48033
-1.51236
-40.1261
-33.503
-25.0521
-15.4381
-5.20889
-35.5134
-29.6755
-22.2081
-13.6944
-4.62219
-52.2283
-43.5723
-32.5542
-20.048
-6.76187
-51.6514
-43.0831
-32.1825
-19.8158
-6.68294
-27.3978
-22.9891
-17.2698
-10.6776
-3.60873
-40.5212
-33.7603
-25.1872
-15.4927
-5.22196
2.73178
1.83789
1.07567
0.537213
0.160877
-30.1531
-25.0465
-18.6222
-11.4201
-3.84245
-0.510373
-1.13485
-1.25796
-0.909478
-0.323267
-25.6531
-21.3814
-15.9112
-9.74381
-3.27381
321.228
259.266
188.282
113.912
38.1281
926.877
741.745
536.144
324.263
108.643
1877.36
1479.26
1063.16
645.604
217.437
1495.91
1184.49
857.805
527.818
184.076
1354.39
1068.24
769.423
469.489
158.677
562.571
451.207
326.719
197.915
66.0341
351.029
283.285
205.674
124.396
41.6291
1000.89
803.047
581.151
351.406
117.701
1769.12
1407.82
1014.89
614.241
206.259
2024.09
1603.62
1154.99
701.074
236.821
1745.29
1377.5
990.746
601.847
203.072
720.11
571.154
412.764
251.623
85.007
27.9091
78.3696
123.962
152.611
135.504
27.3195
49.3031
139.326
220.86
270.089
239.528
54.6981
18.533
15.4425
49.1944
43.1524
64.1419
62.8044
36.7179
50.6686
8.02826
31.7941
40.7225
43.8659
-321.305
-1009.08
-2106.66
-1666.9
-1499.81
-542.29
-388.974
-1139.57
-2029.47
-2324.19
-1985.41
-754.187
24.9407
20.8436
15.603
9.62473
3.24932
69.9474
58.3684
43.6242
26.8751
9.06657
110.522
92.1073
68.7519
42.3134
14.2674
135.935
113.156
84.3684
51.8804
17.4854
120.843
100.722
75.1815
46.2648
15.5976
26.1239
23.3676
18.4794
11.7891
4.03838
43.9817
36.6795
27.3997
16.8741
5.6918
124.092
103.291
77.0076
47.3515
15.9586
196.372
163.124
121.378
74.5267
25.0986
239.603
198.524
147.365
90.3285
30.3944
212.063
175.313
129.879
79.5071
26.7369
49.4358
41.7913
31.5617
19.5616
6.61439
16.5848
13.8835
10.4104
6.43018
2.17239
13.8276
11.5838
8.69242
5.37212
1.81552
43.9773
36.7662
27.5308
16.9857
5.73495
38.5954
32.2864
24.191
14.9322
5.0429
57.3023
47.867
35.8131
22.0811
7.45268
56.0941
46.8448
35.038
21.5978
7.28855
32.9592
27.6822
20.8202
12.8874
4.35862
45.2274
37.7406
28.2056
17.3751
5.86148
7.71419
6.95453
5.56024
3.58622
1.23736
28.4232
23.7555
17.7766
10.9591
3.69832
37.3121
31.9984
24.4695
15.2951
5.19439
39.3189
32.9443
24.6896
15.2271
5.13876
-276.877
-222.233
-160.563
-96.8025
-32.3476
-863.618
-689.189
-497.022
-300.243
-100.552
-1768.53
-1388.27
-994.983
-603.553
-203.225
-1372.01
-1076.29
-772.994
-473.43
-165.592
-1236.25
-961.255
-682.474
-411.573
-138.101
-452.982
-349.132
-241.534
-139.809
-45.0866
-336.496
-271.286
-196.806
-118.985
-39.8145
-980.129
-786.14
-568.848
-344.01
-115.244
-1727.64
-1373.33
-989.215
-598.497
-200.97
-1960.03
-1548.28
-1112.1
-673.843
-227.52
-1662.67
-1304.08
-932.199
-563.69
-189.758
-627.273
-487.239
-344.75
-206.668
-69.1762
-2389.2
-1604.67
-32.5255
275.02
302.325
444.632
172.749
-11081.7
-2769.79
-3689.17
-1645.39
11.2784
-3317.92
257.873
1231.44
245.276
-5548.07
-2639.21
-1229.69
-732.372
-2661
-1187.07
-315.666
-429.178
612.225
436.017
-693.439
-652.567
-8583.36
-3700.09
-3997.32
-2079.76
-2480.33
-2839.65
-260.765
391.772
-442.698
-1405.35
-1058.51
-784.227
-626.442
-423.532
-1139.49
-805.453
-570.893
-375.036
-134.973
-20.4962
-9.98863
-3.58172
-1.02914
-0.195557
242.342
199.294
147.076
89.8767
30.2005
268.097
221.951
164.496
100.662
33.8515
392.827
323.909
239.317
146.202
49.1239
155.737
131.269
98.7146
60.9823
20.6515
-7375.65
-6051.3
-4539.08
-3631.85
-2915.52
-1973.57
-1255.64
-958.67
-707.699
-259.012
-2716.37
-1916.17
-1385.91
-948.178
-379.467
-1127.42
-748.819
-573.946
-405.128
-129.671
15.584
17.3666
14.9406
9.60893
3.77301
-2623.91
-1965.99
-1402.13
-883.512
-311.173
228.921
188.644
138.022
83.1805
27.6283
1027.37
800.97
572.563
348.542
118.932
220.33
183.495
135.073
81.3793
26.8864
-3340.1
-2868.37
-2161.23
-1814.52
-1560.04
-1945.22
-1335.7
-955.114
-638.808
-225.117
-999.477
-759.214
-536.131
-327.277
-110.467
-593.496
-448.289
-315.081
-191.678
-64.7324
-2141.32
-1615.27
-1145.36
-707.884
-244.021
-986.52
-752.68
-527.723
-314.055
-99.5705
-253.922
-189.683
-132.061
-79.6933
-26.4728
-355.871
-273.086
-191.192
-113.731
-37.4392
533.046
432.836
315.998
191.925
64.4702
386.641
319.913
236.689
144.562
48.6109
-575.055
-444.509
-314.893
-190.233
-64.0659
-541.466
-417.915
-295.075
-177.441
-59.4197
-5220.02
-3763.19
-2888.03
-2339.59
-1596.75
-2688.93
-1940.89
-1394.93
-922.047
-345.468
-2839.81
-2098.48
-1524.74
-1085.76
-399.85
-1531.72
-1144.2
-821.503
-534.927
-215.808
-2018.54
-1536.8
-1090.21
-666.96
-224.945
-2189.75
-1414.12
-996.163
-646.158
-129.659
-206.595
-150.039
-101.134
-59.3996
-19.2176
350.083
291.935
217.198
132.991
44.7504
-357.081
-264.141
-181.203
-107.306
-34.3322
-61.0172
-156.692
-238.224
-339.577
-491.775
-670.954
-29155.4
-24293.7
-22114.2
-26305.7
-20913
-16519.1
-18590.2
-14391
-26894.6
-21844.3
-22994.4
-19808.6
-20042.6
-15857.7
-18953.8
-24948
-22028.4
-19053.1
-21555.8
-18787.3
-14790
-16208.9
-12275.3
-24876.1
-21304.8
-22569.6
-19981.1
-19567.9
-16346.1
-19139.5
-19698.1
-18121.3
-15491.6
-16861.3
-15844.9
-13221.2
-13709.1
-11595.1
-20466.4
-19197.7
-19425.5
-18626.8
-17664.4
-15286.6
-17915.4
-13711.5
-13152.6
-11168.3
-11674.6
-12162.5
-11343.9
-10500.2
-10113.5
-14949.4
-16549.2
-14515.3
-16077.1
-13899
-12749.3
-15497.3
-8825.57
-8664.37
-7235.82
-7408.58
-8462.41
-8494.61
-7023.08
-7037.83
-10285.8
-12623.9
-10133.6
-12006.2
-10094.9
-9871.55
-11646.7
-3206.65
-3175.43
-2614.57
-2659.2
-3169.97
-3311.33
-2542.78
-2499.82
-4082.63
-5273.31
-4015.89
-4781.95
-4071.34
-4091.74
-4630.65
-10262.9
-10116.1
-14912.4
-16469.2
-9966.52
-9213.03
-13760.6
-11409.6
-8389.41
-4892.03
-8404.32
-4845.94
-8313.18
-8395.31
-4941.54
-9856.71
-9476.63
-13852.7
-15030.8
-8967.33
-7652.56
-12472
-10030.7
-6314.95
-2144.64
-6122.86
-2327.72
-5138.48
-4884.11
-2609.46
-8414.53
-8091.84
-11763.7
-12507.5
-7800.35
-6830.59
-10811.4
-9337.59
-3849.75
-1975.05
-3661.48
-2443.52
-3310.03
-3468.03
-2939.61
-6308.08
-6147.27
-8730.22
-9050.6
-6016.03
-5568.04
-8347.09
-7843.33
-3733.23
-1938.3
-3753.94
-2563.66
-3725.28
-4086.58
-3141.66
-4068.68
-3973.84
-5652.09
-5787.12
-3789.77
-3576.06
-5474.29
-5217.7
-2415.88
-1608.93
-2465.52
-2085.84
-2667.72
-2997.91
-2470.31
-1438
-1407.78
-2029.38
-2069.36
-1367.61
-1347.06
-1965.3
-1862.12
-731.096
-728.365
-810.488
-942.525
-992.135
-1154.48
-1045.74
9281.87
27775.5
7175.43
30820.7
3876.2
32226.4
6419.28
49915.3
10401.7
62390.6
10811.2
44979.9
11640.5
40294.7
11411.5
34122.4
5304.9
3106.39
16253.7
8004.66
4914.97
2325.06
17103.3
6946
7265.52
5639.89
21194.9
16190.9
4913.62
4130.41
21688.3
17155.5
11198.7
4159.71
8853.9
3459.26
4218.64
10813.8
49970.8
15066.2
15175.8
6598.76
59288.1
18250.1
13634.2
5893.48
34084.9
11256.6
17417.9
7706.97
28595.8
8999.42
8622.68
4594.2
12626.8
5275.31
8128.64
4896.75
13444.7
5287.15
10418.7
6562.75
8654.94
3837.29
14330.6
5340.55
5529.64
2100.9
18077.6
14166.2
10432.4
9668.03
18074.3
15943.6
9511.19
10113.6
10449.5
9480.99
14929.1
13224.2
7339.48
6455.61
3834.04
3287.66
6685.83
6633.07
3354.01
3347.2
7509.17
6213.91
4020.29
2890.49
9442.45
5458.91
9939.81
10695.8
13556.1
10282.2
14932
18892.4
6447.64
2890.47
6068.44
6193.62
3380.29
1246.41
2543.01
2276.53
11163.9
21400.6
7727.06
24000.9
12093.4
21295.8
9168.19
25129.2
15119.6
20506.9
12347.9
24972.3
14015.3
14245.8
12934.8
13455.9
15249.9
9362.13
12350.6
18315.8
22412.7
32194.1
12887
12299.7
13001.3
16568.4
25156.2
26552.5
25601.2
31002.7
31263.9
25437.3
25286.9
30663.7
30613.2
22783.2
23487.5
28838.3
29159.9
11582.8
12213.9
13433.9
14213.5
16962
17567.1
20867.9
20828.8
27286.7
27900.8
10322.6
11558.1
13037.6
14892.6
15785.2
18198.1
19233.5
22124.9
26007.1
29255.1
12378.5
8374.57
9745.06
9176.68
12620.9
13137.8
10060.9
12211
9745.56
9264.8
12759
9165.18
4333.08
6434.59
1417.78
2150.96
6048.92
8784.52
1975.36
3000.39
4101.81
6153.13
1276.39
2045.09
9886.52
8128.17
10663.1
6765.6
14302.9
10301.7
16961.1
11584
4851.58
5041.86
6000.32
3483.76
3251.32
3324.23
3635.2
2667.25
22432.9
14853.8
4983.44
24314.1
15408.5
5343.45
21768.9
14383.9
5022.88
23924.5
15250.7
5222.87
20283
13217.8
4444.47
23001.8
14785.4
5093.46
9170.88
5586.2
1671.48
12435.8
8466.74
2778.26
15485.1
10687.2
3611.61
18015.3
11859.9
3942.33
21747
13922.6
4882.58
9522.02
5504.2
1909.55
11584.6
7699.36
2788.28
14101.4
9428.02
3348.5
17062.7
11019.4
3846.86
20682.8
12378.7
4355.14
-608.852
879.166
154.015
2471.58
2084.5
1983.77
5287.3
4492.2
578.979
838.449
610.79
874.189
278.432
778.203
530.45
1151
1359.76
941.999
3367.47
2505.77
1424.11
2116.75
2760.1
-31.1119
6653.84
1485.11
-5289.26
-1946.25
-9.9168
-308.558
-985.866
-1150.25
8905.5
3341.75
2304.21
1172.67
8747.41
3317.24
2444.43
1319.13
8300.95
3460.32
2959.06
1682.78
2064.26
995.808
493.08
434.28
13456.7
11517.5
5587.27
7142.85
16802.6
15476.1
7960.42
9412.9
4441.02
5386.16
10242.9
8136.12
3223.3
4381.63
1380.7
2129.41
5025.61
5843.26
2414.72
2897.28
2131.73
3300.91
730.822
1659.28
3488.73
1964.21
3906.44
2016.6
6524.49
3028.85
5443.12
2744.59
1707.2
1142.64
2516.63
1245.26
525.811
467.414
1334.88
609.793
9968.27
5593.33
4121.29
3626.29
9900.88
5658.33
3982.41
3516.35
10043.4
5623.6
3937.53
3263.24
13458.6
14590
11206.7
7627.25
3425.72
8734.36
9203.73
8566.52
7009.77
3757.31
12587
9951.96
7255.52
5046.29
2500.52
3809.71
3018.61
3263.67
3161.85
3963.26
3133.86
3232.23
3178.77
4093.55
3333.34
3152.79
3166.42
9688.43
9105.07
7798.83
6498.08
5018.78
4659.24
4007.92
3705.92
2807.5
3113.63
7330.29
8150.39
5438.51
5929.75
4091.27
4383.08
3209.41
3459.7
2078.13
2919.38
4990.4
3932.72
3359.28
2092.57
8280.34
6076.37
6529.34
4241.39
2130.97
1375.01
3250.53
2821.94
3808.74
1810.2
1403.95
754.528
5585
3263.29
1885.74
1272.94
2660.52
1183.63
1061.28
497.757
1302.77
1445.69
1170.36
1827.52
2105.75
2306.66
1406.43
2349.81
1571.83
1010.1
810.956
1306.72
469.656
110.373
-126.014
142.718
2164.17
1005.33
290.632
2012
570.713
155.777
2308.19
1152.7
359.343
2076.03
621.619
178.175
2446.06
1269.08
358.089
2093.06
643.319
169.52
6313.01
3655.6
1072.4
4400.99
2534.58
766.131
3445.63
1893.94
583.725
2651.74
1373.46
383.198
2115.24
642.796
158.269
6698.99
3668.55
1218.78
4899.82
2699.39
905.041
3650.86
1971.25
651.016
2768.37
1306.66
400.551
2336.67
699.443
229.202
1058.53
330.397
138.564
42.095
420.182
135.292
59.5971
19.4039
1060.52
339.7
155.441
52.0886
466.67
160.804
85.7289
33.5666
1159.4
383.815
189.892
68.7958
681.278
261.091
105.26
38.7461
358.013
167.435
32.2366
5.77038
267.994
145.131
43.386
15.2084
837.306
306.314
125.945
33.8583
761.329
271.753
139.792
31.7557
1150.88
391.008
199.431
64.1187
977.813
328.566
184.921
35.9091
528.548
213.072
77.9402
23.006
512.409
197.328
97.6181
27.2533
279.627
132.316
53.3973
21.7822
266.044
119.264
60.2456
24.4023
1320.65
410.249
183.027
49.6792
1282.82
395.738
214.068
41.6198
1288.28
405.264
191.062
52.499
1221.31
377.376
210.118
39.2969
1261.69
402.382
212.308
61.223
1090.87
337.04
202.551
40.2889
1122.61
362.536
211.124
73.0585
1177.92
363.413
246.038
53.6011
835.716
270.022
160.982
42.2673
972.283
282.608
163.497
28.1974
362.866
98.8976
51.3693
12.2744
959.209
280.586
161.588
27.9691
370.52
102.003
53.5521
13.7174
911.118
267.241
159.271
28.034
363.571
100.98
55.4394
15.3817
775.317
225.014
148.084
29.5173
325.934
88.6081
56.8373
17.3438
676.334
201.154
133.67
32.229
299.9
85.3376
56.8997
18.6813
465.177
157.62
80.2826
19.2118
238.56
87.9963
38.2593
14.1463
537.901
166.907
103.796
25.1759