/*--------------------------------*- C++ -*----------------------------------*\
| =========                 |                                                 |
| \\      /  F ield         | OpenFOAM: The Open Source CFD Toolbox           |
|  \\    /   O peration     | Version:  2412                                  |
|   \\  /    A nd           | Website:  www.openfoam.com                      |
|    \\/     M anipulation  |                                                 |
\*---------------------------------------------------------------------------*/
FoamFile
{
    version     2.0;
    format      ascii;
    arch        "LSB;label=32;scalar=64";
    class       volScalarField;
    location    "0.7";
    object      T;
}
// * * * * * * * * * * * * * * * * * * * * * * * * * * * * * * * * * * * * * //

dimensions      [0 0 0 1 0 0 0];

internalField   nonuniform List<scalar> 
5712
(
531.581
552.564
515.833
540.821
495.25
523.723
464.583
494.946
469.256
499.809
497.866
528.352
511.251
539.325
523.966
548.414
483.55
462.269
505.28
473.315
454.023
432.07
473.917
441.097
540.58
548.065
557.45
561.267
528.058
537.841
547.995
553.962
526.782
509.897
494.235
484.111
526.286
540.88
530
536.842
483.491
492.217
502.36
509.157
450.729
457.886
543.414
549.764
506.353
518.28
556.224
563.66
553.025
564.382
564.287
569.519
543.446
560.647
557.657
567.031
530.48
554.272
544.043
561.55
553.159
564.852
558.534
566.842
443.221
424.481
453.715
429.907
407.674
391.799
417.483
397.186
485.162
461.152
475.061
455.052
460.549
433.286
464.169
434.74
424.047
400.506
427.392
401.892
492.121
464.958
495.798
466.605
516.607
552.329
495.003
537.13
507.021
546.029
487.804
531.154
522.805
555.345
499.086
540.419
525.888
556.552
500.769
542.261
544.212
526.174
558.992
545.714
533.121
515.061
554.161
539.339
517.376
499.204
545.778
529.367
421.329
381.857
459.779
492.976
533.886
380.033
417.922
452.103
482.285
519.132
379.424
415.064
446.926
477.603
519.273
491.03
458.528
496.471
465.21
484.775
452.711
494.483
462.95
474.85
444.625
490.906
459.775
371.203
354.657
407.302
387.904
437.814
413.682
462.801
435.079
487.949
457.422
370.145
352.575
403.367
383.97
432.562
409.887
459.791
433.351
487.364
456.726
405.015
391.38
406.248
393.701
371.003
349.068
371.463
348.293
437.908
427.188
435.797
422.884
406.994
394.386
408.002
395.628
372.477
348.5
373.666
350.114
438.783
428.223
440.015
429.656
468.855
457.957
497.432
486.838
465.672
452.086
494.123
479.699
469.655
458.993
498.703
489.104
470.473
460.022
499.028
489.023
420.89
389.436
372.139
424.556
391.715
374.091
416.695
385.03
367.828
422.502
388.763
370.66
408.493
376.671
359.48
419.274
383.983
365.28
333.478
317.088
308.528
362.102
338.353
325.655
383.757
354.986
339.285
400.253
368.563
351.497
415.392
378.661
359.086
330.804
314.357
305.52
359.668
337.031
324.728
380.516
352.701
337.522
397.199
364.445
346.827
410.68
373.794
354.345
386.229
371.374
390.436
375.703
417.968
398.986
427.999
406.048
356.675
336.451
357.872
338.145
357.751
337.023
359.388
339.139
357.151
354.29
356.147
350.087
336.042
339.507
378.248
380.626
410.874
414.812
358.072
359.486
358.138
359.056
341.06
341.551
315.937
298.342
320.631
300.768
317.272
298.036
321.766
300.687
318.078
297.514
323.543
300.881
325.62
302.06
326.529
302.723
348.55
336.046
355.638
340.79
374.761
359.913
383.823
365.491
335.202
322.167
328.665
318.246
359.324
343.398
361.112
344.441
388.982
368.64
391.548
369.855
338.138
324.315
339.33
325.201
318.446
298.589
308.255
294.709
313.233
295.947
305.419
293.064
321.093
300.19
309.916
295.7
322.228
301.084
310.705
296.171
300.709
292.361
293.3
288.57
301.691
293.654
293.087
288.716
302.915
296.362
292.783
289.32
328.063
349.051
313.64
304.222
292.224
346.88
324.697
308.47
299.144
289.677
347.143
326.33
311.602
301.37
291.078
286.824
282.642
284.519
280.971
288.457
283.986
285.117
281.597
291.335
286.673
286.154
282.688
339.305
325.77
317.967
307.626
303.972
297.238
295.292
290.119
287.495
284.13
339.07
325.153
319.82
309.384
306.466
298.954
297.183
291.437
289.169
285.714
322.808
310.233
324.146
310.379
341.153
324.216
342.864
323.496
310.214
300.626
309.076
300.151
325.181
310.47
326.174
311.521
344.662
322.868
345.969
324.151
310.986
300.996
311.691
301.738
299.216
292.904
290.887
286.477
298.895
292.252
290.382
286.24
299.375
293.48
291.109
286.595
300.259
293.895
291.355
287.155
278.374
276.017
275.065
275.985
274.501
273.986
279.633
276.896
275.725
276.479
274.847
274.229
281.761
278.411
276.978
277.285
275.364
274.633
310.828
299.952
294.528
297.734
290.444
286.927
289.885
284.62
282.196
284.234
280.213
278.425
278.124
275.955
275.049
309.633
298.461
292.87
298.308
290.2
286.187
290.649
284.705
281.85
284.637
280.508
278.674
278.746
276.403
275.291
285.447
278.865
275.853
274.325
286.332
279.149
275.968
274.357
285.302
278.837
275.863
274.34
286.352
279.184
276.021
274.389
285.03
278.774
275.882
274.364
286.347
279.225
276.083
274.425
286.795
279.424
276.118
274.43
287.12
279.592
276.142
274.432
285.591
279.009
275.996
274.413
284.328
278.608
275.771
274.368
284.576
278.647
275.853
274.382
283.694
278.372
275.678
274.351
286.247
279.267
276.065
274.423
284.783
278.794
275.827
274.38
286.646
279.445
276.116
274.44
285.08
278.93
275.88
274.402
283.962
278.408
275.681
274.285
282.318
277.892
275.456
274.239
283.829
278.375
275.677
274.293
282.314
277.897
275.455
274.247
283.62
278.319
275.669
274.306
282.438
277.947
275.473
274.262
283.316
278.231
275.636
274.32
282.5
277.974
275.49
274.29
283.017
278.143
275.574
274.332
280.946
277.477
275.191
274.2
280.228
277.283
275.068
274.161
281.133
277.54
275.219
274.214
280.438
277.353
275.096
274.174
281.449
277.649
275.261
274.235
280.803
277.477
275.139
274.196
281.862
277.783
275.331
274.27
281.296
277.639
275.204
274.225
282.428
277.964
275.415
274.304
281.83
277.813
275.268
274.253
283.194
278.276
275.494
274.338
282.571
278.13
275.372
274.3
282.868
278.127
275.458
274.323
282.287
277.988
275.326
274.279
283.421
278.4
275.512
274.347
282.782
278.25
275.398
274.314
283.623
278.512
275.549
274.366
282.986
278.358
275.434
274.333
273.59
273.272
273.12
273.053
273.028
273.596
273.273
273.121
273.053
273.028
273.594
273.273
273.121
273.054
273.028
273.601
273.275
273.122
273.054
273.028
273.598
273.275
273.122
273.054
273.028
273.609
273.278
273.123
273.054
273.029
273.624
273.284
273.125
273.055
273.029
273.635
273.289
273.127
273.056
273.029
273.612
273.28
273.124
273.054
273.029
273.608
273.28
273.124
273.054
273.029
273.602
273.277
273.123
273.054
273.029
273.603
273.278
273.123
273.054
273.029
273.621
273.284
273.125
273.055
273.029
273.617
273.283
273.125
273.055
273.029
273.633
273.289
273.127
273.056
273.029
273.628
273.288
273.127
273.056
273.029
273.582
273.27
273.12
273.053
273.028
273.576
273.269
273.12
273.053
273.028
273.585
273.271
273.121
273.053
273.028
273.579
273.27
273.12
273.053
273.028
273.589
273.273
273.121
273.054
273.028
273.584
273.272
273.121
273.053
273.028
273.594
273.275
273.122
273.054
273.028
273.591
273.274
273.122
273.054
273.028
273.598
273.276
273.122
273.054
273.029
510.369
501.975
510.045
501.76
509.394
501.348
508.793
500.702
509.083
500.733
514.02
509.883
511.71
506.151
515.306
511.534
516.053
512.299
559.519
569.942
572.279
572.829
572.951
548.261
566.833
571.547
572.662
572.906
559.883
570.071
572.315
572.838
572.954
548.499
566.966
571.588
572.674
572.91
560.184
570.198
572.351
572.847
572.956
548.743
567.111
571.633
572.686
572.913
560.615
570.346
572.388
572.855
572.958
549.025
567.242
571.666
572.692
572.914
561.085
570.448
572.404
572.857
572.957
549.418
567.313
571.668
572.688
572.911
559.874
569.854
572.211
572.798
572.937
549.779
566.892
571.468
572.618
572.884
560.31
570.114
572.302
572.827
572.947
549.53
567.088
571.57
572.655
572.898
559.589
569.684
572.147
572.777
572.928
549.947
566.786
571.404
572.593
572.873
559.857
569.729
572.15
572.775
572.927
550.226
566.818
571.395
572.585
572.869
392.969
436.806
433.873
391.24
372.009
374
379.816
383.293
393.708
397.474
422.967
431.598
428.332
436.661
403.198
406.326
392.995
395.827
383.584
385.826
327.128
310.845
278.953
276.8
277.62
276.7
278.339
322.57
313.251
300.902
301.175
294.778
285.905
291.644
286.894
282.796
283.897
281.754
319.815
297.198
285.29
284.582
288.882
286.77
282.848
282.124
279.886
279.141
281.976
281.708
321.81
303.424
308.116
294.9
289.993
298.356
282.92
279.355
284.204
313.901
303.059
294.866
287.348
278.424
303.162
295.99
289.53
283.351
276.603
278.219
277.267
276.13
274.904
273.638
276.354
275.762
275.039
274.244
273.418
277.072
276.349
275.467
274.504
273.504
276.268
275.694
274.99
274.215
273.408
277.692
276.846
275.827
274.721
273.577
310.87
300.168
292.265
285.307
277.753
303.068
294.391
287.883
282.177
276.24
295.428
289.957
284.928
280.239
275.479
294.179
288.077
283.357
279.224
275.189
289.541
284.761
281.032
277.771
274.632
283.918
281.616
279.154
276.691
274.234
288.288
284.74
281.26
277.941
274.663
284.543
281.954
279.316
276.76
274.254
281.42
279.743
277.861
275.924
273.976
282.272
280.353
278.263
276.153
274.051
280.561
279.083
277.399
275.649
273.884
309.293
299.391
291.909
285.126
277.625
292.957
288.407
283.956
279.654
275.257
283.503
281.366
279.017
276.624
274.212
282.95
280.966
278.753
276.473
274.162
286.437
283.608
280.606
277.593
274.542
284.792
282.409
279.786
277.098
274.371
281.536
279.896
278.014
276.037
274.016
280.921
279.408
277.661
275.821
273.944
279.016
277.898
276.576
275.166
273.725
278.382
277.397
276.222
274.956
273.655
280.77
279.267
277.544
275.743
273.917
280.56
279.116
277.447
275.69
273.9
310.423
300.456
292.898
285.928
277.886
297.766
292.087
286.705
281.474
275.921
301.728
294.369
288.233
282.406
276.031
291.399
287.422
283.351
279.289
275.105
287.456
284.455
281.239
277.981
274.663
294.037
289.214
284.548
280.013
275.316
281.594
279.937
278.04
276.051
274.021
278.564
277.541
276.325
275.019
273.676
282.654
280.752
278.61
276.389
274.134
478.941
533.755
468.976
520.916
441.222
496.929
450.157
510.873
457.622
443.791
495.389
464.413
429.656
414.888
464.589
432.58
500.433
519.176
544.056
551.636
492.772
511.544
535.546
544.833
516.633
485.132
485.848
466.759
505.573
532.439
526.496
536.018
479.153
491.038
498.534
508.079
446.353
456.56
540.159
549.078
502.585
517.32
553.873
563.275
536.873
558.969
558.598
567.621
527.917
555.686
551.841
565.146
517.803
550.323
538.068
559.598
550.881
564.035
558.058
566.656
435.298
421.541
448.381
427.431
401.5
390.384
412.893
395.363
479.995
458.69
467.02
451.723
457.686
431.735
463.33
434.199
421.42
399.223
426.593
401.425
489.45
463.483
495.023
466.1
512.507
550.907
493.152
536.441
500.244
543.695
485.139
530.252
520.762
554.619
498.004
540.005
525.31
556.34
500.401
542.123
519.436
499.561
550.913
537.012
510.116
491.076
547.208
532.128
499.305
481.55
540.643
524.657
421.062
388.989
453.492
484.728
531.102
388.631
417.945
444.872
472.853
516.433
384.953
415.013
443.733
474.261
518.414
468.817
444.589
489.127
466.041
464.563
440.256
488.93
464.879
459.786
436.346
488.105
463.391
378.941
364.579
407.257
390.763
432.098
412.362
456.192
434.082
487.178
462.056
375.71
359.708
404.652
388.909
431.535
413.855
458.791
437.723
487.971
461.906
405.094
393.138
405.806
394.108
372.964
352.55
371.912
349.725
437.104
427.139
434.984
423.848
406.532
394.323
407.81
395.558
372.372
348.859
373.572
350.167
438.192
427.96
439.792
429.531
468.192
457.808
497.138
486.831
464.957
452.947
494.083
480.732
469.174
458.692
498.428
488.905
470.281
459.887
498.928
488.935
426.51
417.049
445.559
435.976
421.949
411.461
443.608
431.956
417.512
406.084
440.474
425.589
350.514
342.319
375.652
365.046
395.881
383.414
414.759
401.107
436.194
417.942
342.48
335.24
373.42
363.298
395.639
382.788
414.358
398.162
430.089
411.311
368.599
360.542
380.092
369.406
397.465
385.013
418.439
398.494
348.669
330.858
354.301
334.877
347.219
331.186
353.621
335.609
351.618
344.664
351.889
343.511
331.335
336.386
374.617
379.455
406.66
413.441
354.804
358.368
355.499
358.137
339.029
340.818
318.215
302.107
320.502
302.925
319.107
301.538
321.35
302.506
319.691
300.635
322.994
302.258
324.93
302.731
326.23
302.918
347.362
338.4
353.451
341.11
371.144
360.657
380.352
364.762
334.565
323.3
329.992
321.489
357.769
343.201
360.596
344.318
386.793
367.872
390.85
369.545
337.383
324.621
339.042
325.251
319.153
300.005
309.757
296.162
316.273
298.752
308.73
295.66
321.091
300.831
310.523
296.417
322.17
301.261
310.869
296.387
314.521
311.604
300.338
298.098
315.068
312.154
299.613
297.433
314.922
312.164
298.542
296.538
340.112
361.074
324.332
312.747
297.033
361.483
340.207
323.281
311.035
295.775
356.846
335.988
319.83
307.848
295.121
308.66
304.731
295.214
290.68
309.3
305.449
294.797
290.507
309.263
305.212
294.151
290.147
353.26
341.599
334.038
325.397
319.525
313.996
308.078
303.524
293.948
290.323
348.452
334.861
329.91
319.741
315.422
308.116
304.285
298.581
293.624
290.335
327.253
314.968
325.944
312.467
344.978
328.84
344.225
325.508
312.156
302.583
313.401
304.417
325.76
311.189
326.294
311.689
344.96
323.503
345.994
324.287
311.721
301.717
311.875
301.919
300.981
294.527
292.35
287.708
302.599
295.661
293.07
288.639
300.139
294.141
291.802
287.13
300.482
294.079
291.543
287.297
301.076
299.394
283.132
282.068
302.509
300.372
283.344
282.184
301.406
298.409
283.427
281.989
330.818
324.366
317.691
313.024
308.109
304.458
298.53
295.328
283.484
281.657
321.737
316.554
309.992
305.92
300.559
297.411
292.089
290.02
282.64
281.086
287.669
279.908
276.333
274.534
288.042
280.035
276.401
274.553
287.378
279.817
276.314
274.536
287.827
279.963
276.408
274.565
286.878
279.652
276.293
274.545
287.503
279.848
276.4
274.569
287.478
279.815
276.318
274.517
287.349
279.728
276.213
274.464
286.573
279.523
276.256
274.534
285.242
279.075
276.002
274.484
286.132
279.39
276.207
274.542
285.131
279.056
275.992
274.497
286.788
279.571
276.227
274.504
285.284
279.065
275.969
274.455
286.819
279.546
276.171
274.467
285.239
279.019
275.927
274.428
286.993
279.678
276.224
274.513
286.095
279.386
276.047
274.486
286.692
279.589
276.197
274.512
285.856
279.322
276.02
274.485
286.216
279.44
276.153
274.512
285.502
279.22
275.988
274.484
285.539
279.21
276.064
274.508
285.161
279.107
275.953
274.492
284.968
279.018
275.95
274.501
285.154
279.125
275.792
274.472
284.536
278.994
275.681
274.449
285.026
279.092
275.794
274.476
284.42
278.961
275.68
274.45
284.803
279.028
275.784
274.477
284.233
278.902
275.667
274.448
284.642
278.959
275.792
274.485
284.12
278.84
275.664
274.45
284.512
278.886
275.799
274.49
284.009
278.771
275.653
274.447
284.113
278.746
275.709
274.452
283.476
278.6
275.581
274.412
284.334
278.822
275.761
274.476
283.761
278.692
275.623
274.434
283.913
278.669
275.64
274.418
283.254
278.515
275.52
274.381
283.774
278.598
275.591
274.389
283.129
278.441
275.473
274.354
273.672
273.305
273.133
273.058
273.031
273.674
273.305
273.133
273.058
273.031
273.67
273.304
273.133
273.058
273.031
273.671
273.303
273.133
273.058
273.03
273.666
273.302
273.133
273.058
273.03
273.665
273.301
273.132
273.058
273.03
273.658
273.298
273.131
273.057
273.03
273.648
273.294
273.129
273.057
273.03
273.659
273.3
273.131
273.058
273.03
273.655
273.299
273.131
273.058
273.03
273.662
273.301
273.132
273.058
273.03
273.657
273.3
273.132
273.058
273.03
273.655
273.298
273.131
273.057
273.03
273.65
273.297
273.13
273.057
273.03
273.645
273.294
273.129
273.057
273.03
273.64
273.293
273.129
273.057
273.03
273.668
273.304
273.133
273.058
273.031
273.665
273.304
273.133
273.058
273.031
273.667
273.304
273.133
273.058
273.031
273.664
273.303
273.133
273.058
273.031
273.664
273.303
273.133
273.058
273.03
273.663
273.303
273.133
273.058
273.031
273.661
273.301
273.132
273.058
273.03
273.662
273.302
273.132
273.058
273.03
273.659
273.301
273.132
273.058
273.03
507.848
501.295
508.201
501.643
508.594
502.078
508.852
502.095
509.583
502.355
513.975
509.913
511.923
506.74
515.189
511.419
516
512.244
559.228
569.893
572.268
572.826
572.95
547.945
566.747
571.525
572.657
572.905
559.678
570.035
572.306
572.835
572.953
548.318
566.904
571.57
572.669
572.909
560.107
570.18
572.345
572.845
572.956
548.763
567.083
571.621
572.682
572.912
560.645
570.344
572.384
572.854
572.958
549.209
567.244
571.66
572.69
572.913
561.159
570.452
572.403
572.856
572.957
549.652
567.327
571.665
572.686
572.91
559.874
569.852
572.209
572.798
572.936
549.786
566.887
571.465
572.617
572.883
560.354
570.116
572.3
572.826
572.947
549.651
567.096
571.568
572.653
572.898
559.57
569.679
572.146
572.777
572.928
549.914
566.776
571.401
572.592
572.873
559.848
569.727
572.15
572.775
572.927
550.21
566.813
571.394
572.585
572.869
391.34
435.106
428.6
385.924
373.486
382.195
371.447
381.97
403.653
425.603
408.081
428.933
273.218
273.302
273.501
273.868
274.485
275.462
273.284
273.383
273.607
274.008
274.665
275.687
273.168
273.145
273.243
273.214
273.425
273.384
273.782
273.736
274.401
274.377
275.404
275.431
276.937
279.243
282.999
289.161
295.014
299.497
277.228
279.492
282.683
286.707
290.485
292.962
273.195
273.164
273.123
273.076
273.026
273.271
273.227
273.17
273.105
273.035
273.447
273.374
273.28
273.172
273.058
273.774
273.645
273.481
273.296
273.1
274.32
274.097
273.816
273.501
273.169
275.181
274.805
274.338
273.819
273.275
273.255
273.213
273.16
273.099
273.033
273.342
273.286
273.214
273.132
273.045
273.542
273.452
273.338
273.208
273.07
273.898
273.747
273.556
273.342
273.115
274.478
274.225
273.91
273.558
273.188
275.377
274.963
274.453
273.889
273.299
273.151
273.127
273.095
273.059
273.02
273.13
273.11
273.083
273.051
273.017
273.218
273.183
273.137
273.085
273.029
273.192
273.161
273.121
273.075
273.025
273.38
273.318
273.238
273.147
273.05
273.344
273.288
273.216
273.133
273.045
273.697
273.582
273.435
273.268
273.09
273.657
273.549
273.41
273.253
273.085
274.247
274.037
273.772
273.474
273.16
274.226
274.02
273.76
273.467
273.157
275.132
274.765
274.309
273.802
273.27
275.157
274.787
274.325
273.812
273.273
276.472
275.858
275.109
274.287
273.432
278.47
277.47
276.279
274.995
273.669
281.674
280.019
278.113
276.102
274.039
286.81
284.019
280.968
277.833
274.622
291.516
287.608
283.529
279.418
275.172
295.02
290.236
285.408
280.601
275.586
276.724
276.06
275.255
274.376
273.462
278.686
277.646
276.407
275.073
273.695
281.422
279.833
277.986
276.026
274.014
284.823
282.519
279.914
277.193
274.406
287.966
284.973
281.671
278.263
274.769
289.999
286.546
282.797
278.953
275.005
273.221
273.314
273.525
273.916
274.573
275.612
273.288
273.396
273.634
274.057
274.745
275.811
273.171
273.148
273.253
273.223
273.447
273.406
273.831
273.785
274.502
274.488
275.601
275.689
277.166
279.555
283.375
289.503
295.239
299.571
277.402
279.712
282.925
286.924
290.631
293.012
273.198
273.166
273.125
273.077
273.026
273.281
273.235
273.177
273.109
273.037
273.47
273.393
273.294
273.181
273.061
273.817
273.682
273.509
273.314
273.106
274.4
274.165
273.868
273.533
273.18
275.317
274.92
274.426
273.874
273.294
273.258
273.216
273.162
273.1
273.034
273.354
273.296
273.222
273.137
273.046
273.566
273.473
273.353
273.218
273.073
273.942
273.784
273.585
273.36
273.121
274.551
274.288
273.958
273.588
273.198
275.49
275.059
274.526
273.935
273.314
273.153
273.129
273.097
273.06
273.02
273.133
273.111
273.084
273.052
273.018
273.226
273.19
273.143
273.088
273.03
273.2
273.168
273.126
273.078
273.026
273.4
273.335
273.251
273.155
273.052
273.363
273.304
273.228
273.141
273.048
273.742
273.62
273.464
273.286
273.096
273.702
273.586
273.439
273.271
273.091
274.338
274.114
273.831
273.511
273.172
274.326
274.105
273.824
273.507
273.171
275.31
274.916
274.424
273.874
273.294
275.389
274.983
274.474
273.905
273.305
276.68
276.035
275.244
274.372
273.461
278.755
277.715
276.468
275.114
273.71
282.022
280.321
278.348
276.252
274.091
287.134
284.308
281.2
277.984
274.675
291.736
287.811
283.696
279.53
275.212
295.095
290.308
285.469
280.643
275.601
276.882
276.196
275.359
274.441
273.484
278.887
277.819
276.541
275.157
273.724
281.645
280.027
278.138
276.124
274.048
285.027
282.699
280.057
277.285
274.439
288.106
285.099
281.773
278.329
274.792
290.048
286.591
282.834
278.978
275.013
327.24
310.953
279.437
277.123
278.426
277.215
279.023
326.905
321.846
305.596
312.524
289.376
296.775
285.751
288.228
284.6
321.894
299.612
287.638
286.284
290.826
288.004
283.521
283.239
281.842
280.528
284.047
283.23
322.316
303.801
309.355
295.555
290.913
299.907
283.853
280.324
285.552
314.051
303.219
295.018
287.471
278.477
303.282
296.11
289.636
283.429
276.633
278.659
277.643
276.418
275.085
273.7
276.646
276.01
275.227
274.362
273.458
277.797
276.959
275.928
274.791
273.602
276.732
276.085
275.285
274.399
273.47
278.31
277.37
276.225
274.969
273.662
315.428
304.394
295.817
287.818
278.744
311.629
301.794
293.869
286.308
277.833
299.896
293.889
288.06
282.318
276.229
305.051
297
290.285
283.841
276.941
287.089
284.322
281.233
278.013
274.692
293.049
288.83
284.439
279.999
275.392
284.088
281.999
279.578
277.003
274.346
286.161
283.619
280.736
277.707
274.585
283.124
281.246
279.039
276.677
274.235
311.505
301.502
293.723
286.427
278.146
295.25
290.441
285.58
280.724
275.636
285.648
283.203
280.432
277.522
274.522
284.507
282.304
279.785
277.128
274.388
288.239
285.176
281.832
278.382
274.816
285.931
283.398
280.557
277.592
274.541
282.154
280.429
278.428
276.3
274.107
281.936
280.276
278.327
276.241
274.088
280.767
279.367
277.685
275.856
273.959
279.626
278.443
277.011
275.447
273.822
282.644
280.857
278.756
276.504
274.177
281.941
280.291
278.345
276.254
274.093
311.023
301.048
293.43
286.331
278.057
298.153
292.453
287.016
281.69
276
302.991
295.535
289.209
283.076
276.259
292.03
287.992
283.813
279.595
275.211
288.319
285.216
281.842
278.372
274.799
295.53
290.55
285.626
280.726
275.566
282.447
280.672
278.607
276.41
274.144
279.438
278.282
276.888
275.372
273.796
283.888
281.813
279.43
276.91
274.313
274.861
278.511
282.051
285.465
288.553
291.129
451.964
445.371
418.688
425.034
435.712
427.476
409.751
399.526
475.802
498.219
470.577
491.934
463.642
451.967
485.501
437.287
432.644
407.568
412.252
424.892
419.058
400.379
392.782
459.518
476.456
456.261
472.352
450.762
441.499
467.729
416.596
413.999
391.621
394.538
408.933
406.086
386.67
381.725
435.974
452.154
434.216
449.881
431.252
425.525
447.138
395.428
393.953
374.496
376.424
390.639
389.222
370.924
367.217
413.295
429.158
412.298
427.318
410.221
405.767
425.084
380.086
378.966
361.878
363.456
375.983
374.425
358.691
354.719
396.151
410.39
395.545
409.621
393.841
389.659
407.707
369.554
368.536
353.291
354.722
365.691
364.058
350.339
346.605
383.727
397.936
383.16
397.556
381.702
377.731
395.492
364.712
361.892
389.17
393.346
358.258
351.282
383.111
373.556
341.887
323.844
339.881
323.6
335.476
334.415
323.141
359.08
356.429
381.254
384.704
353.045
346.683
375.962
367.783
336.111
321.259
334.095
321.297
330.343
329.756
320.834
350.634
348.387
369.386
371.913
345.506
340.374
365.312
359.177
332.619
319.321
330.968
318.901
327.77
327.199
318.014
341.014
339.019
356.026
357.964
336.027
331.064
352.657
347.051
327.125
316.341
325.488
315.315
322.388
321.189
313.735
333.831
332.012
346.135
347.812
329.319
324.7
343.076
337.81
322.666
314.287
320.958
312.515
317.823
316.04
310.181
329.109
327.389
339.47
341.016
324.88
320.483
336.622
331.766
320.239
312.37
318.46
310.138
314.891
312.708
307.487
532.372
553.091
515.833
540.786
495.251
523.711
464.588
494.946
469.267
499.81
497.88
528.345
511.277
539.313
524.998
549.113
483.547
462.266
505.272
473.311
454.024
432.069
473.917
441.095
541.16
548.509
557.811
561.539
528.046
537.818
547.954
553.924
526.766
509.886
494.227
484.104
526.27
540.861
529.998
536.84
483.488
492.215
502.359
509.157
450.728
457.884
543.41
549.762
506.349
518.277
556.22
563.658
553.386
564.55
564.508
569.611
543.416
560.639
557.625
567.022
530.464
554.266
544.029
561.545
553.154
564.85
558.532
566.841
443.217
424.478
453.712
429.905
407.673
391.797
417.481
397.185
485.157
461.149
475.055
455.048
460.546
433.283
464.166
434.738
424.045
400.505
427.391
401.891
492.117
464.955
495.795
466.603
516.6
552.326
495
537.129
507.013
546.026
487.801
531.152
522.802
555.343
499.084
540.418
525.885
556.551
500.767
542.26
544.577
526.508
559.201
545.943
533.079
515.011
554.15
539.322
517.355
499.184
545.772
529.362
421.325
381.855
459.773
492.966
533.883
380.031
417.919
452.097
482.275
519.13
379.422
415.061
446.922
477.598
519.271
491.277
458.694
496.646
465.316
484.757
452.687
494.501
462.96
474.839
444.616
490.91
459.779
371.201
354.655
407.299
387.901
437.809
413.679
462.794
435.074
487.949
457.424
370.144
352.573
403.364
383.968
432.558
409.885
459.788
433.348
487.363
456.726
405.013
391.378
406.246
393.699
371.001
349.067
371.461
348.292
437.906
427.186
435.794
422.882
406.992
394.385
408
395.626
372.475
348.499
373.664
350.113
438.781
428.221
440.013
429.654
468.853
457.955
497.431
486.837
465.67
452.084
494.122
479.698
469.653
458.992
498.702
489.103
470.471
460.02
499.027
489.021
421.041
389.596
372.317
424.647
391.834
374.232
416.683
385.021
367.825
422.507
388.767
370.665
408.488
376.668
359.479
419.277
383.984
365.282
333.477
317.087
308.528
362.1
338.351
325.654
383.754
354.984
339.284
400.25
368.561
351.496
415.392
378.661
359.087
330.803
314.356
305.519
359.667
337.03
324.727
380.514
352.7
337.521
397.198
364.445
346.826
410.679
373.794
354.345
386.235
371.376
390.443
375.704
417.973
398.987
428.004
406.049
356.533
336.392
357.7
338.068
357.735
337.01
359.369
339.126
357.147
354.285
356.146
350.086
336.036
339.501
378.248
380.627
410.874
414.812
358.071
359.486
358.138
359.056
341.058
341.551
315.89
298.338
320.577
300.763
317.269
298.028
321.762
300.682
318.074
297.51
323.539
300.878
325.618
302.058
326.528
302.723
348.55
336.046
355.638
340.79
374.761
359.912
383.823
365.49
335.201
322.166
328.664
318.246
359.324
343.397
361.112
344.441
388.982
368.639
391.547
369.854
338.138
324.314
339.33
325.201
318.445
298.587
308.254
294.708
313.231
295.945
305.418
293.063
321.092
300.189
309.915
295.699
322.228
301.083
310.704
296.17
300.674
292.312
293.293
288.551
301.691
293.657
293.08
288.712
302.914
296.363
292.779
289.318
328.063
349.05
313.64
304.221
292.223
346.879
324.696
308.47
299.144
289.676
347.142
326.329
311.601
301.369
291.077
286.771
282.591
284.502
280.953
288.463
283.991
285.119
281.601
291.336
286.675
286.154
282.689
339.304
325.769
317.966
307.625
303.972
297.238
295.292
290.12
287.494
284.13
339.069
325.152
319.819
309.383
306.466
298.954
297.183
291.437
289.169
285.714
322.807
310.232
324.146
310.378
341.152
324.215
342.863
323.495
310.213
300.626
309.076
300.15
325.18
310.47
326.174
311.52
344.661
322.868
345.969
324.15
310.986
300.995
311.691
301.737
299.215
292.904
290.886
286.477
298.895
292.252
290.381
286.239
299.375
293.479
291.109
286.595
300.259
293.895
291.354
287.155
278.337
275.991
275.044
275.98
274.496
273.982
279.639
276.901
275.729
276.483
274.85
274.231
281.764
278.413
276.979
277.287
275.365
274.635
310.827
299.951
294.528
297.734
290.444
286.927
289.885
284.62
282.196
284.235
280.214
278.426
278.125
275.955
275.05
309.632
298.461
292.869
298.308
290.2
286.187
290.649
284.705
281.85
284.637
280.508
278.674
278.746
276.403
275.291
285.451
278.866
275.852
274.324
286.333
279.148
275.966
274.356
285.3
278.837
275.862
274.34
286.351
279.184
276.021
274.389
285.029
278.773
275.881
274.364
286.346
279.225
276.083
274.424
286.794
279.424
276.118
274.43
287.12
279.592
276.142
274.432
285.59
279.009
275.996
274.413
284.328
278.608
275.771
274.368
284.575
278.646
275.853
274.382
283.694
278.371
275.678
274.351
286.246
279.267
276.064
274.423
284.782
278.793
275.827
274.38
286.645
279.444
276.116
274.44
285.079
278.93
275.88
274.402
283.965
278.409
275.68
274.284
282.315
277.892
275.455
274.238
283.827
278.375
275.676
274.293
282.313
277.897
275.455
274.247
283.618
278.319
275.669
274.306
282.437
277.946
275.473
274.262
283.315
278.23
275.636
274.32
282.5
277.974
275.49
274.29
283.016
278.143
275.574
274.332
280.944
277.477
275.19
274.2
280.223
277.281
275.067
274.161
281.134
277.541
275.219
274.214
280.439
277.354
275.096
274.174
281.45
277.649
275.261
274.235
280.803
277.477
275.139
274.196
281.862
277.783
275.331
274.27
281.296
277.639
275.204
274.225
282.428
277.964
275.415
274.304
281.83
277.813
275.268
274.253
283.193
278.276
275.493
274.338
282.571
278.129
275.372
274.3
282.868
278.126
275.458
274.323
282.286
277.988
275.326
274.279
283.421
278.4
275.512
274.347
282.782
278.25
275.398
274.314
283.623
278.512
275.549
274.366
282.986
278.357
275.434
274.332
273.59
273.271
273.12
273.053
273.028
273.595
273.273
273.121
273.053
273.028
273.594
273.273
273.121
273.054
273.028
273.601
273.275
273.122
273.054
273.028
273.598
273.275
273.122
273.054
273.028
273.609
273.278
273.123
273.054
273.029
273.624
273.284
273.125
273.055
273.029
273.635
273.289
273.127
273.056
273.029
273.612
273.28
273.124
273.054
273.029
273.608
273.28
273.124
273.054
273.029
273.602
273.277
273.123
273.054
273.029
273.603
273.278
273.123
273.054
273.029
273.621
273.283
273.125
273.055
273.029
273.617
273.283
273.125
273.055
273.029
273.633
273.289
273.127
273.056
273.029
273.628
273.288
273.127
273.056
273.029
273.582
273.27
273.12
273.053
273.028
273.576
273.269
273.12
273.053
273.028
273.585
273.271
273.121
273.053
273.028
273.579
273.27
273.12
273.053
273.028
273.589
273.273
273.121
273.054
273.028
273.584
273.272
273.121
273.053
273.028
273.594
273.275
273.122
273.054
273.028
273.591
273.274
273.122
273.054
273.028
273.598
273.276
273.122
273.054
273.029
510.43
502.043
510.073
501.788
509.407
501.361
508.799
500.707
509.085
500.735
514.02
509.882
511.71
506.151
515.306
511.533
516.052
512.299
559.577
569.957
572.283
572.83
572.951
548.297
566.843
571.55
572.663
572.906
559.906
570.079
572.317
572.838
572.954
548.525
566.976
571.591
572.675
572.91
560.192
570.201
572.352
572.847
572.956
548.756
567.117
571.635
572.686
572.913
560.619
570.348
572.388
572.855