/*--------------------------------*- C++ -*----------------------------------*\
| =========                 |                                                 |
| \\      /  F ield         | OpenFOAM: The Open Source CFD Toolbox           |
|  \\    /   O peration     | Version:  2412                                  |
|   \\  /    A nd           | Website:  www.openfoam.com                      |
|    \\/     M anipulation  |                                                 |
\*---------------------------------------------------------------------------*/
FoamFile
{
    version     2.0;
    format      ascii;
    arch        "LSB;label=32;scalar=64";
    class       volScalarField;
    location    "50/rightSolid";
    object      T;
}
// * * * * * * * * * * * * * * * * * * * * * * * * * * * * * * * * * * * * * //

dimensions      [0 0 0 1 0 0 0];

internalField   nonuniform List<scalar> 
130
(
310.26607
308.62103
307.0129
305.5414
304.26454
303.20424
302.35643
301.70134
301.21194
300.86002
300.62011
300.47186
300.40128
312.49375
310.31083
308.23592
306.3948
304.84325
303.58789
302.60621
301.86169
301.31392
300.92484
300.6621
300.50085
300.42439
317.07187
313.63726
310.5479
307.95323
305.87082
304.25425
303.03273
302.13197
301.48417
301.03227
300.73134
300.54847
300.46227
324.0773
318.25303
313.50636
309.82551
307.04786
304.99098
303.49223
302.41777
301.66181
301.14335
300.80248
300.59721
300.50096
332.47482
322.69324
315.96745
311.23995
307.882
305.49141
303.79569
302.60305
301.77561
301.21399
300.84756
300.62804
300.52544
332.47481
322.69322
315.96745
311.23994
307.882
305.49141
303.7957
302.60305
301.77561
301.214
300.84756
300.62804
300.52544
324.07729
318.25302
313.50637
309.82552
307.04787
304.99099
303.49225
302.41777
301.66181
301.14335
300.80248
300.59721
300.50096
317.0719
313.63728
310.54793
307.95325
305.87084
304.25426
303.03275
302.13198
301.48417
301.03228
300.73134
300.54847
300.46227
312.49381
310.31087
308.23596
306.39483
304.84328
303.58792
302.60624
301.8617
301.31393
300.92484
300.66211
300.50086
300.42439
310.26615
308.6211
307.01295
305.54144
304.26458
303.20427
302.35646
301.70136
301.21196
300.86003
300.62012
300.47187
300.40128
)
;

boundaryField
{
    maxX
    {
        type            zeroGradient;
    }
    minZ
    {
        type            zeroGradient;
    }
    maxZ
    {
        type            zeroGradient;
    }
    rightSolid_to_bottomWater
    {
        type            compressible::turbulentTemperatureRadCoupledMixed;
        refValue        nonuniform List<scalar> 
130
(
300.70469
300.61713
300.51103
300.40248
300.30326
300.21998
300.15457
300.1058
300.07094
300.04695
300.03111
300.02127
300.01596
300.95338
300.86162
300.73189
300.58795
300.44919
300.32827
300.23088
300.15725
300.10441
300.06809
300.04414
300.02914
300.02065
301.66752
301.46606
301.20924
300.94161
300.69683
300.49364
300.33712
300.22338
300.14448
300.09192
300.05814
300.03736
300.02564
305.35016
303.90001
302.70279
301.80684
301.18017
300.75885
300.48248
300.30422
300.19017
300.11792
300.07295
300.04585
300.0307
311.35086
304.08785
302.28769
301.44862
300.95204
300.63229
300.419
300.27524
300.17863
300.11452
300.07293
300.04697
300.03204
311.3509
304.08788
302.2877
301.44863
300.95205
300.63229
300.419
300.27524
300.17863
300.11452
300.07293
300.04697
300.03204
305.35017
303.90002
302.7028
301.80686
301.18018
300.75886
300.48249
300.30422
300.19017
300.11792
300.07295
300.04585
300.0307
301.66753
301.46607
301.20925
300.94162
300.69684
300.49364
300.33713
300.22339
300.14449
300.09192
300.05814
300.03736
300.02564
300.95339
300.86163
300.7319
300.58796
300.4492
300.32828
300.23089
300.15725
300.10441
300.06809
300.04414
300.02914
300.02065
300.7047
300.61715
300.51104
300.40249
300.30327
300.21999
300.15457
300.1058
300.07094
300.04695
300.03111
300.02127
300.01596
)
;
        refGradient     uniform 0;
        valueFraction   uniform 0.0075140686;
        source          uniform 0;
        logInterval     -1;
        writePrecision  8;
        updateHeader    1;
        writeToFile     0;
        useUserTime     1;
        kappaMethod     solidThermo;
        value           nonuniform List<scalar> 
130
(
310.18347
308.55132
306.95571
305.4957
304.22889
303.17702
302.33605
301.68634
301.20103
300.85209
300.61425
300.4673
300.39733
312.39578
310.22981
308.17084
306.34379
304.80411
303.55842
302.58439
301.84577
301.30242
300.91653
300.65598
300.49609
300.42027
316.94402
313.53506
310.46843
307.89267
305.82543
304.22071
303.00827
302.11435
301.47156
301.02324
300.72474
300.54336
300.45785
323.92356
318.13366
313.41524
309.75687
306.99685
304.95359
303.46519
302.39843
301.64808
301.13359
300.79539
300.59174
300.49625
332.30243
322.5414
315.85431
311.15767
307.82277
305.44912
303.76575
302.582
301.76087
301.20362
300.84008
300.62232
300.52052
332.30243
322.54138
315.85431
311.15766
307.82277
305.44913
303.76576
302.582
301.76087
301.20362
300.84008
300.62232
300.52052
323.92355
318.13365
313.41524
309.75688
306.99686
304.9536
303.46521
302.39844
301.64809
301.13359
300.79539
300.59174
300.49625
316.94405
313.53509
310.46845
307.89269
305.82545
304.22072
303.0083
302.11436
301.47157
301.02325
300.72474
300.54336
300.45786
312.39584
310.22986
308.17088
306.34382
304.80413
303.55844
302.58442
301.84578
301.30243
300.91653
300.65599
300.4961
300.42027
310.18355
308.55138
306.95576
305.49574
304.22892
303.17704
302.33608
301.68636
301.20104
300.8521
300.61426
300.4673
300.39733
)
;
    }
    rightSolid_to_topAir
    {
        type            compressible::turbulentTemperatureRadCoupledMixed;
        refValue        nonuniform List<scalar> 
130
(
303.06464
303.28952
303.3948
303.39803
303.31989
303.18183
303.00424
302.80529
302.60036
302.40161
302.2165
302.03911
301.88013
303.25825
303.50667
303.63136
303.65223
303.59121
303.46981
303.30765
303.12176
302.92656
302.73413
302.55464
302.39255
302.24378
304.44424
304.72899
304.84128
304.81737
304.69251
304.49801
304.26032
304.00117
303.73817
303.48554
303.25462
303.04274
302.85238
306.57371
306.90531
306.986
306.88465
306.65762
306.34888
305.99184
305.61152
305.22647
304.85055
304.49445
304.1664
303.88066
309.6439
309.90673
309.84275
309.56788
309.16051
308.67484
308.14871
307.60852
307.07256
306.55349
306.0602
305.59957
305.18802
309.6439
309.90673
309.84275
309.56788
309.16051
308.67484
308.14871
307.60852
307.07257
306.5535
306.06021
305.59957
305.18802
306.57371
306.90531
306.98601
306.88465
306.65762
306.34888
305.99185
305.61152
305.22647
304.85056
304.49445
304.16641
303.88067
304.44425
304.72899
304.84129
304.81737
304.69251
304.49801
304.26032
304.00118
303.73817
303.48555
303.25463
303.04275
302.85238
303.25826
303.50668
303.63137
303.65224
303.59122
303.46982
303.30766
303.12178
302.92657
302.73414
302.55465
302.39257
302.24379
303.06465
303.28953
303.39481
303.39804
303.3199
303.18184
303.00426
302.80531
302.60038
302.40163
302.21651
302.03912
301.88014
)
;
        refGradient     uniform 0;
        valueFraction   uniform 0.00032132529;
        source          uniform 0;
        logInterval     -1;
        writePrecision  8;
        updateHeader    1;
        writeToFile     0;
        useUserTime     1;
        kappaMethod     solidThermo;
        value           nonuniform List<scalar> 
130
(
310.25292
308.60968
307.00335
305.53358
304.2583
303.1994
302.35277
301.69867
301.21003
300.85869
300.61918
300.47118
300.40069
312.47945
310.29856
308.22569
306.38648
304.83668
303.58284
302.60243
301.85896
301.31201
300.92353
300.66123
300.50024
300.42388
317.05563
313.62358
310.5367
307.94429
305.86388
304.249
303.02889
302.12927
301.48233
301.03108
300.7306
300.54799
300.46189
324.05856
318.23778
313.49425
309.81612
307.04077
304.98579
303.48858
302.41532
301.66027
301.14247
300.80205
300.59702
300.50086
332.45373
322.677
315.95505
311.23064
307.8752
305.48662
303.79249
302.60107
301.77455
301.21358
300.84757
300.62828
300.52572
332.45372
322.67699
315.95506
311.23064
307.8752
305.48662
303.7925
302.60107
301.77455
301.21359
300.84757
300.62828
300.52572
324.05855
318.23777
313.49426
309.81613
307.04078
304.9858
303.4886
302.41532
301.66027
301.14247
300.80205
300.59702
300.50086
317.05566
313.6236
310.53672
307.94431
305.8639
304.24902
303.02892
302.12928
301.48234
301.03109
300.7306
300.548
300.4619
312.47951
310.29861
308.22573
306.38652
304.8367
303.58286
302.60246
301.85897
301.31202
300.92354
300.66123
300.50024
300.42388
310.253
308.60974
307.0034
305.53361
304.25834
303.19943
302.35281
301.69868
301.21005
300.8587
300.61919
300.47118
300.40069
)
;
    }
    rightSolid_to_heater
    {
        type            compressible::turbulentTemperatureRadCoupledMixed;
        refValue        nonuniform List<scalar> 10(311.81242 314.58162 320.48114 330.44065 347.22068 347.22072 330.44067 320.48118 314.58168 311.81252);
        refGradient     uniform 0;
        valueFraction   uniform 0.50000003;
        source          uniform 0;
        logInterval     -1;
        writePrecision  8;
        updateHeader    1;
        writeToFile     0;
        useUserTime     1;
        kappaMethod     solidThermo;
        value           nonuniform List<scalar> 10(311.03383 313.53202 318.77041 327.25241 339.84087 339.84088 327.25242 318.77045 313.53208 311.03392);
    }
}


// ************************************************************************* //
