/*--------------------------------*- C++ -*----------------------------------*\
| =========                 |                                                 |
| \\      /  F ield         | OpenFOAM: The Open Source CFD Toolbox           |
|  \\    /   O peration     | Version:  2412                                  |
|   \\  /    A nd           | Website:  www.openfoam.com                      |
|    \\/     M anipulation  |                                                 |
\*---------------------------------------------------------------------------*/
FoamFile
{
    version     2.0;
    format      ascii;
    arch        "LSB;label=32;scalar=64";
    class       volVectorField;
    location    "1.6";
    object      flux;
}
// * * * * * * * * * * * * * * * * * * * * * * * * * * * * * * * * * * * * * //

dimensions      [0 1 -1 1 0 0 0];

internalField   nonuniform List<vector> 
5712
(
(-0.331325 0.534412 0.306867)
(-0.405266 0.293682 0.931292)
(-0.755712 0.929124 0.233149)
(-1.18269 0.609304 1.01775)
(-1.14366 0.895422 0.127553)
(-2.2312 0.762668 1.07598)
(-0.788704 1.31551 0.216475)
(-2.37332 1.63456 1.69869)
(-0.812873 2.0047 0.353144)
(-1.90219 2.54441 2.13177)
(-0.999953 1.06389 0.362698)
(-1.64595 0.93619 1.51591)
(-0.764288 0.654664 0.387643)
(-1.0128 0.451839 1.34887)
(-0.411321 0.432813 0.382395)
(-0.418213 0.246506 1.16027)
(-0.544519 0.883023 0.179324)
(-0.61999 0.787887 0.0992024)
(-0.742381 0.800537 0.541648)
(-0.674575 0.787562 0.25857)
(-0.514246 1.01279 0.167114)
(-0.774016 0.964782 0.0775016)
(-0.765508 1.17442 0.581669)
(-0.765999 1.0042 0.235116)
(-0.218615 0.31302 0.235694)
(-0.160045 0.217323 0.175423)
(-0.296138 0.163364 0.695058)
(-0.213183 0.112904 0.51212)
(-0.497109 0.454284 0.158047)
(-0.326515 0.291136 0.12588)
(-0.916606 0.252352 0.698905)
(-0.642811 0.163617 0.533211)
(-0.762403 0.906893 0.356027)
(-0.775865 0.955881 0.130115)
(-0.77891 0.808026 0.272742)
(-0.795545 0.64949 0.100734)
(-0.184101 0.649267 0.125356)
(-0.161457 0.511383 0.332647)
(-1.76726 0.553097 1.66667)
(-2.18473 0.529004 0.508384)
(-0.942172 0.736359 0.50216)
(-1.25585 0.725371 0.230234)
(-2.27053 1.50927 2.01639)
(-2.79485 1.66416 0.630511)
(-1.05201 1.07474 0.465543)
(-1.29456 1.13911 0.216376)
(-1.32778 0.785856 1.10874)
(-1.73502 0.618781 0.369144)
(-1.06075 0.797052 0.566201)
(-1.4666 0.558639 0.257145)
(-0.611801 0.338796 0.907024)
(-0.772679 0.293339 0.287854)
(-0.126854 0.256165 0.224366)
(-0.0403752 0.391095 0.121257)
(-0.164199 0.127713 0.378515)
(-0.0571342 0.176592 0.15425)
(-0.28425 0.339169 0.202345)
(-0.11721 0.519939 0.12629)
(-0.489135 0.214026 0.396814)
(-0.180122 0.296725 0.151135)
(-0.324812 0.344336 0.268222)
(-0.107858 0.621041 0.169987)
(-0.323767 0.263724 0.251007)
(-0.091946 0.439157 0.106698)
(-0.633975 0.0817374 0.438536)
(-0.185122 0.293781 0.159385)
(-0.829779 0.0137996 0.172098)
(-0.260866 0.20974 0.0639533)
(-1.06151 0.746322 0.543427)
(-0.609611 0.899917 0.414623)
(-0.895779 0.789606 0.326313)
(-0.61901 0.894561 0.295994)
(-1.07987 0.939839 0.593107)
(-0.696519 0.953465 0.521894)
(-0.855862 0.964784 0.320253)
(-0.689812 0.935272 0.342372)
(-0.699658 0.709178 0.30746)
(-0.505312 0.85839 0.268656)
(-0.770651 0.70428 0.409914)
(-0.48961 0.844335 0.35569)
(-0.869615 0.794038 0.240273)
(-0.639472 0.89003 0.20867)
(-0.898792 0.780586 0.137287)
(-0.655394 0.885452 0.118765)
(-0.83861 0.975886 0.23533)
(-0.703253 0.924849 0.235222)
(-0.871525 0.978383 0.132069)
(-0.716638 0.919031 0.132618)
(-0.720601 0.667511 0.233007)
(-0.533233 0.860771 0.186077)
(-0.776198 0.609294 0.134184)
(-0.552331 0.857527 0.0961932)
(-0.772342 0.743401 0.266804)
(-0.319165 0.804708 0.150838)
(-0.443744 0.935958 0.27168)
(-0.509032 1.32617 0.295969)
(-0.832754 0.77968 0.361831)
(-0.369805 0.93472 0.274573)
(-0.442898 0.932214 0.39407)
(-0.536114 1.45816 0.511135)
(-0.773293 0.702748 0.191842)
(-0.29676 0.710252 0.0828734)
(-0.462902 0.929817 0.172601)
(-0.499633 1.25453 0.176219)
(-0.799136 0.675244 0.107185)
(-0.298267 0.651091 0.0379191)
(-0.48577 0.927996 0.0784387)
(-0.502989 1.21963 0.0674482)
(-0.122827 0.196922 0.265622)
(-0.13876 0.251576 0.52935)
(-0.0434077 0.53876 0.191133)
(-0.0876145 0.890168 0.597171)
(-0.353702 0.234695 0.287512)
(-0.416341 0.265256 0.534298)
(-0.146948 0.662678 0.227341)
(-0.283238 0.992617 0.633322)
(-0.575485 0.27712 0.373603)
(-0.683819 0.289498 0.526328)
(-0.264484 0.805863 0.312841)
(-0.477001 1.10897 0.640344)
(-0.717915 1.02496 0.3963)
(-0.375806 1.1207 0.457765)
(-0.740427 0.876667 0.320882)
(-0.901247 0.812363 0.325322)
(-0.459741 1.13013 0.387832)
(-0.270919 1.13989 0.302278)
(-0.434405 0.996041 0.347697)
(-0.515791 0.874772 0.487898)
(-0.916022 0.747092 0.575769)
(-0.599705 1.28867 0.836667)
(-0.420835 1.04421 0.410752)
(-0.556643 0.971147 0.345822)
(-0.623329 0.824406 0.33901)
(-0.611056 0.863682 0.429002)
(-0.767171 1.66019 0.670597)
(-0.135001 0.069373 0.660784)
(-0.137821 0.0915936 0.641789)
(-0.0844406 0.190593 0.771922)
(-0.0898324 0.399682 0.781657)
(-0.399883 0.0978557 0.642427)
(-0.377569 0.137158 0.644655)
(-0.261654 0.250064 0.771871)
(-0.26437 0.461045 0.772195)
(-0.598812 0.146114 0.588113)
(-0.541655 0.141098 0.612001)
(-0.388018 0.332235 0.736308)
(-0.387484 0.541545 0.747347)
(-0.39289 1.10559 0.380242)
(-0.437676 1.0919 0.405071)
(-0.620231 0.924617 0.386803)
(-0.658393 0.875703 0.410975)
(-0.708044 0.790548 0.473469)
(-0.665141 0.694286 0.480936)
(-0.849867 0.581647 0.560124)
(-0.776099 0.510031 0.551851)
(-0.600445 0.461746 0.712704)
(-0.597415 0.694046 0.72686)
(-0.53457 0.978692 0.345644)
(-0.572401 0.875883 0.383162)
(-0.691154 0.910781 0.400482)
(-0.620891 0.84689 0.437465)
(-0.656401 0.776399 0.455355)
(-0.539289 0.71068 0.503317)
(-0.593939 0.678557 0.531108)
(-0.466509 0.594146 0.593825)
(-0.671257 0.546461 0.702061)
(-0.528385 0.752952 0.775097)
(-0.57848 0.940812 0.40575)
(-0.298557 0.999002 0.277583)
(-0.455775 0.975843 0.327251)
(-0.436913 1.06907 0.326307)
(-0.63705 0.941365 0.446156)
(-0.732356 0.866551 0.500787)
(-0.650774 0.957552 0.36213)
(-0.84138 0.915331 0.47249)
(-0.386182 0.859482 0.305666)
(-0.374484 0.866998 0.307155)
(-0.526345 0.846552 0.390495)
(-0.224571 0.838587 0.281665)
(-0.442405 0.993237 0.140878)
(-0.690924 1.09539 0.234865)
(-0.459142 0.986544 0.0565728)
(-0.740411 1.08543 0.0868909)
(-0.661391 0.971294 0.22385)
(-1.03408 0.954444 0.348774)
(-0.684997 0.96101 0.0861756)
(-1.06135 0.948064 0.129425)
(-0.377282 0.851152 0.121618)
(-0.611016 0.859975 0.209509)
(-0.392206 0.86218 0.0452051)
(-0.664951 0.866638 0.0762312)
(-0.466389 0.744769 0.294522)
(-0.340477 0.73419 0.250365)
(-0.604339 0.514752 0.303661)
(-0.265968 0.615362 0.192167)
(-0.502314 0.752011 0.416408)
(-0.172539 0.723328 0.299328)
(-0.571014 0.531952 0.477032)
(-0.122984 0.640775 0.322501)
(-0.486765 0.723218 0.140178)
(-0.494323 0.72276 0.159306)
(-0.634127 0.507458 0.173249)
(-0.32333 0.613962 0.100102)
(-0.440768 0.729265 0.105303)
(-0.572429 0.71435 0.113156)
(-0.583698 0.501986 0.116781)
(-0.413164 0.598331 0.0884721)
(-0.127625 0.0773229 0.561226)
(-0.117544 0.0618166 0.371496)
(-0.0993421 0.0449032 0.122604)
(-0.0827253 0.0420098 0.607694)
(-0.0802399 0.035372 0.384627)
(-0.0691956 0.0348342 0.133397)
(-0.342785 0.116739 0.550892)
(-0.290463 0.0802789 0.362652)
(-0.24881 0.0614731 0.124588)
(-0.226645 0.0984481 0.604488)
(-0.186038 0.0866382 0.3829)
(-0.154089 0.0737044 0.130472)
(-0.445145 0.121768 0.52337)
(-0.369344 0.114138 0.339641)
(-0.332316 0.119336 0.114249)
(-0.327049 0.177953 0.590867)
(-0.257023 0.15165 0.375824)
(-0.227972 0.13663 0.129663)
(-0.387745 1.0241 0.294728)
(-0.305426 0.892197 0.171846)
(-0.284876 0.804066 0.0466754)
(-0.609417 0.860295 0.360722)
(-0.440239 0.791195 0.247136)
(-0.349899 0.737789 0.080758)
(-0.558298 0.591694 0.422061)
(-0.397266 0.556007 0.296931)
(-0.300211 0.536341 0.100505)
(-0.62644 0.426607 0.472062)
(-0.478111 0.396166 0.309861)
(-0.393651 0.381129 0.102277)
(-0.499438 0.290047 0.568752)
(-0.33122 0.208143 0.361302)
(-0.239997 0.166185 0.127868)
(-0.72548 0.810111 0.320591)
(-0.575541 0.730953 0.179017)
(-0.500676 0.676682 0.0597022)
(-0.539084 0.815817 0.328066)
(-0.415001 0.743949 0.214881)
(-0.334715 0.702263 0.0757731)
(-0.483876 0.612217 0.376005)
(-0.352745 0.53215 0.250058)
(-0.268846 0.489252 0.0867886)
(-0.439938 0.446149 0.447502)
(-0.318637 0.384527 0.289212)
(-0.24431 0.356041 0.0997572)
(-0.486827 0.302376 0.540663)
(-0.284288 0.216914 0.319423)
(-0.170269 0.173544 0.111512)
(-0.468759 1.16345 -0.0204951)
(-0.761633 1.19987 0.039455)
(-0.399449 1.24228 0.0168632)
(-0.569765 1.13577 0.105954)
(-0.385432 1.14123 0.074258)
(-0.790487 1.13449 0.0742881)
(-0.324086 1.36648 0.190785)
(-0.6494 1.17044 0.166175)
(-0.00641888 0.738895 0.0242786)
(-0.0686392 0.807466 0.0383603)
(0.0107925 0.737952 0.0257164)
(-0.0407131 0.723947 0.0402265)
(-0.142471 0.981122 0.0135331)
(-0.268945 0.857345 0.0370822)
(-0.0901374 0.962444 0.024872)
(-0.164278 0.756697 0.0543677)
(-0.0751734 1.06171 0.073703)
(-0.157585 1.10359 0.0448272)
(-0.445335 0.905796 0.151454)
(-0.660535 1.0118 0.108026)
(-0.35055 1.18011 0.0684669)
(-0.26462 1.04218 0.111678)
(-0.478088 1.18441 0.117441)
(-0.41836 1.23197 0.028639)
(-0.64689 1.25927 0.243179)
(-0.693272 1.35252 0.0739002)
(0.0227242 1.01838 -0.1754)
(0.2264 1.04596 -0.0326995)
(-0.340789 0.882784 0.0219644)
(-0.238244 0.870981 0.0220501)
(-0.267777 1.00769 -0.00551251)
(-0.153905 0.974362 -0.00107721)
(-0.0630913 0.673363 0.406111)
(-0.0402828 0.387521 0.171553)
(-0.0515708 0.632121 0.107263)
(-0.031961 0.42817 0.0613755)
(-0.155396 0.654026 0.399677)
(-0.0487625 0.379806 0.17343)
(-0.0785708 0.609474 0.116756)
(-0.0103897 0.415135 0.0723588)
(-0.399912 0.597624 0.384454)
(-0.117334 0.351411 0.188139)
(-0.303892 0.566261 0.154997)
(-0.0937031 0.394422 0.105691)
(-0.346181 0.557048 0.118804)
(-0.104062 0.409485 0.0743572)
(-0.391783 0.535412 0.0623598)
(-0.128254 0.408873 0.0553121)
(-0.500712 0.916975 0.530276)
(-0.491549 0.717454 0.462366)
(-0.389253 0.90225 0.230607)
(-0.486176 0.725146 0.295072)
(-0.767426 1.02792 0.607842)
(-0.687863 0.914263 0.567059)
(-0.627438 1.03536 0.295034)
(-0.652636 0.902662 0.353399)
(-0.284631 0.830765 0.204422)
(-0.368971 0.568758 0.246853)
(-0.332236 0.859574 0.440835)
(-0.341253 0.547776 0.361078)
(-0.364395 0.921995 0.144887)
(-0.482368 0.72941 0.191027)
(-0.383141 0.948175 0.0807408)
(-0.486487 0.728935 0.108841)
(-0.598896 1.06298 0.19564)
(-0.638861 0.899257 0.228748)
(-0.620764 1.0829 0.110274)
(-0.643087 0.896614 0.128629)
(-0.251513 0.810355 0.113716)
(-0.373558 0.577189 0.161464)
(-0.243304 0.805487 0.0609612)
(-0.377829 0.577866 0.0964407)
(-0.0264954 0.493886 0.178262)
(-0.0510427 0.34376 0.121376)
(-0.290081 0.432192 0.201207)
(-0.153954 0.282039 0.12869)
(-0.0256423 0.454533 0.309952)
(-0.0415192 0.30783 0.17558)
(-0.253957 0.403152 0.271518)
(-0.129566 0.258742 0.168999)
(-0.0267227 0.506088 0.10366)
(-0.0460099 0.364152 0.0821156)
(-0.306019 0.445236 0.138708)
(-0.169816 0.295279 0.0877338)
(-0.0388824 0.509597 0.055433)
(-0.0506938 0.377347 0.0502938)
(-0.308805 0.448818 0.0866783)
(-0.179149 0.303058 0.053754)
(0.00797194 0.109704 0.468106)
(0.0139548 0.0597247 0.298771)
(-0.0185026 0.207905 0.220357)
(-0.0117396 0.121948 0.22052)
(0.0364018 0.113141 0.463753)
(0.0576138 0.0683037 0.298437)
(-0.0288612 0.210711 0.216879)
(-0.0168879 0.133489 0.215762)
(-0.0419755 0.122455 0.468147)
(0.000391997 0.0901129 0.28807)
(-0.0960668 0.208559 0.219394)
(-0.0809124 0.151833 0.200287)
(0.303167 0.538268 0.533931)
(0.153526 0.905813 0.528004)
(0.179578 0.350446 0.487265)
(0.122991 0.318311 0.365917)
(0.00415035 0.233226 0.200262)
(0.282919 0.925356 0.320606)
(0.411112 0.591115 0.375333)
(0.194453 0.331371 0.385499)
(0.199352 0.295021 0.35157)
(0.00534676 0.183488 0.232861)
(-0.384652 0.893428 0.457358)
(-0.27729 0.642655 0.399178)
(-0.22144 0.469571 0.322173)
(-0.22226 0.344699 0.252444)
(-0.122879 0.221844 0.155476)
(0.0215541 0.0418354 0.243242)
(0.0175489 0.0390674 0.231136)
(-0.00613485 0.086252 0.236923)
(-0.00918725 0.0788471 0.276231)
(0.0608627 0.0515911 0.243945)
(0.0653257 0.0399962 0.226027)
(-0.016498 0.102569 0.232147)
(-0.0220113 0.0920057 0.271445)
(0.0537117 0.072074 0.23589)
(0.0743149 0.0613773 0.217848)
(-0.0494677 0.122488 0.22171)
(-0.0571871 0.109219 0.261509)
(0.119397 0.934485 0.359792)
(0.0561376 0.87977 0.340892)
(0.314768 0.589721 0.323856)
(0.216464 0.528039 0.276942)
(0.168346 0.368047 0.23306)
(0.117245 0.344056 0.230074)
(0.155545 0.282005 0.215778)
(0.126521 0.261728 0.219924)
(-0.00383646 0.169396 0.194003)
(-0.0292017 0.15205 0.248199)
(-0.204497 0.814797 0.265996)
(-0.143282 0.689579 0.301415)
(0.0153112 0.588738 0.215538)
(0.0801551 0.496431 0.24381)
(0.0271874 0.437234 0.183851)
(0.0737488 0.387517 0.208057)
(-0.00987211 0.310586 0.171467)
(0.0307435 0.288238 0.20203)
(-0.0226221 0.204861 0.145837)
(-0.0343458 0.218862 0.228232)
(-0.163493 0.558484 0.192132)
(-0.179175 0.431874 0.154335)
(-0.384926 0.565537 0.131701)
(-0.243432 0.407963 0.0734901)
(-0.350171 0.72016 0.301701)
(-0.336575 0.525742 0.228985)
(-0.522895 0.733685 0.243357)
(-0.405678 0.519122 0.15603)
(-0.287656 0.45695 0.0957571)
(-0.174645 0.357444 0.0559373)
(-0.0963333 0.451537 0.14187)
(-0.123142 0.380681 0.127268)
(-0.455012 0.585822 0.168216)
(-0.192994 0.389792 0.0749624)
(-0.488127 0.591699 0.076595)
(-0.178864 0.394974 0.0423619)
(-0.600089 0.771666 0.224296)
(-0.392022 0.534524 0.129898)
(-0.639441 0.770862 0.0903535)
(-0.378395 0.539551 0.0623722)
(-0.346824 0.460645 0.132405)
(-0.126741 0.336378 0.0566341)
(-0.37686 0.468808 0.0661424)
(-0.109532 0.350784 0.0329848)
(-0.207477 0.327454 0.075149)
(-0.164454 0.289151 0.0884048)
(-0.146725 0.224695 0.0884183)
(-0.260544 0.283622 0.147693)
(-0.098681 0.331474 0.114143)
(-0.131684 0.302355 0.13696)
(-0.0930208 0.228375 0.10529)
(-0.217318 0.279106 0.190605)
(-0.228921 0.326298 0.0926645)
(-0.15185 0.281328 0.0651606)
(-0.179774 0.219119 0.0655072)
(-0.29959 0.295609 0.10684)
(-0.27892 0.343202 0.0400691)
(-0.142035 0.284483 0.0148743)
(-0.216067 0.227629 0.0113068)
(-0.294882 0.2926 0.0248391)
(0.0211815 0.0810112 0.179813)
(0.0259689 0.0637216 0.0827772)
(0.0296851 0.0493902 0.0239535)
(-0.00581205 0.294726 0.18882)
(0.00504765 0.144945 0.0507911)
(0.00668574 0.110528 0.0135405)
(0.0751404 0.0754557 0.177578)
(0.0862223 0.0689803 0.087615)
(0.0911477 0.0579339 0.0274878)
(-0.00752075 0.311292 0.188685)
(0.0206678 0.169875 0.0527447)
(0.02447 0.135898 0.0147776)
(0.0916199 0.094015 0.166095)
(0.123339 0.0973452 0.0831409)
(0.136433 0.0961999 0.0218617)
(-0.0296632 0.331307 0.181232)
(0.0361422 0.210822 0.0496201)
(0.0493354 0.182705 0.0114947)
(0.0252955 0.769631 0.232774)
(0.047652 0.677936 0.129568)
(0.0423832 0.617496 0.0351282)
(0.15835 0.480081 0.186243)
(0.167762 0.436615 0.102037)
(0.154164 0.410365 0.0290366)
(0.123383 0.339913 0.172328)
(0.141363 0.31536 0.0885906)
(0.135573 0.302683 0.0258108)
(0.133078 0.290392 0.160294)
(0.160401 0.265797 0.0776297)
(0.163587 0.254524 0.018785)
(-0.014567 0.385316 0.173789)
(0.0523732 0.276827 0.0447327)
(0.0490226 0.244534 0.00807367)
(-0.168502 0.571122 0.256056)
(-0.0851788 0.497228 0.136659)
(-0.0502748 0.45046 0.0431896)
(0.0403111 0.423021 0.211702)
(0.0844352 0.372855 0.116274)
(0.0987632 0.344572 0.0385439)
(0.0527536 0.362812 0.182217)
(0.0978658 0.315642 0.0968325)
(0.109143 0.284967 0.0319795)
(0.0333779 0.337683 0.165619)
(0.0866831 0.291709 0.0704091)
(0.0975298 0.267479 0.019724)
(-0.0586858 0.499513 0.183455)
(0.0349776 0.345201 0.0472803)
(0.0409063 0.309854 0.0153004)
(-0.00289915 0.211343 0.0639471)
(8.56059e-05 0.124399 0.0239464)
(0.0010407 0.0840272 0.0118534)
(0.00209905 0.0672606 0.00173869)
(0.00360716 0.235144 0.0259422)
(0.00340135 0.133254 0.0101982)
(0.00397904 0.0871297 0.00540076)
(0.00361437 0.0691376 0.00139676)
(-0.00772905 0.205557 0.0657865)
(-0.00013556 0.122751 0.0254866)
(0.00292845 0.0839067 0.0139127)
(0.00562579 0.068021 0.00360151)
(0.00822547 0.233556 0.0311207)
(0.00777747 0.133665 0.0134614)
(0.00850935 0.0882875 0.00870022)
(0.00804607 0.0700813 0.00398813)
(-0.0149295 0.195218 0.0748759)
(-0.00230146 0.120539 0.030203)
(0.00276002 0.0853686 0.0179343)
(0.00871587 0.0679178 0.00618352)
(0.000803272 0.227205 0.0526575)
(0.00610271 0.134961 0.0259431)
(0.00670431 0.0913366 0.0139725)
(0.0086686 0.0701711 0.00617122)
(0.00125518 0.237619 0.0380436)
(0.00397024 0.13998 0.0225164)
(0.00225546 0.0911339 0.00943736)
(0.00257083 0.0726344 0.00275365)
(-0.00602126 0.243811 0.038864)
(-0.00069342 0.145366 0.0250668)
(0.00114521 0.0940829 0.0131537)
(0.00299427 0.0746471 0.00673235)
(-0.0375075 0.207091 0.061454)
(-0.0115433 0.127367 0.0282509)
(-0.00578567 0.0888018 0.0144152)
(0.00396817 0.0693143 0.00220038)
(-0.0549005 0.172484 0.0579406)
(-0.0177308 0.114277 0.0259066)
(-0.0126944 0.0838719 0.0154488)
(0.00552459 0.0647843 0.000144497)
(-0.0309265 0.181908 0.0777578)
(-0.00874214 0.11655 0.0320184)
(-0.00313379 0.0853925 0.0193822)
(0.00810896 0.0645494 0.0051575)
(-0.0445648 0.156861 0.0690688)
(-0.0141837 0.10703 0.0280884)
(-0.0110816 0.0806651 0.0181322)
(0.00574003 0.0618956 -0.000314174)
(-0.0346403 0.222091 0.0460491)
(-0.0110849 0.135324 0.024065)
(-0.00533997 0.0913481 0.0117962)
(0.00326455 0.0719877 0.00194512)
(-0.0605909 0.182365 0.0446304)
(-0.0196392 0.120017 0.0223657)
(-0.0135311 0.0862024 0.013362)
(0.00704892 0.0664944 0.00253681)
(-0.0367255 0.230683 0.0336218)
(-0.0127987 0.141092 0.0203484)
(-0.0050228 0.093971 0.0118474)
(0.004847 0.0734259 0.00638254)
(-0.0636625 0.188165 0.0306999)
(-0.0207829 0.124365 0.0181755)
(-0.0141476 0.0885348 0.0117815)
(0.00777193 0.0674574 0.00626244)
(-0.0027088 0.16343 0.0810918)
(-0.000253117 0.109618 0.0292448)
(0.000226361 0.0794888 0.0150054)
(0.00178155 0.0637046 -0.000125511)
(-0.00218839 0.114535 0.0832758)
(-0.000118203 0.0924174 0.0284073)
(-0.000297586 0.0736325 0.0173117)
(0.00190725 0.0586556 -0.00446694)
(-0.00729434 0.158993 0.080603)
(-0.000854469 0.108214 0.0295608)
(0.000733156 0.0795821 0.0161633)
(0.00481964 0.0637746 0.000741419)
(-0.00358223 0.114069 0.0798884)
(0.000517123 0.0923102 0.0273904)
(-0.000251746 0.0736567 0.0172284)
(0.00523682 0.0589347 -0.00412661)
(-0.0253519 0.152264 0.0807879)
(-0.00681502 0.106175 0.0302315)
(-0.002673 0.0801834 0.0186022)
(0.00709123 0.0636968 0.00231379)
(-0.0191714 0.116921 0.07155)
(-0.00429392 0.09364 0.024745)
(-0.00274892 0.0740797 0.0170077)
(0.00839037 0.0598627 -0.00252638)
(-0.0114938 0.145678 0.0748906)
(-0.00139481 0.103091 0.0289351)
(0.000346302 0.0792447 0.020011)
(0.00875753 0.0634463 0.00604445)
(-0.00761246 0.118271 0.0788363)
(-0.000348243 0.0942111 0.0278625)
(-0.00114336 0.0756637 0.0215665)
(0.00838315 0.0602225 -0.00192347)
(-0.0372956 0.136703 0.057745)
(-0.0110269 0.0999398 0.0223471)
(-0.00872027 0.0765656 0.015721)
(0.00903149 0.0595017 0.00256798)
(0.00136621 0.0634965 0.0676062)
(0.00103862 0.0764985 0.0207582)
(0.000567739 0.060063 0.0131763)
(0.00163721 0.0187206 -0.00453575)
(0.00461685 0.00643257 0.0262874)
(0.00200365 0.0680049 0.00735922)
(0.00108108 0.0536707 0.0040699)
(0.00106471 0.0177044 -0.000852996)
(0.00112184 0.0695185 0.0669736)
(0.00199598 0.0788096 0.0210621)
(0.00081752 0.061156 0.0134235)
(0.00421702 0.0197065 -0.00394785)
(0.0113844 0.0151834 0.0269005)
(0.00518901 0.0706652 0.00775783)
(0.00260108 0.0545401 0.00442939)
(0.00277212 0.0180213 -0.000471078)
(-0.00244213 0.0793167 0.0632858)
(0.00141971 0.082347 0.0205256)
(0.000527876 0.0621109 0.0137654)
(0.00657732 0.0196014 -0.00283591)
(0.0157465 0.0289135 0.0261264)
(0.00750142 0.0750156 0.00784926)
(0.00387795 0.0555522 0.00484119)
(0.00420694 0.0181292 6.01403e-05)
(-0.00282787 0.0934967 0.0535171)
(0.00190785 0.0868866 0.01758)
(0.000654166 0.0638696 0.0131253)
(0.0086711 0.0208972 -0.00155287)
(0.0170487 0.0456125 0.0231265)
(0.00886056 0.0805364 0.00695262)
(0.0042816 0.0573563 0.00513653)
(0.00485899 0.0188248 0.000738895)
(-0.010182 0.114037 0.046996)
(0.000331591 0.0931304 0.0163486)
(-0.00232863 0.066915 0.0124481)
(0.00796675 0.0233673 0.000187563)
(0.0103256 0.0641924 0.0210434)
(0.00791339 0.086034 0.00701908)
(0.00287217 0.0591444 0.00555776)
(0.00430478 0.0193958 0.0016368)
(-0.0373271 0.128777 0.0362329)
(-0.00508537 0.100771 0.0153252)
(-0.00702655 0.0688041 0.00926601)
(0.00682245 0.0221238 0.00104047)
(-0.0105354 0.0643441 0.0191848)
(0.00229159 0.0927843 0.00936548)
(-6.09521e-05 0.0629514 0.00546279)
(0.00273697 0.0202265 0.00266962)
(-0.0235818 0.126212 0.0388132)
(-0.0015342 0.0973679 0.0142198)
(-0.00521015 0.0672998 0.0101179)
(0.0071678 0.0221798 0.000597432)
(-0.00217616 0.0658005 0.0191804)
(0.00517762 0.0901481 0.00772935)
(0.00124363 0.0609059 0.00542273)
(0.00351634 0.0197088 0.00226464)
(-0.0490456 0.128695 0.0318377)
(-0.00977186 0.103267 0.0160032)
(-0.00911621 0.0698902 0.00927272)
(0.00726012 0.0209135 0.00229879)
(-0.0160499 0.0612341 0.0190404)
(-0.000631185 0.0951152 0.0107487)
(-0.001266 0.0643613 0.00595844)
(0.00231461 0.0202273 0.00342115)
(-0.0572987 0.128247 0.0244996)
(-0.0146162 0.106263 0.0150107)
(-0.0113297 0.072299 0.00940718)
(0.00702286 0.0214343 0.0052319)
(-0.0209825 0.0666984 0.0173243)
(-0.00408836 0.0981735 0.0112952)
(-0.00268151 0.0663328 0.0069316)
(0.00183023 0.0207155 0.0047831)
(0.000804586 0.0557931 0.000665465)
(0.000371166 0.0393308 0.000326277)
(0.000182892 0.0255932 0.000174767)
(9.79102e-05 0.0142893 9.94427e-05)
(6.49174e-05 0.00457978 6.80186e-05)
(0.00114572 0.0561199 0.000334204)
(0.000570537 0.0394194 0.000164226)
(0.000291923 0.025634 8.83953e-05)
(0.00015981 0.0143085 5.07949e-05)
(0.000106912 0.00458543 3.51412e-05)
(0.00169952 0.0567944 0.00118884)
(0.000788643 0.0396662 0.000627545)
(0.000387577 0.0257416 0.000339301)
(0.000208161 0.0143541 0.000192951)
(0.000139337 0.00459802 0.000131538)
(0.00300927 0.0570069 0.00108801)
(0.00155506 0.0398147 0.000593077)
(0.000808671 0.0258243 0.000318814)
(0.000448485 0.0143945 0.000180365)
(0.000302516 0.00461003 0.000122682)
(0.0024558 0.0573505 0.00247327)
(0.00114695 0.0400187 0.00138207)
(0.000570642 0.0259059 0.000753043)
(0.000310062 0.0144264 0.000430572)
(0.000209156 0.00461837 0.000294613)
(0.00435848 0.05727 0.00454999)
(0.00222076 0.0403709 0.00250283)
(0.00116369 0.0261133 0.00136048)
(0.000651179 0.0145284 0.000775245)
(0.000441732 0.00464895 0.000528789)
(0.00145379 0.0592896 0.00459253)
(0.000724692 0.0411608 0.00261328)
(0.000381822 0.0265294 0.00144429)
(0.000215113 0.0147281 0.000829921)
(0.000146408 0.00470804 0.000569161)
(0.000772646 0.0603331 0.00483816)
(0.000385134 0.0418887 0.00270997)
(0.000200966 0.0269428 0.00148931)
(0.000112966 0.0149309 0.000854566)
(7.66651e-05 0.00476843 0.00058681)
(0.00218996 0.0589867 0.00314053)
(0.000958829 0.0408019 0.00181778)
(0.000479488 0.0262909 0.00101082)
(0.000263424 0.0146052 0.000582416)
(0.000177184 0.00467066 0.000397788)
(0.000454103 0.0601359 0.00244888)
(0.000136556 0.0409737 0.00142718)
(5.56766e-05 0.0263222 0.000796808)
(2.72432e-05 0.0146117 0.000461253)
(1.73501e-05 0.00467171 0.000315857)
(0.00335452 0.057745 0.00329535)
(0.00160082 0.0404037 0.00183178)
(0.000822949 0.0260811 0.000999857)
(0.000457735 0.0145038 0.000574108)
(0.000310059 0.00464032 0.000392832)
(0.000890004 0.0596125 0.0024728)
(0.000352481 0.0407291 0.00129006)
(0.000169176 0.0261947 0.00069622)
(9.08488e-05 0.0145502 0.000399535)
(6.0106e-05 0.00465324 0.000272354)
(0.000675177 0.0598378 0.00342821)
(0.0001932 0.0412553 0.00210197)
(7.47651e-05 0.0265426 0.00118729)
(3.5943e-05 0.0147285 0.000688254)
(2.28826e-05 0.00470756 0.00047283)
(0.000464508 0.0608596 0.00324122)
(0.000152594 0.0414106 0.00193465)
(6.67789e-05 0.0265653 0.00108594)
(3.47082e-05 0.0147311 0.000628985)
(2.28963e-05 0.00470752 0.000431845)
(0.000602343 0.0605807 0.00431746)
(0.000167853 0.0420156 0.0024732)
(6.37249e-05 0.0269899 0.00136601)
(3.06175e-05 0.0149497 0.000785096)
(1.89221e-05 0.00477368 0.000538989)
(0.000289211 0.0617066 0.00413074)
(4.40723e-05 0.0421445 0.00238148)
(6.9547e-06 0.0269998 0.00131835)
(5.0937e-07 0.0149471 0.000758167)
(-8.88652e-07 0.0047724 0.000519768)
(0.000644596 0.0553761 0.000468384)
(0.000278842 0.0392357 0.000269019)
(0.000131525 0.025549 0.00014658)
(6.81827e-05 0.0142685 8.36614e-05)
(4.44455e-05 0.00457363 5.73315e-05)
(0.000629823 0.0557762 0.000131049)
(0.000267658 0.0392106 0.00010314)
(0.000125289 0.0255236 5.80931e-05)
(6.46919e-05 0.0142557 3.38034e-05)
(4.20961e-05 0.00456986 2.36216e-05)
(0.00149607 0.0560134 0.000770839)
(0.000635608 0.0395024 0.000432662)
(0.000299647 0.0256619 0.000236505)
(0.000155878 0.0143159 0.00013538)
(0.000102333 0.00458669 9.3133e-05)
(0.00146997 0.0563755 0.000189275)
(0.000608625 0.0394538 0.0001396)
(0.000285284 0.0256237 7.87575e-05)
(0.000147826 0.0142972 4.57471e-05)
(9.63891e-05 0.00458122 3.21045e-05)
(0.00194515 0.0569452 0.00105997)
(0.000777718 0.0398571 0.00063897)
(0.000363126 0.0258087 0.00035332)
(0.000188105 0.0143778 0.000204075)
(0.000123529 0.00460371 0.000141516)
(0.00180019 0.0575978 0.00057339)
(0.000751827 0.0398037 0.000330015)
(0.000358627 0.0257613 0.000175813)
(0.000187355 0.0143542 9.88337e-05)
(0.000123639 0.00459681 6.83578e-05)
(0.00246037 0.0583203 0.00278482)
(0.00113855 0.0402557 0.00152611)
(0.000577042 0.0259739 0.000822564)
(0.000317333 0.014449 0.00047275)
(0.000214694 0.00462351 0.000325968)
(0.00123897 0.0588932 0.00139689)
(0.000555372 0.0401514 0.000759796)
(0.000273574 0.0259113 0.000404765)
(0.000145583 0.014419 0.000231301)
(9.78057e-05 0.00461452 0.000159851)
(0.00143311 0.059127 0.00336111)
(0.000689655 0.0405187 0.00166015)
(0.000356514 0.0260929 0.000873214)
(0.000199222 0.0145024 0.000495292)
(0.000135245 0.00463889 0.000337599)
(-0.0202629 0.389332 0.113035)
(-0.0250945 0.605587 0.196407)
(-0.0560217 0.407877 0.107142)
(-0.0716345 0.618941 0.190876)
(-0.0859463 0.438608 0.100618)
(-0.115087 0.640686 0.178067)
(-0.103744 0.47529 0.0987918)
(-0.152258 0.682223 0.171667)
(-0.101074 0.5137 0.106662)
(-0.14854 0.754716 0.193948)
(-0.0919123 0.463169 0.0636005)
(-0.125044 0.570938 0.0897377)
(-0.0820311 0.480099 0.0865799)
(-0.100882 0.618984 0.134138)
(-0.108961 0.458244 0.0427201)
(-0.149801 0.560496 0.0541578)
(-0.115337 0.451746 0.017208)
(-0.158147 0.557305 0.0219714)
(-0.0223551 0.314191 0.333808)
(-0.00492778 0.0564423 0.0806773)
(-0.00107799 0.0124684 0.0185755)
(-0.000229831 0.00281408 0.00413237)
(-5.6106e-05 0.00049767 0.00104017)
(-0.00886884 0.37429 0.0892503)
(-0.00332377 0.103709 0.0237365)
(-0.000349 0.0253483 0.00637296)
(-0.00010264 0.00577236 0.00143303)
(-4.25497e-05 0.00101189 0.000321331)
(-0.072232 0.320189 0.330259)
(-0.0160346 0.0555064 0.0787233)
(-0.00352827 0.0120397 0.0179954)
(-0.000758129 0.00269319 0.00397479)
(-0.000186448 0.000473675 0.000996)
(-0.0228522 0.380264 0.0922975)
(-0.00486259 0.10389 0.0269076)
(-0.000985468 0.0250737 0.0066346)
(-0.000191945 0.00563739 0.00154377)
(-4.08404e-05 0.000984979 0.000388464)
(-0.126818 0.331023 0.316774)
(-0.0283145 0.0552755 0.0742315)
(-0.00626765 0.0116963 0.0167895)
(-0.00135927 0.00258287 0.00368079)
(-0.000337313 0.00045134 0.000917344)
(-0.0403708 0.392053 0.0896161)
(-0.00965847 0.104849 0.0260024)
(-0.00214607 0.0248583 0.00635958)
(-0.000471338 0.00552493 0.0014644)
(-0.000114689 0.000958719 0.000364983)
(-0.180718 0.343716 0.294778)
(-0.0405789 0.054702 0.0677291)
(-0.00907282 0.0112882 0.0151824)
(-0.00199085 0.00246929 0.00331658)
(-0.000500357 0.00043032 0.000826104)
(-0.0568336 0.40715 0.0860107)
(-0.0149241 0.105997 0.02437)
(-0.00355906 0.0247503 0.00584046)
(-0.000823672 0.00546257 0.00132328)
(-0.000210671 0.000945316 0.000325233)
(-0.249909 0.352779 0.255994)
(-0.0577449 0.0539579 0.0579348)
(-0.0131927 0.0110657 0.0129756)
(-0.00294921 0.00243368 0.0028458)
(-0.000754421 0.000426848 0.000713707)
(-0.0760758 0.419628 0.0795379)
(-0.0227102 0.106661 0.0215159)
(-0.00574897 0.024878 0.00504117)
(-0.0013738 0.00552156 0.0011281)
(-0.000360783 0.00096112 0.000274792)
(-0.331587 0.335631 0.141669)
(-0.08372 0.0610719 0.0342525)
(-0.0202136 0.0139128 0.00794944)
(-0.00470848 0.0032541 0.00178503)
(-0.00124338 0.000591465 0.00045577)
(-0.0890777 0.377073 0.0407507)
(-0.0280555 0.108407 0.0103866)
(-0.00732321 0.0273514 0.00227417)
(-0.00178021 0.00642655 0.000472959)
(-0.000475266 0.00116208 0.000108832)
(-0.304347 0.344673 0.198877)
(-0.0744535 0.0584207 0.0467252)
(-0.0175344 0.0126756 0.0106471)
(-0.00400289 0.00287315 0.00236051)
(-0.0010401 0.000512448 0.000597612)
(-0.0857046 0.39513 0.0565147)
(-0.0273979 0.108193 0.0147841)
(-0.00715145 0.026243 0.00339311)
(-0.00173546 0.00597899 0.000749996)
(-0.000459404 0.00105899 0.000181735)
(-0.344026 0.330445 0.0885285)
(-0.0880172 0.0627655 0.0219565)
(-0.0215202 0.0147133 0.00517168)
(-0.00506995 0.00351275 0.00117312)
(-0.00135111 0.000647084 0.000301358)
(-0.0916551 0.370287 0.0262152)
(-0.0279396 0.108475 0.00684865)
(-0.00716866 0.0279598 0.00148147)
(-0.00172155 0.00669988 0.000295217)
(-0.000458061 0.00122951 6.52095e-05)
(-0.35356 0.327203 0.0326296)
(-0.0901675 0.0616372 0.00819542)
(-0.0221422 0.0145106 0.00194765)
(-0.00524609 0.00349294 0.000445252)
(-0.00140552 0.00064777 0.000115089)
(-0.092096 0.366634 0.0127306)
(-0.0280938 0.107213 0.0030685)
(-0.00719504 0.0278227 0.000634)
(-0.0016042 0.0067197 0.000169532)
(-0.000452111 0.0012401 2.62462e-05)
(-0.0105055 1.46868 -0.058111)
(-0.273198 2.05496 0.0219177)
(-0.268055 1.83704 0.173122)
(-0.150135 1.37879 -0.150215)
(0.152689 0.767127 0.0400199)
(0.20989 0.80631 0.042695)
(0.422011 1.22259 0.107271)
(0.55548 1.22845 0.130992)
(0.239799 0.827757 0.0891284)
(0.484466 0.885954 0.14376)
(0.0894718 1.32258 0.119328)
(0.289231 1.76732 0.180253)
(0.235234 1.95793 0.114624)
(0.392665 2.66451 0.149593)
(0.433245 0.996588 0.0547251)
(0.598671 1.0967 0.0796542)
(0.521346 0.803493 0.0592119)
(0.594078 0.784792 0.0689761)
(0.297636 0.55638 0.0412076)
(0.337161 0.572599 0.0427013)
(-0.761448 0.162669 0.115912)
(-0.564912 0.11283 0.0895889)