/*--------------------------------*- C++ -*----------------------------------*\
| =========                 |                                                 |
| \\      /  F ield         | OpenFOAM: The Open Source CFD Toolbox           |
|  \\    /   O peration     | Version:  2412                                  |
|   \\  /    A nd           | Website:  www.openfoam.com                      |
|    \\/     M anipulation  |                                                 |
\*---------------------------------------------------------------------------*/
FoamFile
{
    version     2.0;
    format      ascii;
    arch        "LSB;label=32;scalar=64";
    class       volScalarField;
    location    "1.6";
    object      gradTy;
}
// * * * * * * * * * * * * * * * * * * * * * * * * * * * * * * * * * * * * * //

dimensions      [0 -1 0 1 0 0 0];

internalField   nonuniform List<scalar> 
5712
(
13360.3
7342.05
23228.1
15232.6
22385.6
19066.7
32887.7
40864
50117.5
63610.3
26597.2
23404.8
16366.6
11296
10820.3
6162.65
22075.6
19697.2
20013.4
19689
25319.7
24119.6
29360.6
25105.1
7825.49
5433.07
4084.11
2822.6
11357.1
7278.39
6308.79
4090.42
22672.3
23897
20200.6
16237.2
16231.7
12784.6
13827.4
13225.1
18409
18134.3
37731.9
41604.1
26868.6
28477.7
19646.4
15469.5
19926.3
13966
8469.9
7333.48
6404.12
9777.38
3192.82
4414.81
8479.23
12998.5
5350.65
7418.13
8608.41
15526
6593.09
10978.9
2043.44
7344.53
344.991
5243.49
18658.1
22497.9
19740.1
22364
23496
23836.6
24119.6
23381.8
17729.4
21459.7
17607
21108.4
19851
22250.7
19514.6
22136.3
24397.2
23121.2
24459.6
22975.8
16687.8
21519.3
15232.4
21438.2
18585
20117.7
23399
33154.3
19492
23368
23305.4
36454
17568.7
17756.3
23245.4
31363.3
16881.1
16277.3
23199.9
30490.8
4923.05
6289.4
13469
22254.2
5867.38
6631.4
16567
24815.4
6928
7237.45
20146.6
27724.2
25624
28017.5
21916.7
20309.1
28253.4
28497.3
24901
21869.3
18677.3
32216.8
26105.4
24278.7
20610.2
21592.1
41504.9
1734.33
2289.84
4764.82
9992.06
2446.39
3428.95
6251.6
11526.1
3652.86
3527.45
8305.87
13538.6
27639.7
27297.5
23115.4
21892.6
19763.7
17357.2
14541.2
12750.8
11543.7
17351.1
24467.3
21897.1
22769.5
21172.2
19410
17767
16963.9
14853.6
13661.5
18823.8
23520.3
24975
24396.1
26726.7
23534.1
21663.8
23938.8
22883.3
21487.1
21674.9
21163.8
20964.7
24830.9
27384.9
24663.6
27135.8
24282.3
23861.1
24025.2
23701.6
21278.8
21499.4
21554.5
21665.9
18619.2
18354.8
12868.8
15384
18800.3
18083.2
13298.8
16019.4
18080.5
18069
12686.4
15349
18231.6
17858.7
12549.7
14958.3
1933.07
1545.42
1122.58
1050.25
884.301
870.855
2918.48
2006.97
1536.83
2461.2
2165.95
1842.61
3044.2
2853.46
2983.41
4448.83
3791.26
3415.75
25602.4
22304.9
20101.6
21507.4
19779.9
18444.7
14792.4
13900.2
13408.5
10665.2
9904.16
9528.21
7251.17
5203.58
4154.64
20252.8
18273.8
16917
20395.4
18598.7
17556.6
15305.4
13303.8
12231.3
11153.7
9613.18
8901.02
7559.39
5422.84
4338.59
29086.1
29996.8
31057.1
28394.2
28530.8
28362.1
34162
29261.1
18472.4
20186.6
18448.8
18098.7
24528.1
21433.6
24061.1
18917.4
26542.7
27589.9
22644.9
25295.1
29502.8
26054.5
29610.2
30799.2
31481.8
33812.9
25459.5
26149
22069.6
21774.5
25192.2
24359
16834.1
9688.02
15803
10704.3
16350.6
9495.16
15236.9
10378.4
14940.6
8785.26
14156.5
9860.54
13926.2
10237.1
13385.3
10221.8
22924.4
17936.4
22556.3
18128.7
25697.9
22856.6
25884
22566.5
20769.1
14219
21489.4
13694.4
23049.9
18235.2
23704.4
18223.4
26574.5
22481.4
27072.4
22415.3
20258.9
14429.7
20137.2
14446.6
12347.2
8593.99
10804.8
7050.97
11363.3
7695.74
10078.8
6468.56
12652.2
9103.8
11130.9
7381.97
12739.9
9433.67
11220.4
7576.45
2742.6
1493.12
5197.62
3048.71
2828.52
1707.59
5267.78
3337.23
3061.37
2252.82
5213.99
3795.82
13456.7
22645.3
8761.15
7957.79
5830.65
23133.9
14777.9
8284.27
7375.52
4587.2
22335.7
16066.4
11739.3
8617.47
5546.11
1045.89
976.685
2156.3
1971.18
1289.78
999.906
2564.23
2300.14
1801.85
1534.43
3062.21
2730.46
23362.1
21994.3
14743
13201
9201.18
8601.4
7050.13
6543.2
4234.9
3801.26
20369.9
17239.5
14718.4
12410.8
10930.9
9687.94
7764.65
7205.95
5121.52
5471.54
13962.1
10796.9
14138.4
10199.1
18004
13143.5
18342.1
12978
11423.7
8936.1
11288.4
9517.03
14645.6
9744.81
14792.5
9874.36
19291.6
13363.1
19271.6
13488.8
11516.1
8409.44
11720.2
8769.59
8186.36
7228.79
5617.39
7090.54
8286.84
7558.87
5709.37
6977.65
8157.46
7033.2
5477.96
7390.22
8580.06
7112.07
5690.72
7315
2025.28
1593.04
1234.76
7368.14
3623.61
2763.21
1886.39
1724.51
1448.35
7782.29
4246.88
3397.45
2350.38
2433.63
2405
8282.67
5270.56
4567.64
19240.8
16948.4
15437.4
12002
10915.4
10259.1
8497.83
7884.01
7567.07
7259.79
6644.93
6363.11
9632.91
6920.67
6113.34
14278
12430.7
11261.5
10575.5
9321.36
8614.31
9070.29
7891.06
7124.17
8442.08
7292.73
6686.98
12487.8
8630.03
7746.35
5283.59
3109.97
2100.68
1681.51
5878.6
3331.36
2178.24
1728.44
5138.92
3068.78
2097.67
1700.53
5838.9
3341.63
2207.19
1752.03
4880.45
3013.48
2134.22
1697.94
5680.13
3374.01
2283.41
1754.28
5940.48
3499.5
2278.35
1815.86
6095.29
3634.15
2352.07
1866.18
5177.28
3184.17
2220.04
1732.86
4312.1
2856.93
2096.8
1619.61
4547.71
2913.74
2134.81
1613.74
3921.52
2675.74
2016.63
1547.39
5552.28
3383.11
2283.7
1799.69
4559.14
3000.44
2155.06
1662.36
5767.08
3527.3
2349.27
1835.65
4704.11
3109.12
2213.37
1686.43
4085.76
2740.44
1987.22
1592.62
2863.36
2310.44
1840.81
1466.39
3974.83
2705.36
1989.55
1594.37
2851.72
2307.76
1841.42
1473.37
3806.59
2654.38
2004.58
1592.42
2923.03
2341
1851.99
1496.57
3641.96
2577.27
1981.12
1586.16
2956.77
2355.28
1891.59
1505.56
3417.57
2498.5
1914.14
1487.54
1587.41
1912.46
1501.58
468.016
160.814
1700.12
1341.77
442.609
1737.96
1970.24
1528.9
492.662
379.584
1766.63
1363.5
450.533
1982.92
2058.68
1552.77
490.035
722.838
1875.39
1388.8
453.23
2337.42
2172.16
1596.74
522.431
1140.31
2013.41
1433.91
470.619
2850.93
2328.26
1672.87
584.182
1604.81
2150.85
1478.61
484.895
3219.41
2519.26
1720.1
553.096
1608.6
2319.61
1573.78
505.661
3155.31
2434.2
1682.5
554.494
1645.01
2253.7
1522.65
492.719
3217.38
2581.67
1747.26
522.838
1530.85
2377.88
1609.03
505.683
3206.18
2656.57
1807.47
535.857
1667.46
2454.34
1658.32
517.888
1394.83
983.27
639.831
357.233
114.495
1403
985.485
640.851
357.713
114.636
1419.86
991.654
643.54
358.853
114.95
1425.17
995.368
645.609
359.861
115.251
1433.76
1000.47
647.648
360.659
115.459
1431.75
1009.27
652.832
363.21
116.224
1482.24
1029.02
663.234
368.203
117.701
1508.33
1047.22
673.57
373.273
119.211
1474.67
1020.05
657.273
365.129
116.766
1503.4
1024.34
658.055
365.293
116.793
1443.62
1010.09
652.027
362.595
116.008
1490.31
1018.23
654.868
363.755
116.331
1495.94
1031.38
663.564
368.213
117.689
1521.49
1035.26
664.134
368.278
117.688
1514.52
1050.39
674.748
373.742
119.342
1542.67
1053.61
674.994
373.678
119.31
1384.4
980.893
638.726
356.711
114.341
1394.41
980.265
638.091
356.393
114.247
1400.33
987.56
641.546
357.898
114.667
1409.39
986.346
640.592
357.429
114.53
1423.63
996.428
645.217
359.445
115.093
1439.95
995.093
644.032
358.856
114.92
1458.01
1006.39
649.348
361.224
115.588
1472.33
1003.79
647.782
360.474
115.363
1478.18
1012.97
652.323
362.56
115.972
9733.29
15139.7
10196.9
15473.5
10965.2
16017.2
11882.3
17055.6
12842.5
18867.9
11579.2
14273.5
12002.5
15474.6
11456.1
14012.4
11293.7
13932.6
7854.78
1411.06
311.71
70.352
12.4418
9357.25
2592.73
633.708
144.309
25.2972
8004.73
1387.66
300.993
67.3298
11.8419
9506.59
2597.26
626.842
140.935
24.6245
8275.59
1381.89
292.408
64.5717
11.2835
9801.32
2621.23
621.458
138.123
23.968
8592.9
1367.55
282.204
61.7323
10.758
10178.7
2649.93
618.757
136.564
23.6329
8819.47
1348.95
276.642
60.8421
10.6712
10490.7
2666.53
621.951
138.039
24.028
8390.77
1526.8
347.821
81.3526
14.7866
9426.82
2710.17
683.785
160.664
29.052
8616.83
1460.52
316.891
71.8287
12.8112
9878.25
2704.83
656.075
149.475
26.4747
8261.11
1569.14
367.833
87.8186
16.1771
9257.17
2711.88
698.995
167.497
30.7377
8180.06
1540.93
362.765
87.3235
16.1942
9165.84
2680.32
695.569
167.993
31.0025
36717
51374
45926
34469.7
19178.2
20157.8
30564.8
30711.1
20693.9
22148.8
33064.4
44183
48948.3
66612.7
24914.7
27417.4
20087.3
19619.8
13909.5
14315
4066.74
2820.75
642.521
485.415
590.917
497.561
624.434
3978.72
3973.23
2501.88
3313.17
2937.29
1329.5
1917.75
1630.97
1076.78
1231.74
1009.33
3475.43
1955.16
1182.29
1082.8
1365.06
1168.06
890.716
887.197
811.852
723.037
960.014
898.336
3601.48
2243.93
2392.53
1618.59
1330.74
1917.71
917.871
708.013
1028.74
8488.25
8673.56
8717.48
10493.6
17787
6271.94
7031.96
7514.09
8675.91
10058
1684.87
2394.42
2926.67
3286.91
3471.62
1282.45
1842.93
2272.5
2563.69
2711.53
1556.67
2226.4
2731.96
3069.73
3239.59
1314.74
1889.42
2328.79
2625
2774.54
1640.82
2338.49
2862.73
3214.42
3392.66
8715.72
9232.59
8981.12
9964.86
15931
8417.24
8629.99
8421.55
8967.97
10624.9
5730.55
6610.92
6958.85
7529.02
8192.41
7136.59
7534.43
7415.82
7628.33
8325.44
6414.75
6926.27
6836.87
6968.44
7389.76
3298.28
4316.68
4945.68
5371.03
5622.3
4529.46
5501.14
5975.95
6376.58
6710.12
3930.45
4912.01
5419.99
5764.36
5989.24
2735.71
3706.9
4352.7
4769.4
4988.21
3079.28
4072.19
4690.89
5087.65
5303.71
2581.36
3530.79
4172.5
4581.23
4789.13
7785.01
8533.16
8542
9728.81
15694.2
4669.54
5742.71
6336.6
6971.96
7535.48
2983.2
4002.69
4676.64
5136.8
5398.23
2756.92
3749.33
4429.09
4895.98
5156.09
3396.92
4462.86
5150.9
5674.63
6014.76
2962.47
4001.89
4711.23
5221.41
5514.86
2300.95
3197.14
3843.69
4290.76
4529.75
2294.4
3193.18
3837.96
4272.84
4501.08
2111.86
2963.06
3575.79
3974.87
4175
1890.89
2674.9
3251.86
3633.01
3824.96
2467.38
3401.47
4050.74
4475.76
4696.03
2321.22
3226.01
3869.38
4296.53
4518.33
7802.67
8302.17
8386.54
9902.2
16323
5196.42
6170.58
6782.63
7695.41
8638.92
5943.67
7171.34
7558.42
8633.4
9846.72
3987.77
5129.84
5860.46
6547.32
7017.99
3344.96
4445.56
5178.88
5752.28
6097.14
4667.95
5795.65
6401.41
7124.2
7611.92
2367.99
3283.79
3939.21
4387.99
4627.28
1851.13
2618.42
3185.67
3564.63
3757.61
2632.4
3606.05
4284.65
4751.51
5007.07
19862
12965.9
21031
15918.5
25315.4
36052.9
27043.3
37627
21960.9
21418
19427.3
20077.8
23044
22802.7
28456.4
24274.8
15341.5
13566.9
6861.83
5460.9
17871
14325.8
9504.56
6386.59
23040.4
25342.5
21036
18682
22056.6
14720.7
13742
13253.2
18552.3
18181.6
37761.7
41677.1
26536.1
28407.2
20178.1
15616.4
20561.8
14100.4
8966.82
7431.03
14349.3
17237.3
5799.72
7035.86
15355.6
19252.9
7789.97
9862.59
13369
19539.4
8342.89
12857.5
2343.31
8013.66
367.506
5374.34
19359.3
21211.5
19650
21688.3
22187.3
22015
23283.2
22393.9
18375.1
21210.1
19715.2
20610.3
19762.5
21910.9
19478.7
22026.2
23984.7
22624
24345.3
22816.8
16896.9
21388.9
15267.8
21393.7
19209
21202.8
23546.9
33433.8
20542.1
25364.7
23597.1
37025.2
17859.2
18256.7
23305.8
31489.3
16958.4
16412.9
23213.9
30527.6
19206.2
21900.7
25358.3
35847.8
18300.2
19744.6
26159.9
35559.9
15935.3
16439.5
26329.4
34088.8
19549.5
21278.1
20191.6
20864.5
31027.1
20866.7
18393.1
21244.2
19293.4
35414.6
21063.7
20240.2
18980.4
22058.4
42559.1
13655.2
13027.2
11422.8
14385.5
13287.5
12817.5
11658.5
14896.1
12206.3
11083.9
11530.4
14986.3
20366.6
19665.4
17803.2
16923.3
19245.1
17605.2
15322.4
13586.5
12785.7
17068.8
20238.1
18828.7
19468.2
18889.3
17951.3
16663.3
17074.7
14692.4
13752.6
17610.7
21759.1
23380.3
23410.3
25738.5
21489.9
20147.9
22841.9
22024.2
20898.8
21010.6
20159.3
19925.7
24367.1
26941.4
24526.4
27005.6
23771.9
23489
23875.6
23592.6
20987.5
21167.5
21467.7
21571.1
18372.5
17975.9
12803.8
15162.1
18495.3
17552
13282.5
15637.1
17939
17859.5
12631.8
15220.8
18182.9
17791.5
12526.8
14913.5
12558.6
13580.8
4852.26
4976.74
12230.5
12310.6
5576.09
5797.33
9852
9562.2
6099.02
5918.76
19008.1
17942.8
17284.7
16978.1
15603.3
15027
11585.3
10587.8
7719.07
5958.06
18526.9
17630.6
19472.4
18410.7
14968.2
13575.8
11328.3
10074.9
6969.87
5361.67
24293.4
24152.9
28832.8
25684.9
25882
24898.6
34054.6
27821.9
19771.1
15469.5
21251.5
16628.6
20646.5
15506.4
22127.2
16590.5
22972.6
21145.6
20079.3
19386.7
21260.4
22661.4
28289.2
30405.1
30731.8
33589
23775.7
25628.2
20920.2
21449
23418.5
23831.3
12936.4
10375.4
13987.7
10768.6
12578.3
10101.1
13637.5
10453.7
11916.4
9308.79
12864.7
9852.67
13174.7
10155.7
13158.1
10183.8
18897
16742.6
20667.8
17302.5
22549.3
20779.3
24369.4
21398.8
18837.7
13866.5
17484.6
13464.7
22129.1
17768.6
23430.1
18067.9
25832.3
21878.9
26855
22221.2
19333.3
14182.9
19868.9
14356.7
11872
8874.72
10931.1
7469.38
11115.9
8567.81
10652
7365.21
12317.8
9178.04
11133.4
7576.08
12622.7
9439.63
11216.5
7645.58
11241.8
11596.7
9617.25
9262.7
10718.7
11216.1
9276.74
8931.47
10007.7
10375.3
8434.4
8034.16
16631.1
20854.7
14628
10311.2
8137.68
20288.8
17714.7
16084.4
10436
7692.98
20259.6
16526.2
13323.5
10684.7
7365.63
13074
15348.2
9795.74
11000.6
12318.1
13915.2
9213.06
10174
10963.7
11794.3
7887.67
8124.94
19554.9
18054.7
15844.3
14658.2
14528.4
14784.1
10655.1
11192.6
7548.47
7565.39
18162.8
15464.8
14801.4
12623.8
12507.3
11507.7
10089.4
9846.71
6995.31
7661.18
13681.9
10952.4
13945.2
10343.5
16741
12484.4
17632.3
12678
11651.2
9391.32
11792
10355.3
14502.5
9801.64
14739.6
9885.64
18928.2
13226.1
19160.1
13448.6
11563.6
8581.3
11706.1
8804.3
8621.76
7836.54
6115.64
7884.86
9247.71
8768.74
6737.52
8470.56
8318.7
7285.42
5705.4
7792.38
8634.48
7192.33
5781.53
7443.17
19637.6
20553.8
23516.2
19753.8
17095.4
17896
22032.3
18612.4
13932.6
14504.6
19021.9
16346.9
16628.5
15625.4
14242.9
13872.2
15200.9
15265.6
12724.4
12300.9
17982.4
15736.3
13075.5
12493.8
11308.3
11179.2
11464.6
11264.2
11981
11485.1
18908.3
15798.9
6629.27
4013.01
2633.11
2047.53
6813.14
4086.48
2660.99
2072.53
6367.56
3911.87
2584.81
2039.4
6638.4
4002.51
2626.8
2055.28
5932.23
3764.16
2559.27
1987.17
6276.29
3904.26
2635.5
2003.31
6280.82
3833.04
2523.73
1992.92
6205.55
3748.86
2434.03
1928.11
5727.02
3616.3
2502.27
1940.19
4810.41
3237.24
2332.68
1790.02
5477.66
3546.9
2506.05
1864.44
4740.91
3249.67
2340.64
1759.01
5840.85
3632.94
2454.96
1930.72
4828.19
3215.86
2303.15
1778.67
5853.02
3611.02
2409.95
1882.29
4792.04
3179.67
2265.07
1726.42
6240.96
3865.59
2594.81
1983.42
5638.62
3639.88
2525.84
1868.98
5938.91
3771.98
2562.3
1963.67
5348.11
3563.19
2495.09
1862.27
5498.93
3628.57
2529.76
1928.93
4946.16
3445.53
2439.42
1853.09
5054.68
3418.08
2426.42
1864.56
4660.35
3332.39
2400.91
1807.11
4630.11
3248.17
2319.71
1715.82
4600.33
3343.28
2151.34
626.146
2764.13
3148.55
2000.57
615.736
4412.01
3307.02
2148.32
649.397
2711.84
3117.56
1991.3
617.672
4135.84
3230.42
2103.58
628.177
2607.16
3058.89
1952.72
604.295
4102.94
3168.83
2092.9
655.475
2724.75
3010.32
1926.14
605.904
4141.85
3103.74
2090.11
707.411
2863.11
2941.89
1885.8
601.036
3666.35
2892.77
1996.98
651.45
1900.7
2681.91
1804.86
578.397
3955.77
3002.54
2040.92
668.431
2266.21
2812.96
1841.15
587.318
3433.88
2789.88
1920.83
587.242
1636.58
2576.81
1747.67
550.673
3261.41
2722.32
1865.61
557.76
1688.67
2516.21
1703.67
532.831
1657.55
1132.5
719.02
395.05
125.623
1649.04
1129.06
717.76
394.553
125.486
1670.15
1130.29
716.635
393.7
125.201
1647.4
1123.87
714.166
392.665
124.91
1664.6
1126.58
713.773
392.143
124.718
1611.88
1112.78
707.988
389.609
123.999
1598.53
1093.59
697.883
384.859
122.615
1552.04
1072.44
687.211
379.853
121.156
1633.04
1110.03
705.141
388.037
123.515
1661.81
1114.15
705.674
388.065
123.5
1648.13
1121.75
710.513
390.452
124.202
1688.98
1121.75
708.946
389.52
123.912
1603.21
1096.04
698.489
385.009
122.644
1625.03
1099.78
699.161
385.136
122.663
1550.57
1072.28
686.71
379.524
121.053
1577.78
1076.32
687.529
379.75
121.109
1670.34
1137.22
720.558
395.626
125.778
1707.86
1141.74
721.575
395.969
125.869
1678.21
1136.56
719.016
394.669
125.469
1715.66
1141.45
720.307
395.155
125.605
1689.61
1135.04
716.748
393.344
125.049
1733.53
1140.41
718.246
393.932
125.215
1707.61
1131.52
713.731
391.75
124.556
1746.65
1135.73
715.217
392.39
124.735
1706.55
1126.75
711.22
390.546
124.2
11848.2
15898.2
11807.6
15863
11843.2
15852.1
12234.7
16480.9
12745.9
17857.6
11500.5
14090.6
11905.1
15102.6
11403.9
13914.7
11277.5
13903.8
8569.54
1491.95
323.669
72.3047
12.7136
9911.51
2714.95
656.643
148.299
25.8561
8563.23
1449.54
310.104
68.8237
12.0503
9891.7
2687.61
644.232
143.989
25.0555
8585.47
1414.86
297.259
65.3806
11.3974
9925.89
2662.11
630.258
139.754
24.2024
8674.19
1373.04
282.913
61.8595
10.776
10071
2643.53
619.066
136.744
23.6635
8736.69
1336.08
274.502
60.4694
10.615
10226.3
2630.27
616.522
137.159
23.9008
8310.16
1511.1
344.442
80.6411
14.6687
9314.72
2679.69
676.807
159.2
28.8114
8512.93
1442.16
313.36
71.1463
12.7034
9694.53
2664.97
648.264
147.997
26.2465
8211.66
1558.99
365.493
87.2972
16.0878
9194.65
2693.42
694.402
166.474
30.5629
8163.93
1537.56
361.964
87.1392
16.1621
9146.34
2674.39
694.033
167.637
30.9411
36299.2
51306.5
45792.9
33218.8
24751.9
29569.4
24529.1
29568.6
27739.9
43457.2
29976.1
47340.8
113.057
126.449
156.234
204.558
273.366
365.192
124.17
137.661
167.436
215.055
282.529
372.768
104.104
99.6604
117.531
112.953
147.848
143.237
198.68
195.578
271.715
273.698
371.004
383.491
482.239
640.989
872.947
1236.55
1602.96
1900.7
490.267
643.157
840.384
1077.94
1301.7
1452.33
302.566
443.408
556.425
635.282
675.787
338.182
495.125
620.768
708.247
753.109
417.416
610.151
763.795
870.391
924.935
545.7
795.798
993.984
1130.84
1200.67
727.69
1057.71
1317.15
1495.32
1585.99
969.098
1402.01
1738.82
1968.79
2085.65
332.139
486.418
610.046
696.193
740.393
367.969
538.318
674.459
769.108
817.594
447.043
652.823
816.519
929.909
987.87
573.225
834.931
1041.81
1184.46
1257.2
751.317
1090.47
1356.39
1538.87
1631.76
988.015
1426.98
1767.65
2000.37
2118.88
278.651
408.512
512.86
585.741
623.195
266.76
391.134
491.149
561.04
596.961
314.415
460.553
577.724
659.397
701.307
302.189
442.736
555.521
634.186
674.556
395.145
577.941
723.911
825.303
877.21
382.87
560.147
701.853
800.351
850.784
530.22
773.709
966.962
1100.53
1168.69
522.02
761.97
952.585
1084.39
1151.65
723.541
1052.23
1310.9
1488.54
1578.88
728.857
1060.05
1320.71
1499.64
1590.57
984.75
1425.09
1767.68
2001.25
2119.69
1017.73
1472.38
1825.54
2065.76
2187.29
1273.65
1829.79
2256.51
2546.67
2694.55
1679.88
2386.44
2918.21
3280.77
3468.35
2256.69
3143.3
3791.94
4245.87
4492.31
3120.06
4195.74
4951.59
5535.95
5895.45
3925.53
5075.02
5867.98
6588.28
7124.47
4548.43
5700.97
6492.44
7334.84
8041.74
1293.21
1854.73
2284.85
2578.03
2728.14
1684.62
2391.89
2924.86
3289.66
3479.41
2179.16
3050.35
3694.13
4142.7
4384.43
2758.22
3790.03
4537.19
5079.83
5391.41
3284.95
4431.33
5251.06
5882.25
6274.96
3630.46
4837.03
5696.34
6391.4
6848.53
115.071
132.636
167.266
221.451
297.283
397.199
126.27
144.087
178.695
231.838
305.484
402.155
106.023
101.525
123.514
118.8
158.704
153.929
215.813
212.737
296.831
299.317
406.852
422.774
522.029
686.482
918.988
1272.45
1624.1
1907.11
525.294
681.506
877.808
1108.63
1321.41
1459.02
307.957
451.349
566.479
646.842
688.127
354.84
519.776
652.014
744.215
791.548
447.14
654.202
819.726
934.866
993.892
591.287
863.54
1080.24
1230.51
1307.41
792.398
1154.26
1440.61
1638.47
1739.59
1056.01
1532.45
1906.59
2164.25
2295.96
337.776
494.746
620.606
708.35
753.38
385.283
563.975
707.025
806.636
857.722
477.402
697.873
873.795
996.006
1058.6
618.543
902.349
1127.75
1283.86
1363.72
813.446
1183.24
1475.13
1676.65
1779.67
1067.81
1546.79
1921.83
2180.09
2312.31
283.798
416.099
522.455
596.766
634.961
271.763
398.507
500.467
571.741
608.375
330.509
484.342
607.843
694.037
738.306
317.908
465.953
584.899
667.956
710.616
424.375
621.217
778.806
888.535
944.808
411.647
602.728
755.837
862.505
917.212
576.44
842.358
1054.33
1201.44
1276.74
568.301
830.694
1040.03
1185.38
1259.77
791.51
1153.69
1440.69
1639.07
1740.43
798.237
1163.75
1453.54
1653.88
1756.2
1082.16
1571.44
1956.11
2220.98
2356.24
1124.64
1633.4
2033.42
2308.72
2449.2
1382.31
1994.3
2469.94
2797.1
2965.09
1805.39
2579.33
3172.06
3582.08
3796
2386.3
3348.1
4068.24
4580.51
4860.41
3226.16
4372.97
5201.36
5849.83
6248.38
3992.65
5194.38
6042.87
6816.56
7389.28
4570.42
5742.4
6555.18
7419.78
8142.97
1388.81
1999.4
2472.51
2798.22
2965.99
1790.12
2553.47
3136.91
3540.82
3752.2
2283.44
3213.01
3911.22
4403.42
4669.89
2845.47
3929.73
4727.89
5313.25
5649.96
3342.31
4525.62
5382.5
6046.21
6459.03
3650.28
4870.21
5743.26
6450.77
6915.84
4055.36
2823.21
699.203
531.9
664.29
555.47
692.264
3783.85
3645.27
2497.03
2990.59
1419.58
1939.37
1187.38
1353.49
1117.62
3406
2005.05
1276.36
1172.03
1445.04
1241.94
952.497
967.788
926.593
822.408
1063.12
991.854
3572.7
2260.79
2397.55
1659.68
1389.77
1961.64
990.014
788.271
1111.25
8490.82
8717.84
8803.7
10657.3
18110.4
6291.92
7082.44
7598.51
8804.16
10224.6
1841.51
2635.92
3245.54
3666.37
3884.79
1409.38
2035.25
2522.36
2857.2
3028.79
1758.24
2534.62
3136.09
3548.31
3759.45
1472.84
2128.86
2639.86
2990.59
3169.93
1827.91
2626.13
3241.59
3664.44
3882.23
8634.25
9749.08
10127
11893.8
19384
8374.06
9561.31
10190.5
11793.2
14823.8
5941.61
7283.68
8135.42
9242.8
10342.9
7309.92
8833.92
9519.89
10732.7
12490.7
3620.21
4942.49
5893.56
6610.37
7051.5
4791.39
6219.17
7175.23
8044.53
8724.73
3076.05
4298.87
5203.96
5845.95
6203.13
3474
4788.87
5744.08
6441.68
6850.95
2909.56
4095.2
4980.32
5598.78
5933.53
7799.44
8885.67
9274.56
10936.4
17878.8
4892.18
6234.61
7132.92
8075.17
8862.13
3279.21
4528.6
5443.27
6115.89
6509.6
3024.25
4203.5
5075.05
5708.08
6069.19
3655.99
4935.69
5853.74
6588.36
7065.02
3184.49
4380.35
5251.72
5904.2
6284.45
2476.75
3478.86
4228.22
4760.43
5048.69
2524.46
3563.56
4345.14
4893.26
5187.29
2433.47
3468.73
4255.95
4797.69
5080.6
2165.93
3100.05
3815.35
4306.78
4561.35
2770.54
3905.98
4757.21
5352.92
5674.59
2590.13
3662.62
4470.75
5034.88
5336.72
7827.81
8465.26
8683.28
10400.8
17293.2
5270.52
6328.15
7031.61
8045.66
9070.73
6056.58
7491.37
8104.42
9448.82
10881.2
4122.83
5377.85
6231.27
7036.63
7581.55
3527
4762.89
5638.9
6341.65
6765.85
4852.29
6183.08
7014.77
7970.48
8611.74
2574.64
3617.79
4398.09
4950.94
5250.95
2074.23
2965.26
3647.16
4117.34
4361.86
2874.77
4009.39
4850.72
5456.73
5795.52
7550.61
7069.94
6311.55
5322.35
3928.82
1548.37
19851.3
21111.7
22487.6
23191.5
21353.6
21523.2
21597.1
22062
17438.5
20314.7
19721.8
20246.4
26300.8
18156.9
28784.2
18637.8
19962.7
21061.6
21342.7
20461.9
21639.3
20593.7
21697.5
17997.8
26910
20265.8
26134.2
27259.4
22169.1
33265.2
17286.8
18426.1
19064
18958.1
19239.7
20959.5
19111.4
20880.5
20288.4
25892.2
22758.1
25493.4
28390.2
24875.5
31855.6
15970.3
17016.2
17139.2
16819
18135
20428.3
17574.5
19921.4
18377.6
23732
20461.4
22528.9
24878.5
21859.1
28504.4
14682.8
15745.4
15631.9
15256.3
17136.2
19816.5
16096.3
18332.3
16217.2
19195.7
18308.4
17915.6
21565.8
18337.6
22749.9
13477.9
14507.7
14444.3
14063.5
15628.2
17757.4
14904.8
16791.6
13910.4
15357.4
15885
14837
18822.3
15301
19655.6
22544.7
22632.3
23536.1
24631.3
23160.9
23756.6
22500.5
23240.8
19288.6
12371
20424.7
12190.7
20518.6
16857.9
17493.1
21452.4
21855.3
21790.1
22357.3
22409.6
23106.1
21214.2
22133.9
17040.7
12295.9
17809.8
11999.8
17645.4
15801.9
16130
18683.4
19114.2
19354
19442.9
19823.4
20419.3
19299.5
20580.3
15568.6
12815.7
16448.6
12227.5
16932.5
14185.1
16501.8
15977.9
16551.5
17047.7
16846.7
17455.5
18060.5
17526.1
18905.9
13502.4
13457.8
14425.1
12669.6
15012.2
12650.7
16934
14164.7
14861.3
15357.6
15075.5
15886
17008.1
15858
17105.9
12363.2
14438.3
13645.7
14327.8
14860.8
13638.6
18695.1
12625.3
13408.5
14086.3
13770
14897.4
16468.4
14598.8
16068.3
11910.8
15362.8
13594.3
15963.5
15344.5
14212.7
20483.4
13067.1
7044.84
23210.5
15188.6
22381.2
19051.3
32882.1
40852.7
50112.8
63593.3
26603.8
23394.7
16373.2
11274.3
10456
5823.3
22070.5
19694.3
20007.6
19686.5
25316
24117.2
29355.7
25102.8
7644.44
5339.23
3956.31
2765.25
11348.1
7271.34
6309.3
4095
22667
23890.5
20197.7
16235
16227.9
12785.4
13825.7
13224.5
18407.7
18133.6
37729.8
41603
26867.1
28476.7
19646
15469.7
19925.8
13965.8
8469.86
7333.5
6293.52
9590.46
3122.18
4298.86
8483.74
13010
5360.7
7431.98
8611.12
15531.6
6597.05
10984
2044
7346.37
344.988
5244.1
18656.7
22497.2
19739.1
22363.5
23494.6
23835.8
24118.4
23381.1
17729.3
21459.6
17606.1
21108.1
19850.2
22250.3
19514.1
22136
24396.3
23120.7
24458.8
22975.3
16687.6
21519.2
15232.2
21438.2
18585.6
20119.9
23399.5
33155.4
19492.6
23370.8
23306
36455.5
17569.2
17757.6
23245.9
31364.2
16881.5
16278.2
23200.3
30491.6
4862.3
6243.51
13283.2
22090
5877.26
6642.24
16582.9
24836.2
6932.07
7241.56
20153.6
27730.5
25622.8
28016.5
21915
20309.6
28256.6
28496.3
24899.8
21867.2
18677.8
32220
26104.5
24277.8
20609.6
21593
41506.9
1708.27
2258.18
4707.42
9911.85
2456.54
3434.67
6264.53
11538.3
3656.45
3530.07
8311.4
13543.4
27638.9
27296.8
23114.5
21891.9
19762.5
17356.4
14542.2
12751.6
11546.4
17353.5
24466.6
21896.6
22768.9
21171.9
19409.7
17766.9
16964.7
14854.2
13662.7
18824.9
23519.9
24974.8
24395.8
26726.5
23533.6
21663.4
23938.4
22883
21487
21674.9
21163.7
20964.6
24830.7
27384.7
24663.4
27135.6
24282
23860.9
24024.9
23701.4
21278.8
21499.3
21554.5
21665.9
18619.4
18354.9
12869.2
15384.3
18800.6
18083.5
13299.4
16019.9
18080.6
18069.1
12686.7
15349.2
18231.8
17858.8
12549.8
14958.4
1895.02
1516.21
1103.37
1037.11
874.435
863.867
2920.99
2008.84
1539.23
2466.35
2170.2
1846.61
3045.53
2854.51
2984.4
4450.83
3792.84
3417.38
25601.9
22304.5
20101.3
21506.9
19779.6
18444.5
14791.9
13900
13408.5
10665.6
9904.45
9528.59
7252.19
5204.31
4155.33
20252.4
18273.5
16916.8
20395.2
18598.5
17556.5
15305.4
13303.8
12231.3
11154.1
9613.42
8901.28
7559.83
5423.17
4338.89
29090.7
29999
31061.1
28395.8
28528.5
28361.3
34158.8
29260.1
18325.3
20150.8
18264.1
18053.7
24550.8
21427.2
24088.5
18910.7
26548.5
27596.4
22647.4
25297.8
29502.6
26054.3
29610.7
30799.1
31481
33812.1
25461.4
26149.6
22070.5
21774.7
25193
24359.6
16816.4
9667.6
15781.9
10687.3
16347.6
9495.89
15234.1
10378.3
14939.6
8785.23
14155.8
9860.37
13926.4
10237.1
13385.6
10222
22925.2
17936.4
22556.8
18128.6
25697.5
22856.2
25883.4
22566.1
20769.7
14219.1
21489.9
13694.6
23050
18235.1
23704.2
18223.2
26574
22481
27071.8
22414.9
20259.3
14429.8
20137.4
14446.7
12347.6
8594.03
10805
7051.05
11363.8
7695.81
10079
6468.65
12652.5
9103.88
11131
7382.04
12740.2
9433.83
11220.5
7576.53
2729.8
1479.49
5182.45
3030.8
2831.13
1710.1
5269.04
3338.75
3062.26
2253.63
5214.36
3796.37
13456.6
22644.7
8761.3
7958.17
5830.88
23133.3
14777.6
8284.09
7375.69
4587.55
22335.2
16066.2
11739.3
8617.66
5546.24
1028.82
958.763
2133.48
1957.71
1291.05
1000.52
2565.51
2300.64
1802.45
1534.83
3062.75
2730.68
23361.5
21993.6
14742.6
13200.3
9200.66
8600.62
7050.05
6542.95
4235.19
3801.38
20369.4
17239.1
14718.2
12410.4
10930.7
9687.71
7764.74
7205.93
5121.66
5471.55
13961.9
10796.7
14138.3
10199
18003.7
13143.3
18341.8
12977.9
11423.7
8936.06
11288.4
9516.96
14645.4
9744.72
14792.3
9874.26
19291.4
13363
19271.3
13488.6
11516.1
8409.4
11720.2
8769.54
8186.42
7228.79
5617.43
7090.57
8286.92
7558.88
5709.45
6977.72
8157.49
7033.19
5477.99
7390.23
8580.07
7112.05
5690.74
7315.01
1996.76
1569.12
1215.89
7323.67
3591.91
2735.26
1885.64
1724.33
1448.83
7787.8
4251.49
3401.4
2350.74
2433.92
2405.22
8284.64
5272.31
4569.31
19240.2
16947.9
15436.9
12001.3
10914.7
10258.6
8496.89
7883.18
7566.41
7259.45
6644.53
6362.76
9633.91
6921.64
6114.34
14277.7
12430.4
11261.2
10575.2
9321.06
8614.03
9070.05
7890.82
7123.96
8442.06
7292.67
6686.93
12488.3
8630.58
7747.01
5282.65
3111
2100.79
1680.82
5876.46
3331.59
2178.06
1727.11
5137.41
3068.43
2097.56
1700.37
5837.85
3341.56
2207.19
1751.98
4879.82
3013.29
2134.14
1697.86
5679.65
3373.91
2283.38
1754.22
5940.26
3499.44
2278.32
1815.83
6095.26
3634.14
2352.08
1866.17
5177.1
3184.11
2220.02
1732.82
4312.07
2856.92
2096.79
1619.59
4547.49
2913.66
2134.77
1613.7
3921.48
2675.73
2016.62
1547.37
5552.21
3383.08
2283.69
1799.67
4559.13
3000.44
2155.06
1662.35
5767.09
3527.31
2349.29
1835.64
4704.15
3109.15
2213.39
1686.44
4084.61
2741.45
1987.6
1592.28
2858.97
2309.89
1840.93
1465.91
3973.4
2705.03
1989.41
1594.2
2850.86
2307.68
1841.26
1473.28
3806.05
2654.22
2004.5
1592.34
2922.87
2341.02
1851.96
1496.54
3641.83
2577.24
1981.1
1586.13
2956.78
2355.32
1891.6
1505.55
3417.57
2498.51
1914.14
1487.53
1582.24
1911.93
1502.12
468.259
155.927
1698.62
1341.46
442.478
1738.85
1970.83
1529.06
492.802
381.123
1767.31
1363.81
450.647
1983.33
2058.94
1552.86
490.095
723.587
1875.75
1388.98
453.291
2337.64
2172.29
1596.79
522.457
1140.72
2013.6
1434
470.65
2851.04
2328.32
1672.9
584.195
1605.02
2150.94
1478.65
484.909
3219.43
2519.27
1720.1
553.095
1608.63
2319.62
1573.79
505.664
3155.34
2434.22
1682.5
554.496
1645.08
2253.74
1522.67
492.724
3217.39
2581.68
1747.26
522.838
1530.86
2377.89
1609.04
505.685
3206.21
2656.6
1807.49
535.862
1667.46
2454.36
1658.34
517.894
1393.83
982.82
639.634
357.148
114.47
1401.55
984.944
640.606
357.604
114.604
1419.77
991.615
643.527
358.85
114.95
1425.14
995.339
645.6
359.862
115.253
1433.71
1000.44
647.643
360.661
115.461
1431.71
1009.25
652.826
363.212
116.226
1482.21
1029
663.228
368.204
117.702
1508.31
1047.21
673.565
373.273
119.211
1474.63
1020.03
657.267
365.129
116.767
1503.37
1024.32
658.048
365.292
116.793
1443.58
1010.07
652.021
362.596
116.009
1490.28
1018.21
654.861
363.755
116.332
1495.92
1031.37
663.558
368.213
117.69
1521.47
1035.25
664.128
368.278
117.688
1514.5
1050.38
674.744
373.741
119.342
1542.65
1053.6
674.99
373.678
119.31
1383.66
980.509
638.563
356.643
114.321
1393.71
979.914
637.941
356.333
114.232
1400.25
987.519
641.53
357.895
114.668
1409.33
986.298
640.567
357.423
114.532
1423.57
996.401
645.209
359.446
115.095
1439.89
995.061
644.018
358.855
114.922
1457.96
1006.37
649.34
361.224
115.589
1472.28
1003.76
647.772
360.474
115.365
1478.13
1012.95
652.316
362.56
115.973
9698.6
15100.1
10198
15476.6
10966.3
16018.8
11883
17056.4
12843
18868.5
11579.5
14273.7
12002.8
15475
11456.3
14012.6
11293.8
13932.8
7844.26
1404.44
310.081
69.984
12.3776
9343.77
2588.08
632.533
144.035
25.2495
8002.28
1385.33
300.214
67.1214
11.8018
9504.45
2594.72
625.847
140.647
24.5664
8274.35
1381.07
292.082
64.473
11.2631
9800.5
2620.02
620.911
137.949
23.9311
8592.41
1367.25
282.067
61.6857
10.7477
10178.5
2649.41
618.49
136.471
23.6121
8819.36
1348.85
276.587
60.8213
10.6663