/*--------------------------------*- C++ -*----------------------------------*\
| =========                 |                                                 |
| \\      /  F ield         | OpenFOAM: The Open Source CFD Toolbox           |
|  \\    /   O peration     | Version:  2412                                  |
|   \\  /    A nd           | Website:  www.openfoam.com                      |
|    \\/     M anipulation  |                                                 |
\*---------------------------------------------------------------------------*/
FoamFile
{
    version     2.0;
    format      ascii;
    arch        "LSB;label=32;scalar=64";
    class       volScalarField;
    location    "1.6";
    object      gradTz;
}
// * * * * * * * * * * * * * * * * * * * * * * * * * * * * * * * * * * * * * //

dimensions      [0 -1 0 1 0 0 0];

internalField   nonuniform List<scalar> 
5712
(
7671.67
23282.3
5828.73
25443.8
3188.82
26899.4
5411.87
42467.3
8828.59
53294.2
9067.46
37897.7
9691.07
33721.6
9559.87
29006.6
4483.1
2480.06
13541.2
6464.26
4177.85
1937.54
14541.7
5877.9
5892.35
4385.57
17376.4
12803
3951.17
3147
17472.6
13330.3
8900.67
3252.87
6818.54
2518.35
3133.9
8316.18
41666.7
12709.6
12554
5755.86
50409.8
15762.8
11638.6
5409.41
27718.6
9228.6
14155
6428.63
22675.6
7196.35
5609.15
3031.44
9462.89
3856.24
5058.64
3157.26
9920.35
3778.38
6705.54
4249.69
6275.18
2667.45
10963.4
3984.62
4302.44
1598.83
13585.7
10365.6
8157.83
7399.84
14827.7
13047.3
8006.33
8559.3
7686.49
6716.4
10247.8
8892.26
6006.83
5216.75
3432.18
2969.11
5883.24
5880.55
3301.71
3315.46
5825.16
4651.93
3354.59
2404.83
6670.11
3770.95
6791.99
7399.23
9045.77
6864.32
9851.74
12778.4
4796.06
2071.84
4315.02
4405.48
2679.62
947.977
1960.97
1686.2
6640.56
13233.8
4778.31
14929.3
7187.81
13357.5
5683.52
15833.1
9340.08
13158.2
7821.01
16008.6
9907.5
11444.1
8022.06
8133.05
9695.81
7556.95
8692.44
12197.5
14394.2
20916.7
10268.8
8645.55
8475.24
10725.1
16764.9
16519.6
16044.7
19298.1
19541.4
16060.7
16116.4
19296.8
19304.9
14702.8
15300
18407.7
18683.7
9506.06
10126.8
9670.09
10274.4
11836.7
12023.4
14003.1
13796.3
17817.6
18171.5
8641.11
9579.06
10012
10936.6
11383.9
12582.9
13277.7
14845.6
17551.5
19377.4
10143.7
6939.57
8181.26
8157.66
11153.9
12519.7
9053.24
11812.3
7641.65
7678.87
9762.37
7041.63
3521.94
5871.63
1414.32
2172.27
5596.25
8719.35
2154.39
3235.62
3040.46
5237.72
1130.13
1905.78
7363.04
6259.14
7591.51
4804.18
10410.2
7483.2
11925.8
8062.53
3504.45
3982.64
4331.23
2502.56
2632.58
2828.91
2919.53
2211.8
14030.7
9287.41
3065.09
15192.4
9615.67
3334.92
13772.3
9066.31
3114.71
15112.2
9572.5
3261.8
13084.3
8491.02
2856.23
14771.7
9395.59
3241.58
7368.21
4296.15
1166.88
9018.05
6178.4
2018.95
10551.5
7423.28
2512.63
11801.6
7746.53
2556.92
14218.8
9032.56
3196.71
8014.77
4475.44
1492.56
8201.64
5372.03
1894.33
9400.12
6251.44
2169.72
11187.6
7230.29
2493.93
13516.6
7985.56
2787.79
-512.377
986.375
421.581
2648.85
1856.45
1857.2
4769.61
4154.37
606.964
959.007
642.91
1005.66
338.328
927.055
621.8
1359.19
1842.57
1120.68
3786.34
2700.66
1711.67
2791.95
2936.02
715.974
6079.48
1847.51
-4385
-817.488
549.11
551.254
-137.813
-26.9302
10152.8
4288.82
2681.57
1534.39
9991.94
4335.74
2918.9
1808.97
9611.34
4703.47
3874.93
2642.28
2970.1
1858.93
1558.99
1382.8
13256.9
11559.2
5765.17
7376.79
15196.1
14176.5
7375.85
8834.99
5110.54
6171.33
11020.9
9026.95
3622.17
4775.67
2018.52
2721.01
4890.99
5718.7
2756.85
3215.73
2842.89
4036.59
1524.03
2411.02
4456.54
3034.4
5030.17
3217.25
7748.8
4389.51
6787.94
4224.99
2591.51
2052.89
3467.69
2193.34
1385.83
1257.34
2166.96
1343.85
11702.6
7469.27
5508.94
5513
11593.8
7460.93
5421.97
5394.04
11703.7
7201.74
5484.85
5007.18
13348.3
13200.1
12181.6
9147.93
5006.55
8015.14
9383.32
9637.46
8789.24
5821.52
11433.9
9979.46
8054.31
6311.09
3886.91
6081.06
5778.4
5923.06
6905.78
6098.63
5650.68
5803.66
6786.13
5897.24
5446.21
5542.76
6537.72
8994.79
8522.31
8096.4
6923.56
5826.49
5751.85
5394.46
5498.09
4850.08
6204.98
6649.9
7535.38
5388.46
6095.24
4596.28
5201.43
4286.68
5050.76
3645.91
5705.8
4803.29
3858.37
3292.52
1837.25
7542.53
5724.62
6083.92
3900.76
2393.93
1398.43
3546.76
3181.71
4205.41
1874.06
1914.87
1059.05
5607.39
3247.44
2258.84
1559.31
3310.13
1415.85
1653.56
824.621
1878.72
2210.12
2210.46
3692.33
2853.57
3423.99
2632.25
4765.13
2316.61
1629.01
1637.68
2671.01
1001.73
371.858
282.669
620.977
4495.33
2069.43
598.836
4720.49
1269.78
338.513
4439.45
2190.37
687.195
4717.13
1318.62
369.44
4152.37
2078.52
546.542
4530.79
1240.5
287.367
5819.35
3239.21
878.206
4656.09
2550.92
725.915
4308.21
2214.76
645.27
4007.36
1940.74
469.625
4344.73
1118.32
201.842
6401.4
3416.46
1079.74
5292.56
2906.85
963.599
4555.41
2420.81
799.488
4140.48
1760.23
493.099
4586.37
1182.01
382.51
1598.68
598.66
296.336
43.4672
648.555
254.954
135.019
34.919
1644.66
637.166
347.819
90.0378
778.018
336.536
217.506
99.7031
1871.9
755.075
448.358
154.588
1316.44
648.578
349.314
154.28
951.089
562.91
235.934
68.8412
971.6
626.669
328.842
168.309
1536.35
706.273
360.381
55.0094
1448.51
647.665
386.221
3.61244
1943.95
800.459
484.555
128.938
1726.72
702.209
453.306
-7.85436
1151.23
601.626
294.905
48.6281
1115.76
559.143
334.049
63.4203
840.545
508.711
296.186
159.564
767.498
454.387
294.538
156.561
2027.29
731.12
375.134
-3.13779
2081.89
710.182
432.792
-111.673
2015.07
739.021
404.081
18.5355
1997.21
684.759
430.711
-103.165
2019.7
755.786
465.056
57.8447
1788.75
618.624
425.193
-63.1595
1872.27
723.379
500.275
151.111
1970.91
696.563
539.163
-48.0869
1443.62
558.676
393.026
64.1996
1690.16
518.956
329.408
-113.394
657.186
183.98
101.748
-21.3249
1674.34
526.552
335.587
-98.6961
672.513
193.946
110.735
-11.7769
1582.14
513.14
344.136
-70.8977
653.161
196.231
121.03
1.50351
1337.93
439.5
328.132
-38.8216
578.162
173.815
128.413
18.4724
1174.9
408.714
311.203
4.68908
526.085
175.477
138.944
40.92
905.822
383.129
231.65
26.0118
479.621
234.137
136.57
66.7405
970.329
355.495
252.947
14.9358
479.511
193.234
135.568
56.6161
795.942
400.08
231.818
57.4696
476.01
268.718
148.961
85.5287
612.491
375.269
235.18
130.797
433.107
282.381
173.29
119.577
16.6366
8.15693
4.36918
2.48607
1.70046
8.35511
4.10564
2.20988
1.26987
0.878529
29.7209
15.6886
8.48252
4.82378
3.28844
27.2002
14.8269
7.97034
4.50913
3.06705
61.8318
34.5517
18.8261
10.7643
7.36533
113.75
62.5708
34.012
19.3811
13.2197
114.813
65.3319
36.1074
20.748
14.229
120.954
67.7493
37.2327
21.3642
14.6703
78.5132
45.4446
25.2704
14.5604
9.9447
61.222
35.6795
19.9202
11.5313
7.89643
82.3838
45.7945
24.9964
14.3527
9.82081
61.82
32.2514
17.4055
9.98838
6.80884
85.7053
52.5493
29.6823
17.2063
11.8208
81.0306
48.3662
27.1486
15.7246
10.7961
107.936
61.8299
34.1502
19.6274
13.4747
103.268
59.5369
32.9588
18.9542
12.9942
11.7096
6.72549
3.66449
2.09153
1.43329
3.27624
2.5785
1.45233
0.845086
0.590539
19.271
10.8165
5.91263
3.38449
2.32832
4.73188
3.49001
1.96894
1.14368
0.802612
26.4991
15.9743
8.83301
5.10188
3.53791
14.3347
8.25039
4.39532
2.47084
1.70895
69.6206
38.1527
20.5641
11.8187
8.14919
34.9223
18.9949
10.1191
5.78251
3.99628
84.0276
41.5039
21.8303
12.3823
8.43997
2825.88
4910.17
2678.56
4771.9
2515.45
4451.69
2469.79
4291.69
2666.54
4848.7
1590.01
2243.44
2164.5
3353.44
1068
1353.94
430.199
549.285
8345.2
2016.93
464.387
103.309
26.0042
2231.26
593.412
159.324
35.8257
8.03329
8256.48
1968.08
449.884
99.3698
24.9
2307.44
672.69
165.865
38.5942
9.71159
7919.35
1855.79
419.737
92.0197
22.9336
2240.4
650.059
158.989
36.61
9.12458
7369.44
1693.23
379.56
82.9146
20.6526
2150.27
609.25
146.011
33.0819
8.13082
6399.84
1448.37
324.391
71.1449
17.8427
1988.45
537.898
126.029
28.2025
6.86981
3541.73
856.312
198.736
44.6257
11.3942
1018.77
259.665
56.8543
11.824
2.72081
4971.92
1168.13
266.178
59.0126
14.9403
1412.87
369.603
84.8277
18.7499
4.54337
2213.21
548.913
129.292
29.3281
7.53396
655.38
171.216
37.0367
7.38043
1.63024
815.739
204.886
48.6911
11.1313
2.87722
318.265
76.7126
15.85
4.23829
0.656155
-1452.78
547.943
4328.06
-3755.39
1000.5
1067.37
2681.78
3274.8
2228.21
3594
2983.2
4506.33
2865.59
3739.82
1368.13
1991.36
1480.3
1724.4
1030.19
1067.53
2897.81
2239.72
-207.161
-742.516
-813.584
-1097.99
-511.839
12400.1
3542.63
4361.68
3557.29
488.743
140.58
3429.29
-786.469
-256.937
-637.196
-200.683
6104.3
3241.16
1605.38
898.127
3360.33
1647.24
324.604
530.88
-916.044
-869.115
972.082
855.601
9435.02
4590.42
4626.39
2660.28
3432.91
3360.53
169.535
-842.962
470.64
2004.55
1735.37
1489.53
1347.7
988.88
1778.14
1423.38
1138.32
826.406
322.63
-188.221
-158.142
-116.241
-69.099
-22.65
-661.783
-551.778
-412.718
-254.757
-86.0599
-725.802
-605.437
-452.416
-278.716
-94.0674
-980.076
-818.405
-612.589
-378.094
-127.738
-452.081
-372.003
-273.087
-165.306
-55.2529
9076.87
8130.39
6763.65
6100.07
5446.05
3173.1
2519.65
2199.46
1777.95
780.048
3524.88
2769.94
2257.38
1727.38
771.679
2735.24
2104.17
1688.84
1229.83
457.881
401.292
280.765
262.081
199.676
97.8258
178.862
198.289
187.204
138.641
51.4998
2828.75
2236.87
1709.06
1160.11
433.398
-477.797
-238.592
-110.743
-45.0683
-14.3448
-199.411
-134.273
-72.521
-27.775
-5.37669
-450.681
-281.721
-158.665
-77.2818
-23.3561
-191.258
-165.096
-121.259
-70.6512
-22.3654
4156.79
3985.56
3384.43
3221.04
3095.67
2653.25
2064.22
1676.8
1244.6
478.362
1439.65
1225.79
972.411
653.219
234.437
782.379
648.703
505.622
336.071
119.724
2801.87
2218.55
1669.62
1093.41
392.305
1461.68
1214.08
932.506
598.46
197.848
278.865
229.397
180.351
121.517
42.9299
472.98
399.006
310.573
202.124
69.9906
-793.373
-639.583
-462.192
-277.255
-92.2276
-765.332
-627.567
-459.239
-277.222
-92.4264
852.548
708.203
542.817
350.877
123.062
749.945
622.2
476.493
307.435
107.3
6192.96
4919.55
4248.01
3969.82
3173
3569.19
2798.19
2209.03
1602.58
652.198
3634.74
3017.22
2485.07
1987.7
822.981
2113.74
1724.54
1362.54
969.148
422.092
2928.63
2367.32
1792.95
1161.68
406.076
2789.02
1999.45
1594.83
1144.58
228.825
149.744
128.802
109.089
78.4945
28.1738
-748.611
-619.664
-457.325
-277.777
-92.9324
423.432
361.419
291.106
196.831
67.7911
-30579.4
-47682.2
-23177
-40507.7
-24545.3
-56678.2
-32252.2
-68933.7
-17357.9
-11708.8
-19193.4
-10397
-16148
-10652.2
-19304.9
-9245.11
-25283.4
-17853.4
-34895.2
-25250.6
-19936.6
-14664.7
-30026
-22564.7
-15247.6
-15577
-10719.9
-10437.5
-13072
-13728.8
-45381.5
-13947.7
-14577.8
-6945.74
-53250.4
-16928.3
-13222.1
-6398.39
-31837.9
-10487.7
-16190.5
-7559.37
-26812.2
-8167.27
-12201
-5198.83
-16651.7
-6271.53
-10635.7
-4764.33
-15393.9
-5505.47
-11083.3
-5376.92
-9428.22
-3616.1
-13264.8
-4726.04
-5188.95
-1925.47
-10973.3
-7997.37
-8946.63
-6722.7
-9474.06
-8120.82
-7926.3
-6952.28
-8965.51
-6623.35
-10408.5
-8261.2
-6701.01
-4954.52
-3964.28
-2832.59
-6053.88
-5095.9
-3478.25
-2798.42
-6765.25
-4696.14
-4030.21
-2482.9
-8016.72
-4252.66
-6904.71
-7388.14
-10452
-7345.97
-9823.71
-12591.2
-5687.97
-2396.85
-4446.01
-4440.18
-3290.62
-1179.32
-2087.54
-1730.39
-10762.2
-13751.2
-6179.6
-15588.7
-10678.1
-13413.8
-6761.98
-16126.4
-11826.8
-12951.9
-8417.93
-15793.2
-6635.97
-4125
-8521.25
-9902.86
-10161.5
-5993.25
-8380.95
-12566.5
-14453.8
-20499
-5461.61
-6284.98
-7662.7
-10391.2
-16357.7
-14551.3
-11970.5
-18136.4
-15048.6
-14119.2
-12270.2
-18150.6
-15165.5
-12906.7
-11437
-17152.8
-15059.8
-8682.4
-8115.72
-8806.13
-7954.54
-10144.6
-9060.48
-11730.1
-10415.6
-16439.3
-15100.8
-7137.17
-7808.65
-8061.52
-7941.37
-9320.7
-9155.07
-11373.6
-11365.8
-16323.7
-16111.7
-8472.56
-5772.4
-7113.44
-7185.75
-8772.1
-10868.7
-7418.82
-10327.6
-7026.98
-7025
-8722.06
-6159
-2812.55
-5149.05
-827.378
-1586.14
-4442.99
-7655.53
-1235.11
-2391.32
-2636.43
-4762.81
-783.943
-1513.35
-7020.69
-5835.71
-7367.58
-4525.42
-9753.88
-6784.84
-11488.4
-7449.85
-3275.23
-3688.95
-4169.45
-2317.12
-2418.84
-2571.19
-2774
-2045.06
-8723.94
-3367.61
-9370.09
-3261.93
-8929.45
-3351.74
-9826.66
-3621.57
-8568.66
-3161.64
-10611
-4190.77
-4607.54
-1118.56
-5562.62
-1998.75
-6501.3
-2532.72
-7895.11
-2988.92
-10572.6
-4101.06
-5544.26
-963.098
-4955.95
-1686.08
-5760.53
-2131.22
-7468.07
-2770.92
-9629.04
-3171.06
-6544.49
-6333.64
-4335.84
-4138.84
-10481.5
-8319.95
-8170.21
-6445.59
-5528.3
-5028.75
-2138.45
-1727.32
-5185.06
-4945.51
-1854.46
-1738.16
-2671.99
-5883.23
-3897.77
-7105.71
-4817.97
-2178.99
-3348.56
-865.676
-7017.39
-2488.04
4015.99
1116.97
-302.663
-130.299
926.551
1095.83
-2601.39
-1320.19
-1043.54
-387.269
-2615.02
-1473.16
-1160.08
-387.293
-2876.16
-1762.88
-1327.63
-263.878
-1193.42
208.938
164.44
861.706
-5270.23
-5168.87
-3919.35
-4418.01
-7705.32
-7427.47
-6290.66
-6273.12
-2604.17
-3259.18
-4147.44
-3929.85
-2687.45
-3006.81
-1317.43
-1358.65
-4482
-4344.86
-2510.36
-2237.63
-1374.83
-2081.64
-363.509
-795.042
-1627.06
-899.199
-2497.03
-1347.09
-2671.34
-1817.54
-3048.01
-2029.35
-708.314
-216.581
-1559.79
-548.206
172.425
465.881
-472.831
212.884
-2854.98
-2780.34
-2264.43
-3515.16
-2952.53
-2949.53
-2386.54
-3606.54
-3507.18
-3093.86
-2709.39
-3543.42
-2355.92
-2885.64
-2832.9
-2644.94
-2244.52
-4630.53
-3634.34
-3271.04
-3862.1
-3874.77
-4761.92
-3560.59
-2922.9
-2591.35
-1830.14
-3653.11
-4577.56
-6057.4
-10470.6
-3511.01
-3882.32
-5674.87
-9709.9
-3598.48
-4320.56
-5207.63
-8662.66
-7791.08
-6706.53
-6116.16
-5318.73
-4143.73
-4518.77
-4175.77
-4998.6
-4466.66
-7737.35
-5275.7
-6083.59
-3749.56
-4784.77
-2962.46
-4098.87
-3002.8
-4426.5
-2551.59
-6060.38
-2373.53
-2504.06
-1344.25
-418.291
-4902.26
-4287.12
-4127.09
-2449.84
-616.454
-111.761
-1535.85
-2023.38
-2618.1
-723.406
-552.865
-59.6302
-4105.33
-2081.53
-1047.41
-576.131
-1791.5
-372.74
-265.586
117.295
-450.448
-1272.84
-1197.7
-3266.12
-1355.38
-2675.12
-1740.18
-4727.05
-1006.16
-785.138
-503.651
-2060.64
302.696
476.054
878.558
85.1491
-3829.92
-1261.48
-7629.14
-1039.51
-3317.43
-1394.74
-7188.04
-1028.59
-3008.9
-904.969
-5911.51
-480.731
-3655.39
-818.09
-3081.93
-745.433
-3330.58
-1003.36
-2991
-495.011
-5307.05
-415.612
-4407.77
-599.836
-3776.55
-581.465
-3625.97
-712.435
-3528.53
-351.841
-5316.21
-526.808
-599.685
-192.365
-102.924
79.7951
-189.114
-54.4677
-38.3144
18.1232
-580.451
-163.577
-104.652
72.9332
-84.7005
12.3889
-25.6862
18.5868
-629.685
-145.514
-98.2985
116.932
138.26
192.691
211.887
269.577
576.991
404.548
408.965
370.127
845.49
573.747
448.315
301.165
-270.062
37.4955
127.123
302.779
-252.018
76.9157
68.6924
330.966
-715.219
-145.433
-78.7769
222.735
-552.861
-49.097
-71.8112
328.144
143.077
223.237
247.767
323.102
64.551
206.071
173.266
298.734
495.294
379.655
308.575
249.274
403.771
332.51
244.263
229.99
-969.17
-311.99
-194.788
150.024
-1307.29
-374.772
-332.92
266.649
-946.053
-287.55
-201.631
147.086
-1270.11
-356.234
-328.212
258.288
-943.482
-259.115
-234.894
131.968
-1149.73
-311.459
-319.927
221.624
-647.055
-112.001
-174.969
153.789
-1080.8
-247.904
-353.317
279.819
-470.753
-47.9056
-85.7353
279.97
-1278.5
-289.303
-272.006
234.523
-558.718
-106.301
-75.3567
60.7758
-1145.27
-248.967
-255.555
225.839
-516.794
-94.0661
-73.4892
57.3654
-931.118
-176.465
-237.259
198.405
-431.193
-67.4736
-68.1574
53.5723
-729.17
-119.934
-211.149
166.061
-364.726
-52.0009
-69.2048
45.6164
-485.242
-48.4161
-138.349
162.427
-200.705
-4.1757
-42.5551
50.4833
-175.212
73.7232
66.3606
230.68
126.547
141.96
103.063
127.672
-405.968
-31.4349
-55.2019
183.423
-19.0072
65.6137
23.7032
82.2294
97.9885
197.268
159.753
246.762
228.606
210.016
162.319
156.009
355.963
299.341
207.41
200.253
320.642
258.22
179.103
148.185
25.8837
9.77511
4.45265
2.38128
1.60267
11.3299
4.56244
2.12461
1.13397
0.755051
39.5358
16.9784
8.37148
4.63008
3.16022
31.4944
14.9186
7.77377
4.39417
3.02058
77.3224
35.0136
17.8646
9.96869
6.80929
120.344
61.5617
32.6538
18.5
12.7213
126.815
65.987
35.0263
19.7871
13.5521
127.105
68.0995
36.7949
20.9507
14.3668
101.01
47.6896
24.5236
13.7143
9.42115
83.5264
37.6249
19.1123
10.619
7.27724
97.8764
44.7976
22.9987
12.817
8.76745
63.9204
30.0841
15.56
8.66786
5.95653
116.064
56.484
29.3042
16.4081
11.2268
105.147
51.1483
26.6026
14.9113
10.2248
118.296
62.8236
33.8264
19.2275
13.1773
114.436
60.8776
32.7276
18.5836
12.7424
27.9278
8.69707
3.74999
1.97247
1.31959
13.1417
3.3861
1.37146
0.696792
0.452667
33.7023
12.3089
5.74427
3.10889
2.09158
14.6497
4.26354
1.85296
0.972198
0.634863
44.6059
16.9486
8.14025
4.42411
2.96105
21.0566
8.40087
4.23383
2.3783
1.5994
79.8359
34.8493
17.7687
9.81451
6.63329
37.9794
16.7318
8.64407
4.80273
3.23447
71.3439
36.1135
19.1598
10.7878
7.40125
-3078.77
-4677.5
-2946.1
-4583.84
-2728.54
-4276.42
-2593.97
-4086.64
-2607.84
-4451.02
-1495.68
-2099.8
-2079.72
-3129.08
-954.172
-1235
-307.567
-437.092
-8748.11
-2089.35
-476.948
-105.4
-26.3788
-2311.75
-613.525
-163.881
-36.6175
-8.15602
-8579.35
-2025.88
-459.956
-101.048
-25.1997
-2398.32
-696.327
-170.509
-39.4248
-9.8649
-8097.82
-1888.62
-425.606
-93.0086
-23.108
-2320.58
-669.493
-162.726
-37.2675
-9.24448
-7404.64
-1701
-381.137
-83.1865
-20.6948
-2194.62
-620.303
-148.178
-33.4632
-8.19978
-6342.52
-1439.82
-323.029
-70.9006
-17.7855
-1984.4
-539.536
-126.52
-28.2959
-6.88568
-3488.05
-844.974
-196.45
-44.1761
-11.2938
-981.517
-252.502
-55.5444
-11.5834
-2.67025
-4900.51
-1154.71
-263.696
-58.5488
-14.839
-1382.55
-365.384
-84.2049
-18.6451
-4.52173
-2174.3
-540.159
-127.407
-28.9387
-7.44383
-615.548
-162.032
-35.1034
-6.99179
-1.543
-784.898
-197.706
-47.0675
-10.7828
-2.79383
-277.528
-66.5549
-13.5435
-3.7487
-0.542371
524.244
-1769.31
-5878.24
1647.89
-6962.87
-3069.03
-6829.25
-3134.66
-11677.7
-6367.17
-13664.7
-7461.14
-105.053
-398.812
-617.08
-714.35
-625.396
-310.03
-167.687
-615.283
-935.742
-1044.45
-857.265
-302.037
-81.7526
-78.3665
-286.195
-266.684
-366.974
-353.955
-253.224
-266.615
-154.291
-197.915
-270.017
-217.084
498.074
1699.32
3316.26
2651.66
2403.13
1139.73
706.383
2087.13
3497.64
3892.62
3325.33
1512.13
-94.659
-79.9325
-60.5016
-37.6655
-12.7826
-359.822
-304.354
-230.784
-143.889
-48.8717
-556.65
-470.727
-356.865
-222.47
-75.5598
-644.042
-544.289
-412.381
-256.959
-87.2518
-563.551
-475.939
-360.299
-224.334
-76.1365
-280.3
-237.339
-179.748
-111.732
-37.8469
-150.992
-127.397
-96.3536
-59.9524
-20.3409
-554.76
-468.87
-355.271
-221.39
-75.1763
-843.385
-712.514
-539.707
-336.266
-114.181
-940.56
-793.876
-600.866
-374.194
-127.035
-771.219
-650.238
-491.701
-306.042
-103.876
-272.611
-230.512
-174.562
-108.632
-36.8467
-73.7175
-62.3106
-47.2106
-29.4132
-9.98522
-70.7119
-59.8162
-45.3569
-28.2767
-9.60314
-258.331
-218.636
-165.88
-103.464
-35.1465
-240.782
-203.84
-154.697
-96.51
-32.7882
-331.176
-280.224
-212.559
-132.556
-45.0241
-319.438
-270.289
-205.023
-127.858
-43.4298
-228.572
-193.465
-146.774
-91.5274
-31.0825
-240.464
-203.323
-154.114
-96.0513
-32.6133
-139.317
-117.915
-89.3679
-55.6343
-18.8654
-178.143
-150.258
-113.594
-70.6426
-23.9552
-243.058
-204.83
-154.456
-95.7146
-32.3688
-195.018
-164.033
-123.58
-76.6009
-25.9242
441.119
366.837
275.668
171.933
58.6041
1499.27
1242.99
933.588
583.428
199.262
2890.48
2376.72
1788.72
1130.56
390.224
2296.5
1906.79
1452.69
935.533
338.268
2092.78
1739.03
1325.04
848.889
295.528
1022.51
865.447
664.558
422.606
144.187
627.06
522.199
392.149
243.987
82.9876
1847.28
1535.1
1152.75
718.631
244.937
3076.86
2546.46
1913.05
1198.29
410.566
3408.81
2818.03
2122.54
1337.94
462.575
2907.17
2402.58
1813.81
1147.75
396.944
1334.37
1112.99
846.699
537.96
186.048
214.624
509.514
728.998
826.425
736.877
437.392
322.364
769.681
1085.65
1179.38
964.163
376.662
163.285
143.035
365.005
330.481
436.705
412.041
302.532
306.357
198.846
191.171
391.541
252.042
-348.61
-1487.62
-2937.51
-2157.6
-1803.72
-476.099
-651.731
-2002.18
-3296.41
-3527.22
-2785.41
-858.395
194.008
164.49
125.037
78.1137
26.5601
460.281
389.914
296.131
184.875
62.841
658.282
557.384
423.132
264.073
89.7454
745.973
631.363
479.1
298.918
101.573
665.154
562.949
427.148
266.469
90.5368
396.481
336.932
256.349
160.063
54.3781
291.302
246.874
187.586
117.156
39.8298
694.927
588.314
446.553
278.67
94.704
979.597
828.739
628.654
392.146
133.242
1063.34
898.846
681.366
424.854
144.333
868.679
733.742
555.89
346.519
117.713
340.654
288.801
219.358
136.876
46.5028
147.629
125.196
95.1872
59.4737
20.223
129.326
109.676
83.3884
52.1013
17.7157
329.819
279.499
212.347
132.597
45.0729
298.648
253.104
192.307
120.089
40.8224
394.479
334.18
253.804
158.441
53.8485
372.182
315.261
239.412
149.447
50.7906
273.392
231.731
176.077
109.945
37.3662
276.624
234.232
177.813
110.963
37.7039
180.036
152.912
116.358
72.6996
24.7071
172.578
146.092
110.864
69.1572
23.4915
354.134
300.31
228.123
142.323
48.3358
227.507
192.516
145.999
91.0114
30.9047
-305.151
-250.576
-186.485
-115.805
-39.4464
-1307.17
-1079.28
-808.517
-505.052
-172.57
-2545.11
-2080.55
-1561.21
-987.586
-341.438
-1835.16
-1501.08
-1132.18
-728.815
-267.67
-1526.24
-1235.5
-921.589
-583.262
-201.818
-392.47
-302.15
-209.806
-120.415
-36.9698
-577.689
-480.414
-360.464
-224.244
-76.2816
-1771.09
-1471.18
-1104.8
-689.069
-234.966
-2894.38
-2391.15
-1794.66
-1124.33
-385.449
-3072.48
-2526.73
-1896.08
-1193.82
-413.205
-2405.97
-1964.32
-1469.23
-925.721
-319.963
-725.181
-577.744
-423.488
-263.662
-90.5785
-2036.92
-1462.88
595.099
1067.66
1134.89
1576.76
1004.93
-10329.1
-1753.19
-3195.27
-1400.9
570.484
-4030.39
881.354
2268.42
754.474
-5100.14
-2143.21
-677.159
-367.125
-2970.33
-855.594
99.9641
45.3098
1683.11
1589.13
-529.608
-363.41
-8514.94
-3891.29
-3695.01
-1917.16
-2915.26
-2353.23
504.735
1588.38
188.92
-1109.25
-897.814
-762.827
-810.865
-768.018
-1021.13
-733.047
-567.061
-434.045
-179.34
543.887
465.041
353.967
219.994
74.4392
959.659
808.632
611.587
380.965
129.36
1021.23
861.199
651.223
405.307
137.605
1417.67
1194.66
903.144
562.18
190.871
906.057
765.608
579.569
360.799
122.575
-7314.56
-6810.19
-5926.52
-5868.7
-5993.23
-1212.96
-751.754
-777.64
-824.715
-381.769
-2400.42
-1781.03
-1482.19
-1237.76
-608.112
-944.227
-644.196
-593.062
-517.785
-170.095
507.371
420.66
311.575
189.989
64.6396
-3316.17
-2627.05
-2016.15
-1376.36
-515.167
787.323
657.608
491.293
302.227
101.658
1961.32
1595.75
1191.46
751.342
261.621
679.87
572.636
429.916
264.496
88.6447
-3231.37
-3185.13
-2784.73
-2926.16
-3224.36
-1583.11
-1091.35
-891.995
-730.607
-297.008
-541.357
-417.84
-324.802
-229.991
-85.5512
-282.465
-207.015
-156.969
-111.789
-42.0357
-2463.21
-1942.23
-1472.49
-982.277
-358.623
-713.211
-547.656
-400.574
-251.145
-75.0219
114.219
113.676
88.2584
50.3874
16.4466
62.1585
69.0763
56.6931
33.5525
11.5615
1499.8
1252.62
941.281
584.91
198.86
1426.91
1200.23
905.099
562.083
190.714
-441.513
-349.197
-261.919
-171.073
-60.9805
-293.934
-224.809
-166.231
-109.386
-39.0676
-5337.82
-4175.73
-3670.03
-3644.06
-3165.16
-2911.82
-2214.66
-1744.33
-1302.22
-549.865
-2716.24
-2208.15
-1825.11
-1555.47
-656.347
-1414.44
-1104.3
-869.226
-651.009
-317.278
-2449.06
-1949.7
-1467.02
-953.989
-333.67
-1842.2
-1135.99
-904.224
-695.599
-52.2743
475.705
417.883
319.657
196.469
66.9208
1430.15
1206.27
911.233
566.122
192.034
198.452
190.729
148.102
88.3318
31.8702
-84.579
-184.281
-233.867
-299.921
-440.685
-614.296
-21573
-17788.6
-16626.6
-19899.5
-15232
-11733.9
-13914.3
-10603.2
-19143.1
-15277
-16139.4
-13763.3
-13903.9
-10646.1
-13160.7
-18223.3
-15985.3
-14136.5
-16051.2
-13567.4
-10550.3
-12004.5
-9026.75
-17725.1
-14986.6
-15984.7
-14030.6
-13825
-11541.4
-13428.4
-14236.2
-13050.2
-11361.8
-12372.6
-11366.4
-9413.63
-10090.9
-8628.21
-14713.4
-13514.3
-13962.8
-13048.3
-12728.5
-11031.8
-12488
-9805.12
-9403.31
-8096.72
-8430.28
-8703.66
-8149.89
-7702.47
-7641.69
-10642.4
-11790.5
-10306.7
-11331.4
-9842.87
-8980.11
-10773.6
-6311.45
-6210.56
-5214.48
-5306.42
-6118.89
-6190.16
-5134.77
-5288.75
-7428.27
-9076.94
-7302.97
-8486.17
-7201.07
-6992.27
-8098.68
-2304.17
-2288.08
-1877.55
-1898.26
-2300.88
-2413.8
-1845.69
-1834.78
-3025.42
-3811.84
-2957.42
-3373.37
-2947.49
-2927.33
-3221.13
-7916.2
-7942.89
-11293.7
-12454
-7940.41
-7489.15
-10485.1
-8721.89
-7274.23
-4559.06
-7394.35
-4486.92
-7457.88
-7512.2
-4578.88
-7520.01
-7329.74
-10414.9
-11266.5
-7057.21
-6181.82
-9452.32
-7723.91
-5108.35
-1756.89
-5038.29
-1995.37
-4260.57
-4075.63
-2342.3
-6317.88
-6180.85
-8771.37
-9268.12
-6172.83
-5640.85
-8188.52
-7298.93
-2690.97
-1645.11
-2638.44
-2237.19
-2537.64
-2811.32
-2904.54
-4647.68
-4637.83
-6434.67
-6600.8
-4740
-4627.98
-6297.59
-6147.88
-2764.86
-1525.99
-2946.28
-2439.82
-3179.08
-3726.36
-3325.14
-2895.55
-2895.87
-4104.95
-4155.26
-2821.26
-2798.54
-4060.16
-3985.88
-1563.69
-1134.48
-1742.45
-1930.41
-2177.72
-2657.12
-2599.85
-982.504
-985.683
-1454.82
-1467.23
-977.155
-1014.21
-1433.87
-1385.18
-294.939
-478.816
-449.868
-881.51
-749.118
-969.508
-1094.07
7581.89
22804.5
5818.23
25456.4
3184.32
26904.4
5409.64
42465.8
8824.87
53289.7
9059.28
37894.9
9676.85
33717.4
9433.33
28332.3
4481.1
2479.67
13542.6
6464.56
4176.49
1937.11
14540.8
5877.55
5820.45
4331.74
17053
12565.8
3941.91
3143.01
17487.8
13348.5
8906.19
3251.16
6819.82
2518.16
3133.84
8324.11
41669.9
12709.9
12554.7
5755.77
50409.4
15762.3
11638.5
5409.09
27725.9
9229.98
14156.8
6429.02
22686
7198.12
5565.8
2993.64
9275.55
3773.77
5062.67
3157.33
9937.1
3782.29
6708.09
4250.15
6280.61
2669.15
10969.5
3986.66
4303.96
1599.39
13585.6
10365.6
8157.96
7399.91
14827.8
13047.5
8006.24
8559.3
7687.06
6716.6
10247.9
8892.39
6007.07
5216.82
3432.03
2969.04
5883.18
5880.54
3301.55
3315.4
5825.83
4652.11
3354.64
2404.81
6671.33
3771.47
6792.28
7399.38
9046.56
6864.56
9852
12778.4
4797.19
2072.3
4315.27
4405.62
2679.9
948.113
1961
1686.24
6647.65
13266.2
4759.45
14960
7193.71
13348.7
5685.95
15824.2
9340.92
13155
7820.79
16005.4
9907.57
11444.4
8022.19
8134
9695.65
7557.02
8692.34
12197
14393.2
20915.1
10269
8645.6
8475.28
10725.1
16764.8
16548.8
16059
19334
19521.8
16053.5
16113.4
19289.6
19308.4
14699.9
15298.4
18405.3
18684.2
9506.03
10126.7
9669.84
10274.1
11836
12022.8
14001.4
13795.3
17816.6
18171.5
8641.06
9578.96
10011.8
10936.4
11383.5
12582.6
13277.2
14845.3
17551.4
19377.4
10143.6
6939.53
8181.24
8157.65
11153.9
12519.6
9053.22
11812.2
7641.66
7678.9
9762.25
7041.62
3521.97
5871.63
1414.31
2172.27
5596.25
8719.32
2154.39
3235.62
3040.5
5237.75
1130.12
1905.78
7363.1
6259.19
7591.58
4804.21
10410.1
7483.24
11925.8
8062.56
3504.52
3982.68
4331.28
2502.58
2632.6
2828.92
2919.55
2211.81
14029.6
9279.3
3067.94
15178.8
9601.96
3328.97
13768.7
9064.04
3113.38
15113
9571.88
3261.09
13083
8490.08
2855.8
14772
9395.32
3241.32
7368.08
4296.05
1166.85
9017.8
6178.21
2018.88
10551.1
7422.97
2512.51
11801
7746.13
2556.76
14218.9
9032.39
3196.58
8014.66
4475.35
1492.52
8201.46
5371.88
1894.27
9399.88
6251.26
2169.64
11187.3
7230.12
2493.85
13516.5
7985.4
2787.68
-514.315
985.722
416.818
2647.94
1855.02
1856.6
4766.76
4153.57
596.821
955.686
630.84
998.336
340.861
929.035
624.581
1360.95
1845.68
1122.28
3786.78
2700.91
1713.49
2795.16
2935.62
716.241
6079.09
1847.37
-4383.65
-816.104
549.456
552.05
-135.581
-25.2318
10138.2
4285.98
2676.55
1529.97
9990.3
4337.11
2918.49
1810.75
9610.43
4703.73
3875.55
2643.58
2971.31
1860.1
1560.41
1383.76
13257.1
11559.3
5765.02
7376.8
15196.4
14176.7
7375.65
8834.97
5110.64
6171.35
11020.7
9026.79
3622.16
4775.74
2018.8
2721.21
4890.86
5718.69
2756.86
3215.78
2843.2
4036.75
1524.56
2411.31
4456.71
3034.73
5030.17
3217.29
7748.31
4389.29
6787.64
4224.7
2592
2053.39
3467.88
2193.54
1386.5
1257.85
2167.28
1344.12
11702.6
7481.03
5514.22
5521.22
11591.5
7457.53
5420.39
5387.78
11701.7
7199.76
5483.48
5004.43
13348.6
13200.6
12181.2
9146.86
5005.77
8015.28
9383.32
9636.87
8787.87
5819.93
11434.2
9979.52
8054.06
6310.61
3886.42
6088.08
5778.68
5926.89
6899.83
6095.99
5648.34
5797.38
6783.33
5895.69
5445.22
5540.12
6536.5
8994.85
8522.26
8096.34
6923.44
5826.15
5751.57
5393.73
5497.57
4848.83
6204.36
6649.94
7535.34
5388.46
6095.17
4596.12
5201.28
4286.35
5050.52
3645.33
5705.46
4803.36
3858.37
3292.55
1837.26
7542.63
5724.62
6083.96
3900.76
2393.91
1398.42
3546.68
3181.66
4205.45
1874.09
1914.96
1059.1
5607.41
3247.45
2258.88
1559.33
3310.19
1415.88
1653.68
824.68
1878.68
2210.08
2210.4
3692.29
2853.38
3423.88
2632.01
4765
2316.67
1629.04
1637.74
2671.03
1001.86
371.923
282.806
621.051
4491.59
2066.67
599.299
4719.07
1271.73
338.831
4437.87
2191.78
687.851
4716.24
1319.96
370.101
4151.9
2078.91
546.772
4530.38
1240.75
287.537
5819.27
3239.15
878.183
4656
2550.88
725.902
4308.07
2214.78
645.286
4007.06
1940.76
469.624
4344.52
1118.38
201.879
6401.33
3416.41
1079.72
5292.48
2906.8
963.576
4555.32
2420.76
799.468
4140.34
1760.15
493.055
4586.25
1182.01
382.528
1593.77
595.495
293.181
41.3015
642.987
251.943
132.671
33.5652
1645.38
637.443
348.042
90.1687
778.767
336.831
217.749
99.8433
1872.03
755.132
448.435
154.651
1316.78
648.713
349.448
154.333
951.42
563.048
236.044
68.8862
972.003
626.862
328.95
168.351
1536.5
706.344
360.442
55.0491
1448.55
647.704
386.262
3.6536
1943.86
800.441
484.588
128.991
1726.59
702.177
453.322
-7.8079
1151.45
601.736
294.974
48.666
1115.89
559.224
334.107
63.4612
840.808
508.85
296.266
159.604
767.678
454.498
294.607
156.603
2029.25
731.185
373.887
-4.6945
2086.29
711.407
432.783
-112.644
2014.43
738.782
404.004
18.5237
1994.5
683.848
430.27
-103.085
2019.11
755.588
465.007
57.8995
1787.53
618.201
425.035
-63.0914
1871.9
723.255
500.274
151.179
1970.21
696.322
539.102
-48.0212
1443.41
558.608
393.036
64.2601
1696.82
521.294
330.639
-114.113
661.308
185.335
102.347
-21.5179
1671.33
525.584
335.16
-98.5776
672.192
193.898
110.769
-11.7307
1580.79
512.705
344.015
-70.8057
652.731
196.112
121.022
1.55808
1337.33
439.296
328.085
-38.7747
577.904
173.733
128.4
18.5041
1174.62
408.621
311.191
4.72543
525.95
175.433
138.94
40.9434
905.812
383.142
231.673
26.0452
479.61
234.147
136.588
66.766
970.222
355.465
252.951
14.967
479.443
193.216
135.574
56.6392
796.008
400.134
231.86
57.5062
476.054
268.759
148.994
85.558
612.615
375.356
235.235
130.836
433.198
282.45
173.334
119.61
16.024
7.81724
4.16736
2.35779
1.60346
7.97812
3.88759
2.07374
1.17833
0.806452
29.7611
15.711
8.49006
4.82433