/*--------------------------------*- C++ -*----------------------------------*\
| =========                 |                                                 |
| \\      /  F ield         | OpenFOAM: The Open Source CFD Toolbox           |
|  \\    /   O peration     | Version:  2412                                  |
|   \\  /    A nd           | Website:  www.openfoam.com                      |
|    \\/     M anipulation  |                                                 |
\*---------------------------------------------------------------------------*/
FoamFile
{
    version     2.0;
    format      ascii;
    arch        "LSB;label=32;scalar=64";
    class       volScalarField;
    location    "1.6";
    object      gradTx;
}
// * * * * * * * * * * * * * * * * * * * * * * * * * * * * * * * * * * * * * //

dimensions      [0 -1 0 1 0 0 0];

internalField   nonuniform List<scalar> 
5712
(
-8283.14
-10131.6
-18892.8
-29567.2
-28591.4
-55779.9
-19717.6
-59333
-20321.8
-47554.8
-24998.8
-41148.8
-19107.2
-25320.1
-10283
-10455.3
-13613
-15499.7
-18559.5
-16864.4
-12856.1
-19350.4
-19137.7
-19150
-5465.37
-4001.12
-7403.44
-5329.59
-12427.7
-8162.88
-22915.2
-16070.3
-19060.1
-19396.6
-19472.7
-19888.6
-4602.53
-4036.41
-44181.5
-54618.3
-23554.3
-31396.1
-56763.2
-69871.3
-26300.2
-32364.1
-33194.6
-43375.4
-26518.8
-36665.1
-15295
-19317
-3171.36
-1009.38
-4104.99
-1428.36
-7106.25
-2930.24
-12228.4
-4503.04
-8120.3
-2696.44
-8094.18
-2298.65
-15849.4
-4628.04
-20744.5
-6521.66
-26537.8
-15240.3
-22394.5
-15475.3
-26996.9
-17413
-21396.6
-17245.3
-17491.4
-12632.8
-19266.3
-12240.3
-21740.4
-15986.8
-22469.8
-16384.8
-20965.2
-17581.3
-21788.1
-17916
-18015
-13330.8
-19404.9
-13808.3
-19308.5
-7979.12
-11093.6
-12725.8
-20818.8
-9245.13
-11072.5
-13402.8
-19332.3
-7419.01
-11572.6
-12490.8
-19978.4
-7456.68
-12144.2
-12574.7
-3070.67
-3469.01
-1085.19
-2190.36
-8842.56
-10408.5
-3673.71
-7080.96
-14387.1
-17095.5
-6612.1
-11925
-17947.9
-9395.15
-18510.7
-22531.2
-11493.5
-6772.98
-10860.1
-12894.8
-22900.5
-14992.6
-10520.9
-13916.1
-15583.2
-15276.4
-19179.3
-3375.02
-3445.52
-2111.02
-2245.81
-9997.07
-9439.22
-6541.34
-6609.24
-14970.3
-13541.4
-9700.46
-9687.11
-9822.24
-10941.9
-15505.8
-16459.8
-17701.1
-16628.5
-21246.7
-19402.5
-15011.1
-14935.4
-13364.2
-14310
-17278.8
-15522.3
-16410
-13482.2
-14848.5
-11662.7
-16781.4
-13209.6
-14462
-7463.93
-11394.4
-10922.8
-15926.2
-18308.9
-16269.4
-21034.5
-9654.55
-9362.1
-13158.6
-5614.27
-11060.1
-17273.1
-11478.6
-18510.3
-16534.8
-25852.1
-17124.9
-26533.8
-9432.06
-15275.4
-9805.16
-16623.8
-11659.7
-8511.94
-15108.5
-6649.2
-12557.8
-4313.49
-14275.3
-3074.6
-12169.1
-12358.1
-15853.2
-8083.25
-11019.2
-14310.7
-14592.4
-10329.1
-3190.64
-2938.59
-2483.55
-2068.13
-2006
-1729.89
-8569.64
-7261.57
-6220.24
-5666.12
-4650.94
-3852.23
-11128.6
-9233.61
-8307.9
-8176.22
-6425.58
-5699.3
-9693.63
-7635.65
-7121.91
-15235.4
-11006
-8747.48
-13957.5
-9931.65
-7505.28
-15661
-11952.8
-9841.28
-12486
-8280.51
-5999.94
-18137
-14388.5
-12516.9
-13477.1
-10375
-8367.88
-12096.9
-8818.62
-6721.14
-10998.4
-7965.93
-6107.75
-12170.7
-7107.19
-4256.72
-11719
-19040.8
-9986.23
-14244.1
-9635.79
-19762.2
-8102.16
-16235
-160.472
-1715.98
269.813
-1017.83
-3561.78
-6723.64
-2253.43
-4106.95
-1879.34
-3939.62
-11133.4
-16513.4
-8763.74
-6615.49
-11952.2
-10459
-16172.3
-17331.8
568.104
5660.01
-8519.73
-5956.09
-6694.44
-3847.62
-1577.28
-1007.07
-1289.27
-799.025
-3884.91
-1219.06
-1964.27
-259.743
-9997.8
-2933.35
-7597.3
-2342.58
-8654.54
-2601.55
-9794.59
-3206.36
-12517.8
-12288.7
-9731.31
-12154.4
-19185.6
-17196.6
-15686
-16315.9
-7115.78
-9224.28
-8305.89
-8531.33
-9109.87
-12059.2
-9578.52
-12162.2
-14972.4
-15971.5
-15519.1
-16077.2
-6287.82
-9338.95
-6082.59
-9445.73
-662.386
-1276.07
-7252.01
-3848.86
-641.057
-1037.98
-6348.94
-3239.15
-668.066
-1150.25
-7650.49
-4245.4
-972.06
-1267.35
-7720.13
-4478.73
199.299
348.871
-462.566
-293.491
910.044
1440.34
-721.531
-422.198
-1049.39
9.79994
-2401.67
-2022.81
7579.19
3838.15
4489.45
3074.77
103.759
7072.98
10277.8
4861.33
4983.8
133.669
-9616.31
-6932.24
-5536.01
-5556.5
-3071.97
538.853
438.722
-153.371
-229.681
1521.57
1633.14
-412.449
-550.282
1342.79
1857.87
-1236.69
-1429.68
2984.92
1403.44
7869.21
5411.6
4208.64
2931.13
3888.62
3163.03
-95.9114
-730.042
-5112.43
-3582.04
382.779
2003.88
679.685
1843.72
-246.803
768.589
-565.551
-858.646
-4087.33
-4479.38
-9623.15
-6085.81
-8754.28
-8414.38
-13072.4
-10142
-7191.41
-4366.14
-2408.33
-3078.54
-11375.3
-4824.86
-12203.2
-4471.59
-15002.2
-9800.55
-15986
-9459.88
-8670.6
-3168.53
-9421.5
-2738.31
-5186.93
-4111.35
-3668.13
-6513.6
-2467.02
-3292.1
-2325.52
-5432.94
-5723.03
-3796.26
-4494.35
-7489.75
-6973.01
-3550.87
-5401.66
-7372.05
529.538
649.223
742.126
-145.301
126.191
167.143
1878.51
2155.56
2278.69
-188.019
516.694
611.75
2290.5
3083.48
3410.83
-741.579
903.555
1233.38
632.388
1191.3
1059.58
3958.74
4194.05
3854.11
3084.57
3534.07
3389.31
3326.96
4010.02
4089.66
-364.176
1309.33
1225.56
-4212.55
-2129.47
-1256.87
1007.78
2110.88
2469.08
1318.84
2446.65
2728.58
834.448
2167.08
2438.24
-1467.14
874.44
1022.66
-72.4787
2.14015
26.0174
52.4762
90.179
85.0337
99.4761
90.3591
-193.226
-3.389
73.2113
140.645
205.637
194.437
212.734
201.152
-373.237
-57.5364
69.0004
217.897
20.0818
152.568
167.608
216.715
31.3794
99.256
56.3866
64.2708
-150.531
-17.3355
28.6303
74.8568
-937.688
-288.582
-144.642
99.2044
-1372.51
-443.27
-317.36
138.115
-773.163
-218.554
-78.3449
202.724
-1114.12
-354.593
-277.041
143.501
-866.009
-277.122
-133.499
81.6138
-1514.77
-490.979
-338.279
176.223
-918.138
-319.968
-125.57
121.175
-1591.56
-519.573
-353.691
194.298
-67.72
-6.32793
5.65903
44.5389
-54.7098
-2.95508
-7.43965
47.6812
-182.358
-21.3617
18.3289
120.491
-89.5557
12.9281
-6.29366
130.92
-633.798
-170.375
-66.8251
177.281
-479.284
-107.348
-68.7229
209.759
-287.346
-34.8702
8.65756
218.938
-190.311
-8.70608
-28.5841
209.579
-932.389
-275.674
-218.007
225.787
34.1552
25.9654
14.1935
40.9301
115.421
50.0913
27.0271
26.6179
28.0459
49.8995
20.438
105.426
284.609
129.725
65.0269
69.303
-61.0534
35.4928
13.1969
164.433
393.663
187.536
96.9488
105.173
-70.6969
47.6963
16.3541
216.778
426.217
221.514
107.04
121.475
-254.551
8.28976
-58.2156
199.169
258.14
197.835
71.8042
107.619
-933.177
-127.134
-175.664
170.561
-263.385
57.2897
-1.5238
68.4243
-589.544
-38.3549
-130.254
179.195
-54.4041
129.44
31.0908
87.9084
-1226.14
-244.296
-227.905
181.503
-401.248
-15.7796
-31.6501
57.8653
-1432.47
-365.404
-283.241
175.572
-524.562
-102.209
-67.0378
45.7558
20.1147
9.27915
4.57229
2.44775
1.62293
28.6429
14.2634
7.29808
3.99525
2.6728
42.4881
19.7161
9.68943
5.20402
3.48343
75.2317
38.8764
20.2168
11.2121
7.5629
61.395
28.6737
14.2661
7.75154
5.22891
108.962
55.5189
29.0922
16.2795
11.0433
36.3447
18.1173
9.54554
5.37782
3.66019
19.3162
9.62834
5.02414
2.82416
1.91663
54.749
23.9707
11.9872
6.58559
4.42959
11.3526
3.4139
1.39192
0.681079
0.433752
83.8631
40.0205
20.5737
11.4434
7.75148
22.2501
8.81202
4.2294
2.27122
1.50265
16.8794
4.82999
1.86913
0.898574
0.572065
11.6127
3.81486
1.66947
0.867706
0.572407
15.0586
4.19634
1.59312
0.765437
0.473053
7.23029
1.10181
0.173867
0.0127342
-0.0222163
16.1149
6.97105
3.28813
1.70457
1.11114
15.7456
6.69145
3.13222
1.6173
1.0524
37.4017
15.8902
7.49118
3.89696
2.55834
36.7492
15.2156
7.1321
3.69564
2.40973
48.6287
19.443
9.07815
4.70261
3.08822
45.0047
18.7957
8.96568
4.68388
3.09098
61.5093
28.4637
14.4261
7.93332
5.36736
30.9743
13.8843
6.83935
3.63957
2.44514
35.8278
17.2414
8.91284
4.98054
3.38114
-506.572
-627.364
-1400.54
-1790.86
-2148.66
-2877.17
-2593.6
-3806.45
-2526.85
-3713.49
-2297.81
-3126.09
-2050.78
-2522.05
-2724.02
-3745.01
-2883.42
-3953.68
-558.877
-123.194
-26.9497
-5.74577
-1.40265
-221.721
-83.0944
-8.725
-2.566
-1.06374
-1805.8
-400.866
-88.2066
-18.9532
-4.66119
-571.304
-121.565
-24.6367
-4.79862
-1.02101
-3170.44
-707.863
-156.691
-33.9818
-8.43283
-1009.27
-241.462
-53.6517
-11.7835
-2.86723
-4517.94
-1014.47
-226.821
-49.7713
-12.5089
-1420.84
-373.101
-88.9764
-20.5918
-5.26678
-6247.73
-1443.62
-329.818
-73.7303
-18.8605
-1901.89
-567.755
-143.724
-34.3451
-9.01957
-8289.66
-2093
-505.341
-117.712
-31.0846
-2226.94
-701.388
-183.08
-44.5053
-11.8817
-7608.67
-1861.34
-438.359
-100.072
-26.0025
-2142.62
-684.948
-178.786
-43.3865
-11.4851
-8600.65
-2200.43
-538.005
-126.749
-33.7777
-2291.38
-698.49
-179.216
-43.0387
-11.4515
-8839
-2254.19
-553.556
-131.152
-35.1381
-2302.4
-702.346
-179.876
-40.1051
-11.3028
-262.637
-6829.96
-6701.37
-3753.37
3817.24
5247.26
10550.3
13887
5994.98
12111.6
2236.79
7230.78
5880.84
9816.63
10831.1
14966.8
13033.6
14851.9
7440.91
8429.02
-19036.2
-14122.8
-4039.67
-3048.65
-2353.15
-3761.15
-2687.69
-12288.4
-11791.7
-10178
-10555.5
-8523.9
-5885.25
-8252.31
-4926.97
-3763.49
-4624.32
-2950.77
-20345.8
-9927.69
-2835.24
-4803.38
-7442.52
-4983.85
-5757.06
-4306.99
-2048.9
-3450.92
-3099.89
-3625.88
-19064.3
-11734.1
-11740.5
-7378.69
-7762.52
-7876.23
-3730.17
-4695.22
-5020.48
-12691.5
-11864.6
-9896.94
-9465.68
-8280.23
-9993.89
-7336.18
-5946.94
-4793.71
-2119.85
-3561.49
-2942.59
-2196.71
-1362.63
-462.272
-2718.09
-2270.07
-1704.09
-1056.69
-358.15
-2084.14
-1727.12
-1286.39
-792.854
-267.935
-3356.16
-2804.03
-2103.28
-1302.11
-440.841
-2380.55
-1974.04
-1472.9
-909.978
-307.996
-8066.8
-6746.59
-5268.27
-4738.93
-4930.61
-6408.32
-4990.55
-3461.7
-2730.92
-2212.83
-7035.73
-4776.69
-3547.24
-2587.28
-1113.34
-5695.89
-4205.01
-2861.29
-2168.82
-1468.69
-4317.79
-2978.02
-1946.85
-1540.58
-890.98
-4673.63
-3500.63
-2470.27
-1523.38
-535.14
-5914.01
-4090.38
-2875.42
-1864.98
-731.481
-3454.15
-2279.12
-1532.1
-954.43
-357.546
-3101.45
-2395.06
-1704.64
-1037.54
-354.251
-3719.61
-2799.41
-1956.23
-1179.33
-402.374
-2459.96
-1917.7
-1368.07
-828.31
-280.285
-13679.7
-11118.9
-9016.87
-8090.81
-7258.38
-7589.52
-5613.77
-4217.49
-2961.83
-1224.99
-2351.83
-1831.82
-1318.38
-812.366
-279.677
-4054.69
-3218.98
-2359.33
-1475.22
-511.063
-6111.06
-4752.92
-3510.08
-2270.23
-816.696
-4239.02
-3390.45
-2505.46
-1575.35
-542.985
-4986.23
-4048.92
-3003.89
-1872.41
-635.896
-3741.07
-3045.4
-2250.44
-1391.79
-473.244
-1762.33
-1416.71
-1030.94
-628.113
-211.801
-3026.5
-2483.53
-1837.5
-1130.06
-382.05
-2628.73
-2087.26
-1512.43
-925.74
-314.612
-3126.61
-2526.56
-1856.64
-1145.46
-389.886
-12640
-11101.1
-9263.25
-8623.03
-7328.91
-8628.91
-6379.11
-5056.57
-3880.32
-1696.49
-9323.44
-7455
-5808.92
-4436.12
-1925.09
-5996.45
-4495.73
-3391.2
-2291.59
-728.749
-6506.95
-5109.5
-3798.66
-2439.14
-821.472
-6376.25
-4751.73
-3569.4
-2405.27
-744.614
-3204.83
-2582.47
-1903.07
-1182.7
-403.757
-4120.45
-3386.66
-2514.62
-1553.54
-526.574
-4308.62
-3471.26
-2562.45
-1597.27
-546.592
-6616.61
-14556.8
-11591.3
-37875.7
-10887.4
-49271.9
-7327.08
-19404.5
-9499.37
-8016.81
-18750.4
-14637.4
-9611.15
-11537.7
-20433.4
-16905.7
-4165.79
-2845.24
-9618.38
-6775.59
-7285.43
-3809.79
-26476.2
-18712.8
-15920.9
-11032.2
-16578.2
-10794.3
1853.13
-1567.01
-45332.2
-55062.6
-22842.6
-31291.1
-57614.6
-70217.3
-25446
-32160.5
-33962.9
-43815.5
-25829.8
-36649.4
-16440.2
-19780.1
-2252.48
-431.54
-4927.61
-1589.09
-4260.05
-2019.73
-13783.4
-4930.33
-2137.42
-1025.11
-6016.98
-1671.17
-15897.3
-4585.51
-20932.9
-6564.64
-19269.2
-11871.7
-19936.6
-13787.9
-18582.5
-13274.4
-18586.1
-15258.6
-15807.4
-11354.5
-14495.3
-9806.19
-20757.9
-15208
-22227.9
-16163.1
-19810.2
-16695.9
-21469.7
-17661.9
-17400.4
-12726.7
-19267.2
-13634.2
-18352.1
-7733.35
-10171
-12315.6
-17899.4
-8464.47
-9250.53
-12627.6
-19055.6
-7342.07
-11139.3
-12286.7
-19943.5
-7446.73
-12017.2
-12516.2
-687.086
-521.12
114.234
-739.289
-2575.29
-3211.13
-1841.86
-4820.56
-3883.28
-5226.19
-4076.48
-8863.85
-17363.3
-16493.9
-14034.7
-16600.7
-10106.1
-10972.5
-8794.73
-7795.97
-16431.6
-13660.6
-13035.1
-12533.9
-12044.2
-11452.3
-17492
-754.121
-957.01
-499.768
-736.485
-3221.21
-2883.6
-3674.71
-3631.7
-3158.12
-1701.65
-6095.77
-5791.05
-11930.4
-12753.1
-11236.5
-11187.9
-10388.9
-8652.41
-14111.2
-12120.1
-12718.4
-12007.6
-15472.3
-15801.1
-14708.6
-13058.2
-12190.9
-9932.01
-11073.7
-8589.67
-15004.5
-11066.3
-13437.1
-7846.72
-11008.6
-11036.5
-16395.6
-19267.8
-16341.8
-21375.3
-9065.24
-9302.76
-11615.1
-5656.05
-10908
-17254.2
-11428
-18491.4
-16587.9
-26117.6
-17118.9
-26553.5
-9189.49
-15168.8
-9733.37
-16588.1
-11145.4
-8449.63
-14845.3
-6675.33
-11268.6
-4424.06
-13719.9
-3412.63
-11953.4
-12271.4
-15728.6
-8069.62
-10955.5
-14278.7
-14559.6
-10312.5
-1157.3
-889.678
-669.991
-825.108
-2224.26
-1110.47
-3032.28
-3024.75
-574.308
-402.676
-5346.61
-5174.79
-13701.4
-11708.7
-10971.8
-8388.83
-7259.26
-4890.89
-9694.93
-7329.8
-10401.3
-6960.6
-19989.6
-16879
-10587.7
-8458.27
-8330
-6039.19
-7337.24
-4996.91
-8348.16
-4182.47
-5894.58
-11278.2
-5419.59
-11071.1
-7503.22
-12226.7
-8873.83
-13788.6
-1649.5
-1551.77
-1459.8
-1467.39
-4625.87
-4841.48
-4305.48
-4459.58
-1805.17
-2177.01
-9116.5
-9963.65
-5561.27
-6273.86
-10736.6
-10170.4
-15029.6
-17006.1
691.419
5550.17
-7803.04
-5831.75
-6392.45
-3841.59
-1365.53
-1287.76
-1487.61
-1263.03
-3055.92
-1995.32
-2387.7
-1422.83
-8205.3
-3940.23
-7709.11
-3613.03
-8642.32
-3314.44
-9815.14
-3494.08
-6715.23
-9716.06
-7624.25
-10739.6
-11658.4
-13207.1
-13020.4
-14351.8
-5925.68
-8549.16
-5105.52
-7595.37
-8219.71
-11443.5
-9313.8
-11985.4
-13824.9
-15117
-15180
-15831.7
-5795.38
-9044.8
-5936.01
-9362.09
-721.612
-1681.78
-7219.35
-4077.34
-859.229
-1767.24
-6503.93
-3596.11
-793.568
-1478.63
-7644.71
-4410.82
-1028.47
-1404.02
-7705.32
-4554
-1247.21
-1406.06
-1295.84
-1450.87
-3032.71
-3345.52
-2230.41
-2531.65
-7414.64
-7957.58
-4130.35
-4482.66
-4154.06
-9599.41
-2699.17
-313.602
-1330.15
-4155.53
-1136.12
-1911.03
1888.74
-828.085
-14018.2
-10090.6
-7620.44
-7282.51
-3868.65
-1682.21
-1808.43
-1686.49
-2016.02
-3941.01
-4181.83
-2980.57
-3660.36
-8405.26
-9346.12
-4506.84
-5603.68
-6178.5
-7486.44
-2110.35
-4132.27
-3348.77
-4616.6
-834.268
-1694.59
-1719.41
-2710.71
-11393.7
-8844.94
-6155.07
-4242.74
-4486.04
-3075.59
-4181.7
-2805.68
-2232.16
-2759
-7356.96
-7837.73
-11097.4
-7543.76
-11255.2
-11156.9
-13993.7
-11341
-8954.5
-5847.75
-5580.29
-6260.68
-12073.9
-5649.18
-12387.9
-4660.58
-15404.2
-10501.1
-16073
-9600.5
-9558.94
-4004.96
-9673.31
-2950.49
-6902.74
-5496.25
-5179.45
-8118.98
-5217.82
-6060.57
-4280.04
-8016.64
-6634.1
-4617.69
-5399.56
-8446.44
-7251.77
-3797.34
-5690.57
-7620.59
-1494.05
-1569.29
-1421.6
-1154.06
-4514.21
-5098.7
-2248.77
-1319.17
-9965.62
-8271.07
-3294.89
-404.187
-9320.55
-8020.38
-5947.75
-4934.81
-4924.47
-3936.04
-1797.55
-903.584
-1914.57
598.936
-8472.5
-6972.64
-4201.12
-2988.16
-2803.07
-1505.4
-2151.45
-751.904
-3425.44
368.915
-277.302
-111.873
-36.434
20.3217
-291.421
-137.945
-28.6498
16.9162
-711.249
-291.735
-77.5676
73.2466
-663.992
-321.669
-98.72
0.28762
-1058.69
-443.629
-152.912
103.29
-1030.78
-490.787
-265.117
-96.4437
-608.485
-306.233
-198.5
-73.153
-426.287
-197.753
-85.418
10.3195
-1308.06
-518.57
-313.374
-21.3797
-1493.62
-497.217
-371.562
135.872
-1313.34
-517.974
-298.373
15.8676
-1272.09
-424.948
-346.165
140.358
-1150.08
-457.993
-242.7
42.8245
-1608.29
-534.342
-386.201
153.772
-1040.07
-399.453
-175.429
98.0482
-1632.77
-540.054
-372.324
188.268
-262.265
-96.3556
-39.3736
28.8499
-262.398
-84.777
-52.7968
33.6255
-675.492
-253.43
-99.1339
80.1312
-664.118
-222.875
-132.224
96.1338
-1175.81
-439.398
-219.347
137.423
-1136.39
-394.39
-239.887
165.333
-1150.35
-463.554
-251.153
64.4339
-850.94
-312.339
-192.594
174.467
-1285.61
-440.872
-354.952
186.599
-195.362
-61.8279
-26.6393
23.3589
-118.543
-43.4926
-13.7734
2.8243
-533.23
-171.59
-89.6562
57.94
-324.875
-122.813
-50.0917
2.76726
-733.06
-249.161
-140.359
93.0094
-443.921
-188.915
-78.8844
3.79307
-848.787
-312.269
-184.407
117.549
-556.004
-251.885
-114.09
-2.10273
-1004.61
-349.075
-270.894
84.9952
-746.758
-292.347
-168.143
-30.4386
-1741.19
-568.138
-435.737
33.3161
-929.066
-318.688
-201.765
-45.8432
-1496.61
-491.216
-398.258
37.0974
-961.28
-330.374
-205.862
-49.9242
-1745.71
-547.924
-407.661
89.02
-801.078
-262.644
-165.211
-14.7231
-1605.21
-470.704
-345.714
144.064
-651.717
-185.302
-112.459
21.4301
-5.21332
-6.35255
-4.19611
-2.59528
-1.84017
-16.7379
-11.5738
-6.89845
-4.12393
-2.89533
-12.104
-13.424
-8.79271
-5.4031
-3.79501
-53.5063
-33.1057
-19.0756
-11.215
-7.81025
-26.3929
-21.3752
-13.1339
-7.88846
-5.48785
-81.6436
-48.3787
-27.1785
-15.7668
-10.912
-27.6539
-16.0769
-8.93772
-5.15216
-3.55772
-13.8431
-8.23258
-4.67986
-2.72318
-1.89825
-24.2965
-18.3469
-10.8256
-6.38784
-4.45542
2.78047
-1.3152
-1.17787
-0.782039
-0.568323
-55.719
-33.7195
-18.9426
-10.9835
-7.59672
-5.62794
-6.23311
-3.84795
-2.31165
-1.63277
4.12244
-1.23774
-1.35718
-0.935878
-0.68762
0.147018
-1.91343
-1.38434
-0.867279
-0.618102
4.82633
-0.942831
-1.18444
-0.837966
-0.651595
6.14419
0.745452
-0.00816391
-0.100581
-0.114857
-1.07924
-4.25161
-3.08005
-1.96762
-1.41175
-2.08179
-4.21476
-2.95594
-1.8764
-1.34435
-4.566
-10.3187
-7.16754
-4.51573
-3.2129
-6.15678
-10.2756
-6.94579
-4.35357
-3.10637
-5.32398
-13.3507
-9.02597
-5.64325
-4.00076
-15.2638
-14.8932
-9.27272
-5.6843
-4.0035
-39.4688
-24.333
-13.6985
-7.99316
-5.52283
-19.1312
-12.4982
-7.20158
-4.30569
-2.98497
-28.293
-15.0975
-8.18396
-4.68464
-3.2259
-185.35
-319.713
-630.036
-1029.05
-1242.18
-1935.78
-1831.95
-2943.37
-2059.52
-3184.44
-2321.35
-3159.8
-1954.66
-2520.47
-2755.19
-3762.88
-2895.79
-3959.99
-539.736
-121.229
-26.6949
-5.70578
-1.39464
-159.645
-75.187
-7.15651
-2.34108
-1.03788
-1762.76
-396.72
-87.706
-18.8768
-4.64526
-417.485
-96.6379
-20.6439
-4.16698
-0.909278
-3104.35
-700.483
-155.694
-33.823
-8.39959
-823.437
-210.749
-48.6322
-10.9751
-2.72101
-4423.14
-1001.37
-224.752
-49.4142
-12.4336
-1260.37
-345.247
-84.1796
-19.7762
-5.11161
-6130.22
-1424.17
-326.34
-73.0857
-18.7206
-1808.83
-548.039
-139.871
-33.6254
-8.87206
-8213.41
-2074.6
-501.284
-116.868
-30.8893
-2224.46
-698.101
-182.053
-44.2576
-11.8211
-7501.9
-1839.06
-433.876
-99.1897
-25.8058
-2114.08
-674.664
-176.326
-42.8692
-11.3708
-8555.02
-2188.72
-535.29
-126.165
-33.6392
-2292.93
-697.818
-178.928
-42.9631
-11.4319
-8824.04
-2250.29
-552.625
-130.95
-35.0895
-2303.25
-702.327
-179.84
-40.1013
-11.3005
-130.981
-6676.69
-6165.41
-2925.45
-1505.84
-853.308
-3194.05
-2443.99
-5631.08
-6130.69
-3238.32
-3039.3
-319.944
-493.983
-844.63
-1329.71
-1914.35
-2519.48
-223.088
-472.301
-971.14
-1672.11
-2505.37
-3378.77
-247.54
-107.513
-442.522
-273.057
-831.559
-615.538
-1352.79
-1157.8
-1891.38
-1859.48
-2379.1
-2578.16
-3171.84
-3886.25
-4783.48
-6880.09
-7359.67
-8983.25
-4195.46
-4799.19
-5003.21
-4869.02
-4082.28
-3701.89
-288.909
-244.608
-185.663
-115.848
-39.3652
-445.73
-377.051
-285.943
-178.303
-60.5658
-761.448
-643.461
-487.508
-303.781
-103.154
-1197.26
-1010.35
-764.533
-476.014
-161.577
-1720.49
-1449.04
-1094.72
-680.943
-231.048
-2257.67
-1895.74
-1428.98
-887.946
-301.203
-201.323
-170.361
-129.24
-80.6063
-27.3802
-425.907
-360.053
-272.888
-170.085
-57.7589
-875.018
-739.014
-559.628
-348.609
-118.356
-1504.71
-1269.1
-959.945
-597.568
-202.825
-2250.28
-1894.17
-1430.55
-889.82
-301.949
-3026.07
-2539.99
-1914.57
-1190.06
-403.828
-223.644
-189.415
-143.816
-89.7637
-30.5121
-97.1424
-82.2818
-62.4781
-38.9978
-13.2566
-399.494
-338.094
-256.509
-160.003
-54.3645
-246.554
-208.711
-158.383
-98.81
-33.5753
-750.066
-634.189
-480.716
-299.65
-101.772
-555.359
-469.71
-356.142
-222.04
-75.4185
-1218.63
-1028.89
-778.853
-485.025
-164.649
-1043.15
-880.872
-666.876
-415.3
-140.977
-1700.46
-1432.61
-1082.44
-673.262
-228.415
-1671.7
-1408.19
-1063.69
-661.377
-224.33
-2131.56
-1789.25
-1348.02
-837.179
-283.875
-2309.27
-1937.34
-1458.22
-904.657
-306.55
-2828.42
-2363.81
-1776.59
-1103.25
-374.347
-3436.06
-2849.5
-2134.25
-1327.04
-451.216
-4163.65
-3407.3
-2544.42
-1593.67
-545.562
-5828.3
-4666.62
-3492.82
-2240.74
-779.851
-5916.99
-4609.18
-3512.41
-2399.39
-909.167
-6931.07
-5298.67
-4116.4
-2964.84
-1174.9
-3741.74
-3128.41
-2352.89
-1462.31
-496.523
-4254.01
-3537.83
-2655.08
-1652.25
-562.153
-4393.89
-3626.91
-2717.54
-1698.46
-580.678
-4208.4
-3432.26
-2571.9
-1626.32
-562.312
-3424.8
-2742.9
-2068.5
-1348.41
-483.481
-2998.93
-2353.74
-1793.99
-1216.23
-452.998
-337.554
-548.767
-941.584
-1472.55
-2105.37
-2746.57
-245.435
-542.026
-1093.66
-1849.63
-2729.07
-3621.06
-265.374
-120.741
-498.928
-316.121
-935.126
-698.78
-1513.09
-1300.51
-2119.07
-2122.46
-2658.06
-3050.6
-3425.03
-4157.77
-5064.52
-7086.46
-7496.55
-9034.56
-4414.56
-4950.83
-5062.38
-4838.16
-4021.57
-3673.52
-304.899
-258.238
-196.082
-122.388
-41.5944
-495.505
-419.509
-318.423
-198.701
-67.5228
-849.615
-718.764
-545.197
-340.054
-115.532
-1327.37
-1121.71
-850.049
-529.888
-179.982
-1894.95
-1598.85
-1210.14
-753.868
-256.004
-2466.03
-2075.67
-1568.45
-976.516
-331.604
-221.625
-187.666
-142.467
-88.9077
-30.2111
-489.242
-414.068
-314.203
-196.028
-66.6056
-986.426
-834.167
-632.524
-394.444
-133.998
-1666.43
-1407.55
-1066.27
-664.564
-225.716
-2454.64
-2069.75
-1565.91
-975.381
-331.236
-3248.51
-2732.23
-2063.72
-1284.85
-436.373
-239.816
-203.19
-154.339
-96.3638
-32.7612
-109.14
-92.4957
-70.2759
-43.8872
-14.9232
-450.715
-381.757
-289.888
-180.954
-61.5085
-285.637
-242.007
-183.821
-114.769
-39.0151
-844.214
-714.564
-542.26
-338.331
-114.97
-631.01
-534.274
-405.563
-253.093
-86.012
-1364.65
-1153.85
-874.788
-545.455
-185.294
-1173.21
-992.254
-752.453
-469.239
-159.41
-1908.33
-1611.02
-1219.83
-760.036
-258.107
-1911.91
-1614.47
-1222.67
-761.85
-258.724
-2387.34
-2010
-1519.05
-945.737
-321.116
-2741.52
-2309.43
-1745.79
-1086.87
-369.01
-3062.68
-2568.1
-1936.6
-1205.76
-409.708
-3690.91
-3075.4
-2314.19
-1444.02
-491.895
-4434.34
-3653.61
-2746
-1727.98
-592.857
-6043.7
-4876.37
-3676.61
-2371.43
-826.985
-6071.8
-4766.24
-3657.43
-2510.87
-953.644
-6993.76
-5364.95
-4180.84
-3018.09
-1196.54
-3944.76
-3305.81
-2492.13
-1551.68
-527.384
-4397.61
-3666.4
-2758.55
-1720.1
-585.869
-4455.09
-3686.72
-2769.79
-1735.07
-593.938
-4189.24
-3424.51
-2573.59
-1632.25
-565.321
-3377.41
-2709.36
-2049.44
-1341.48
-482.555
-2976.75
-2337.89
-1785.02
-1213.29
-452.737
-18971.6
-14185.7
-4440.93
-3441.76
-2920.85
-4438.91
-3195.04
-13135.5
-14138.2
-11719.8
-13482.6
-7057.05
-11204.6
-5103.53
-5380.15
-3754.55
-21164.7
-10869.4
-3413.71
-5472.11
-8113.81
-5394.98
-6431.83
-4890.46
-2382.44
-4195.71
-3790.3
-4178.78
-18987
-11970.2
-12305.7
-7783.07
-8160.36
-8363.01
-4411.61
-5403.23
-5499.9
-12680.5
-11909.5
-9987.94
-9622.12
-8435.64
-10087.7
-7439.06
-6054.35
-4895.13
-2163.7
-3940.02
-3279.8
-2466.61
-1538.77
-523.648
-3080.9
-2585.64
-1950.57
-1214.24
-412.416
-2610.45
-2187.35
-1648.14
-1025.54
-348.461
-3980.91
-3346.63
-2526.51
-1572.36
-533.904
-2852.12
-2387.43
-1798.43
-1119.56
-380.54
-9592.66
-8539.37
-7108.87
-6446.93
-6345.37
-9864.97
-8948.6
-7274.84
-6019.96
-4471.83
-9002.21
-6745.22
-5344.23
-3992.85
-1722.46
-9762.81
-8334.4
-6580.04
-5268.31
-3231.77
-5972.36
-4775.37
-3578.72
-2308.66
-831.872
-9032.63
-6902.3
-5240.26
-3573.91
-1427.94
-4411.93
-3590.95
-2685.3
-1697.2
-591.663
-4633.26
-3758.71
-2809.78
-1780.57
-623.251
-3268.53
-2675.86
-2001.21
-1257.79
-434.82
-15033
-12682.5
-10625
-9586.78
-8420.46
-8684
-6722.98
-5229.02
-3731.15
-1542.67
-2945.17
-2394.89
-1794.58
-1139.5
-398.797
-4730.38
-3858.06
-2900.25
-1846.95
-645.958
-6833.29
-5466.54
-4142
-2726.75
-990.013
-4659.17
-3792.45
-2850.12
-1814.88
-630.114
-5634.66
-4636.74
-3482.97
-2190.38
-747.6
-4307.81
-3564.92
-2677.25
-1676.42
-573.922
-2101.26
-1739.82
-1304.46
-814.247
-278.414
-3728.66
-3108.55
-2337.3
-1456.18
-495.909
-3312.28
-2721.73
-2038.97
-1280.65
-441.522
-3670.94
-3031.23
-2275.26
-1426.9
-490.073
-12746
-11353.5
-9618.86
-9084.39
-7820.02
-8932.61
-6692.82
-5360.14
-4137.2
-1811.91
-10083.6
-8273.32
-6613.57
-5112.3
-2237.17
-6436.23
-4928.16
-3776.97
-2574.6
-822.297
-6936.72
-5533.23
-4175.57
-2710.95
-919.548
-6924.5
-5290.53
-4056.81
-2766.71
-870.63
-3860.1
-3176.8
-2387.25
-1504.03
-517.16
-4790.56
-3985.64
-2995.41
-1868.06
-636.466
-4789.27
-3924.47
-2945.13
-1858.95
-640.646
-430.491
-1187.88
-1832.65
-2443.73
-3067.63
-3641.33
-2468.5
-6352.32
-5933.47
-2463.64
-7244.97
-6581.47
-7705.18
-10328.7
-1399.03
-166.442
-2640.78
1351.66
-10323.1
-8678.69
2091.89
-1793
-5004.65
-4776.35
-1885.65
-5495.07
-3094.32
-6104.08
-6268.02
-613.26
983.067
-1122.49
3630.5
-7206.62
-4702.77
4048.4
-1095.03
-3372.03
-3452.45
-1281.7
-3379.35
-465.922
-4493.36
-4471.69
-159.106
1175.01
135.282
3784.19
-4344.32
-410.621
4586.68
-719.424
-2374.66
-2744.93
-969.286
-1764.85
928.487
-3736.32
-4158.85
54.3783
843.51
492.364
3146.4
-3236.14
1668.07
4349.59
-613.786
-2213.05
-2601.5
-879.937
-1622.76
633.851
-3947.69
-5388.18
133.448
630.912
596.559
2692.6
-3095.41
1642.15
2972.69
-588.981
-2172.52
-2524.46
-848.598
-2032.76
-181.586
-3861.18
-5299.07
178.472
979.233
482.951
2763.47
-3656.57
650.366
2165.18
-1322.06
-3132.01
-4264.36
-1742.56
-6455.7
-11581.3
-7088.78
-12546.8
-1608.05
-1424.29
-5186.49
-4350.06
-2243.32
-9370.84
-4681.71
-1288.59
-3038.17
-3788.81
-1500.81
-6084.44
-9847.27
-6336.39
-9119.75
-1668.12
-1312.53
-5029.8
-4138.03
-1607.71
-8629.59
-4548.7
-1181.53
-2808.06
-3125.14
-1201.26
-5458.31
-8498.27
-5283.58
-7987.3
-1419.43
-1670.76
-4383.53
-4873.05
-1905.46
-7604.66
-5075.93
-1170.91
-3025.84
-2845.75
-1047.11
-5716.27
-8213.55
-5146.32
-7746.59
-1462.85
-2027.4
-4460.79
-5879.02
-2423.2
-8248.07
-6040.41
-1167.54
-2975.53
-2771.33
-999.17
-5569.7
-8744.53
-5116.47
-8466.76
-1566.26
-2555.05
-4735.81
-7362.07
-3441.52
-9648.94
-7696.87
-1173.24
-2953.42
-2722.5
-980.496
-5630.32
-8932.27
-4977.76
-8337.48
-1749.15
-3163.46
-5191
-8355.95
-4588.15
-10598.7
-8557.49
7597.1
9209.72
18889.4
29517.6
28595
55763.4
19720.7
59328.5
20325.8
47549.8
25012.4
41143.8
19140.5
25307.8
8863.96
8988.31
13615.2
15500.1
18554.8
16862.9
12858.8
19351.9
19137.8
19150.5
5036.93
3704.03
6788.92
4891.88
12434.7
8158.92
22879.2
16040.8
19045.3
19394.8
19466.8
19885.5
4598.53
4020.74
44182.6
54619.3
23554.1
31396.4
56763.3
69871.5
26300.5
32364.4
33195.5
43377
26517.7
36665.7
15297.8
19318.8
2973.81
955.1
3788.3
1325.59
7090.16
2931.71
12202.8
4497.54
8112.02
2693.99
8082.76
2295.17
15849.6
4627.95
20745.8
6522.08
26537
15239.9
22393.5
15474.8
26997.3
17413.2
21396.6
17245.4
17489.7
12632.1
19264.5
12239.3
21740
15986.5
22469.7
16384.6
20965.3
17581.3
21788.2
17915.9
18014.5
13330.4
19404.9
13808
19305.5
7978.32
11092.6
12725.5
20814.8
9244.13
11070.9
13402.3
19331.7
7418.87
11572.1
12490.7
19978.6
7456.8
12144
12574.7
2878.02
3237.79
1024.65
2044.37
8813.2
10361.9
3672.88
7060.42
14374.3
17079.3
6608.33
11918.4
17946.9
9394.81
18508.9
22525.4
11492.3
6772.63
10859.4
12893.5
22894
14991.1
10520.9
13915.5
15581.8
15273.5
19178.1
3113.23
3177.23
1923.54
2078.74
9986.98
9413.21
6562.7
6613.82
14963.2
13533.3
9703.5
9689.03
9821.95
10941.7
15505
16459.2
17699.7
16627.5
21243
19399.5
15012.3
14936.9
13364
14309.8
17278.1
15521.8
16408.8
13481.6
14846.8
11662
16781.7
13210.3
14461.5
7463.7
11394
10922.7
15926.1
18308.7
16269.3
21034.3
9654.06
9361.91
13157.9
5613.99
11059.9
17272.9
11478.4
18510.1
16534.7
25851.9
17124.8
26533.6
9431.77
15275.3
9804.96
16623.7
11659.3
8511.85
15108.5
6649.28
12557.1
4313.3
14275.4
3074.78
12168.9
12358
15853.3
8083.31
11019.1
14310.7
14592.5
10329.2
2907.86
2675.35
2271.62
1919.42
1863.31
1610.88
8559.37
7251.95
6216.12
5670.43
4654.47
3857.91
11124.4
9230.84
8306.93
8177.72
6426.96
5701.56
9693.46
7635.55
7121.85
15235
11005.8
8747.39
13956.9
9931.37
7505.21
15659.4
11951.9
9841.04
12487
8281.28
6000.92
18136.8
14388.4
12516.8
13476.8
10374.9
8367.81
12096.6
8818.48
6721.11
10998.1
7965.77
6107.75
12171.1
7107.48
4257.07
11728.2
19044.5
9998.42
14247.4
9640.69
19765
8107.46
16237.1
179.746
1589.45
-219.083
936.905
3522.81
6708.24
2212
4096.37
1871.06
3932.19
11131.4
16510.7
8756.66
6609.01
11953.3
10459.5
16173.2
17332.3
-568.882
-5660.16
8519.3
5956.27
6693.89
3847.58
1435.14
933.199
1167.22
731.768
3890.39
1212.21
1967.5
257.469
9996.39
2930.36
7596.07
2340.65
8654.01
2600.97
9794.65
3206.23
12519.1
12289.3
9732.17
12154.8
19187.2
17197.3
15686.9
16316.3
7115.54
9224.31
8305.43
8531.29
9110.37
12059.5
9578.93
12162.5
14972.9
15971.8
15519.4
16077.4
6287.84
9339.07
6082.8
9445.95
661.49
1275.19
7251.84
3848.52
639.924
1036.51
6348.65
3238.59
667.613
1149.81
7650.46
4245.24
972.016
1267.18
7720.26
4478.71
-188.867
-323.742
434.577
276.285
-906.185
-1437.37
714.43
413.826
1049.55
-9.22264
2398.09
2019.77
-7579
-3838.01
-4489.42
-3074.93
-105.205
-7072.91
-10277.6
-4861.2
-4983.43
-134.881
9616.5
6932.44
5535.93
5556.24
3071.08
-509.843
-409.013
128.477
198.665
-1513.48
-1630.17
416.586
553.677
-1340.16
-1855.03
1237.51
1431.84
-2984.77
-1403.29
-7868.87
-5411.19
-4208.23
-2930.53
-3887.33
-3161.24
95.9446
731.003
5112.56
3582.16
-382.492
-2003.53
-679.374
-1843.23
247.232
-767.891
565.509
859.16
4087.62
4479.6
9623.36
6085.93
8754.49
8414.46
13072.5
10142
7191.53
4366.25
2408.54
3078.81
11375.5
4824.97
12203.3
4471.71
15002.3
9800.59
15986.1
9459.91
8670.7
3168.62
9421.65
2738.43
5186.95
4111.43
3668.03
6513.64
2467.16
3292.38
2325.45
5433.18
5723.05
3796.32
4494.28
7489.77
6973.11
3550.96
5401.69
7372.12
-504.14
-607.983
-693.615
113.085
-132.096
-167.183
-1866.37
-2146.14
-2272.17
199.351
-509.791
-607.38
-2285.52
-3079.36
-3407.89
745.317
-900.671
-1231.36
-632.237
-1191.14
-1059.42
-3958.26
-4193.6
-3853.73
-3083.76
-3533.32
-3388.72
-3324.5
-4007.79
-4087.92
365.626
-1307.98
-1224.48
4212.66
2129.6
1257.02
-1007.4
-2110.5
-2468.72
-1318.25
-2446.07
-2728.06
-833.559
-2166.17
-2437.43
1467.9
-873.725
-1022.09
69.1828
-1.12393
-23.15
-47.9425
-84.2117
-79.1018
-92.0743
-83.2816
192.012
3.06955
-73.6463
-140.855
-204.353
-193.89
-212.47
-200.874
372.325
57.1831
-69.3389
-218.06
-20.2121
-152.621