/*--------------------------------*- C++ -*----------------------------------*\
| =========                 |                                                 |
| \\      /  F ield         | OpenFOAM: The Open Source CFD Toolbox           |
|  \\    /   O peration     | Version:  2412                                  |
|   \\  /    A nd           | Website:  www.openfoam.com                      |
|    \\/     M anipulation  |                                                 |
\*---------------------------------------------------------------------------*/
FoamFile
{
    version     2.0;
    format      ascii;
    arch        "LSB;label=32;scalar=64";
    class       volScalarField;
    location    "1.6";
    object      T;
}
// * * * * * * * * * * * * * * * * * * * * * * * * * * * * * * * * * * * * * //

dimensions      [0 0 0 1 0 0 0];

internalField   nonuniform List<scalar> 
5712
(
539.011
556.171
525.735
546.28
508.055
531.729
480.82
506.48
484.475
510.379
509.732
535.3
521.361
544.745
532.302
552.527
498.8
481.981
516.697
490.812
472.122
454.044
488.841
461.566
546.931
553.678
560.456
563.838
536.783
545.633
552.767
558.038
535.633
522.288
509.316
501.792
536.559
547.635
537.276
543.036
499.135
506.458
513.051
519.003
469.793
476.112
549.017
554.167
518.967
528.709
559.681
565.57
558.418
566.873
566.458
570.446
551.11
564.12
561.332
568.564
541.135
559.422
550.772
564.416
557.63
566.808
561.753
568.292
467.711
452.632
475.55
456.161
433.831
420.46
441.874
424.598
503.372
484.711
496.438
481.031
480.9
458.532
483.978
459.768
447.492
427.326
450.658
428.749
508.501
487.172
511.418
488.394
529.582
557.481
513.346
546.276
523.24
553.3
508.93
542.516
533.953
559.545
515.943
548.428
536.262
560.405
517.095
549.732
553.438
542.421
563.579
555.37
545.302
534.244
560.137
550.906
533.493
521.866
554.152
543.657
451.843
412.921
486.776
514.481
545.481
411.537
449.626
482.081
508.151
536.151
410.832
446.574
476.502
502.901
534.984
520.525
500.24
524.618
505.253
515.127
494.895
522.6
502.845
506.235
486.637
518.987
499.121
404.285
390.714
441.893
428.075
471.99
455.332
494.943
476.529
515.537
495.639
403.102
388.203
437.561
423.042
466.09
450.097
490.606
472.637
513.2
492.723
436.842
425.571
436.269
425.19
402.411
381.785
401.48
378.93
466.318
457.574
466.292
456.448
435.974
424.469
436.739
425.391
401.652
377.915
402.825
379.549
466.062
457.112
466.875
458.038
493.833
485.439
517.561
509.867
492.817
483.017
516.23
506.151
493.685
485.14
517.921
510.771
494.031
485.621
517.988
510.394
476.676
457.012
446.205
479.836
459.353
448.375
472.088
452.091
441.293
477.229
455.989
444.691
463.167
442.707
431.592
472.967
450.562
438.738
373.133
360.145
353.445
409.191
391.717
382.262
434.946
414.912
403.697
453.533
432.704
421.459
468.031
444.29
431.653
369.463
355.913
348.519
405.603
389.5
380.947
430.374
411.649
401.556
448.872
427.24
415.58
462.44
438.534
426.062
409.367
395.814
413.3
400.154
439.157
422.709
447.864
429.096
380.684
360.186
381.929
362.138
381.6
360.713
383.374
363.235
381.461
378.277
380.928
374.479
359.716
363.841
402.924
405.791
433.552
437.464
382.993
385.293
383.424
385.085
366.154
367.66
338.41
319.251
343.87
322.415
339.968
319.01
345.334
322.598
341.1
318.559
347.686
323.243
350.668
325.328
352.658
326.985
374.111
362.265
381.37
367.223
401.094
387.703
409.428
392.852
360.363
347.053
353.048
342.493
385.437
370.165
387.84
371.741
414.369
395.926
417.193
397.462
364.051
349.799
366.066
351.337
342.713
320.651
331.296
315.361
336.344
316.771
327.613
312.803
346.329
323.261
333.68
317.092
348.398
325.062
335.168
318.213
321.188
310.704
312.824
306.153
322.394
312.352
312.593
306.333
323.943
315.88
312.221
307.179
354.009
377.917
337.04
325.834
311.489
375.913
350.554
331.207
319.531
307.65
376.17
352.472
335.08
322.558
309.797
302.581
295.178
299.445
292.414
304.956
297.423
300.404
293.522
309.081
301.845
302.037
295.41
368.978
356.253
343.726
332.731
326.171
318.075
314.625
307.28
304.139
297.868
368.74
355.611
346.017
335.169
329.433
320.606
317.315
309.309
306.734
300.415
349.119
335.744
350.298
335.255
370.244
353.55
371.315
351.577
333.717
322.086
332.48
321.868
351.321
334.942
352.719
336.356
372.74
350.09
374.274
351.596
334.671
322.339
335.855
323.472
319.843
310.795
309.142
301.092
319.484
310.098
308.433
300.856
320.126
311.521
309.544
301.182
321.593
312.249
310.183
302.282
286.332
281.463
279.553
280.594
277.264
276.145
289.027
283.792
281.596
281.696
278.2
276.916
293.38
287.734
285.445
283.423
279.578
278.193
342.227
332.319
327.544
322.16
314.685
311.343
308.737
302.442
299.884
298.122
292.163
289.688
285.116
281.106
279.492
340.654
330.068
324.889
323.256
314.543
310.26
310.22
302.946
299.533
298.77
293.009
290.693
286.241
282.295
280.311
303.821
294.206
288.354
284.014
305.168
294.729
288.607
284.068
303.71
294.225
288.434
284.127
305.371
294.9
288.804
284.237
303.456
294.217
288.567
284.31
305.63
295.139
289.062
284.454
306.694
295.742
289.296
284.536
307.733
296.395
289.562
284.635
304.71
294.912
289.008
284.581
302.757
294.255
288.613
284.655
302.926
294.118
288.622
284.507
301.56
293.681
288.328
284.616
306.046
295.589
289.277
284.628
303.747
294.789
288.858
284.735
307.085
296.187
289.568
284.769
304.566
295.283
289.144
284.916
301.593
293.392
287.997
283.995
299.006
292.47
287.542
284.021
301.451
293.378
288.033
284.081
299.038
292.511
287.573
284.094
301.213
293.347
288.086
284.231
299.309
292.663
287.674
284.229
300.834
293.283
288.112
284.422
299.469
292.775
287.779
284.406
300.379
293.181
288.051
284.574
296.688
291.715
287.003
284.263
295.383
291.354
286.762
284.34
297.051
291.862
287.092
284.328
295.799
291.515
286.849
284.4
297.655
292.116
287.237
284.438
296.502
291.798
286.993
284.505
298.404
292.429
287.457
284.603
297.396
292.163
287.202
284.647
299.375
292.842
287.722
284.776
298.296
292.553
287.416
284.794
300.743
293.63
288.074
285.023
299.555
293.344
287.836
285.096
300.117
293.226
287.895
284.905
299.026
292.96
287.629
284.947
301.301
294.04
288.244
285.129
300.065
293.746
288.027
285.237
301.944
294.49
288.495
285.297
300.708
294.188
288.278
285.418
280.311
277.967
276.378
275.407
274.949
280.324
277.973
276.382
275.409
274.951
280.355
277.987
276.389
275.413
274.953
280.377
277.999
276.395
275.417
274.956
280.402
278.01
276.4
275.419
274.957
280.454
278.04
276.417
275.429
274.964
280.566
278.1
276.449
275.447
274.977
280.672
278.161
276.483
275.467
274.99
280.509
278.065
276.429
275.436
274.968
280.527
278.068
276.43
275.436
274.968
280.453
278.034
276.412
275.426
274.962
280.492
278.049
276.42
275.43
274.965
280.575
278.101
276.449
275.447
274.976
280.59
278.104
276.449
275.447
274.976
280.687
278.167
276.486
275.468
274.991
280.7
278.168
276.485
275.468
274.99
280.299
277.96
276.375
275.406
274.948
280.294
277.957
276.373
275.404
274.947
280.333
277.976
276.382
275.409
274.951
280.325
277.97
276.379
275.408
274.949
280.378
277.995
276.392
275.414
274.954
280.368
277.988
276.388
275.412
274.952
280.429
278.018
276.403
275.421
274.958
280.413
278.009
276.398
275.418
274.956
280.464
278.035
276.412
275.425
274.961
533.939
528.763
533.306
528.112
532.102
526.933
530.691
525.35
529.666
524.008
531.203
528.046
530.368
526.36
531.666
528.704
532.067
529.092
564.726
571.171
572.585
572.907
572.976
557.858
569.318
572.163
572.817
572.955
564.875
571.235
572.603
572.912
572.978
557.86
569.369
572.181
572.822
572.957
564.923
571.288
572.619
572.916
572.979
557.749
569.405
572.198
572.828
572.958
565.02
571.348
572.636
572.92
572.98
557.59
569.42
572.207
572.83
572.959
565.128
571.38
572.641
572.92
572.98
557.483
569.397
572.197
572.826
572.957
564.014
570.951
572.517
572.888
572.97
557.136
569.025
572.063
572.787
572.945
564.441
571.139
572.575
572.904
572.975
557.222
569.195
572.13
572.807
572.952
563.739
570.828
572.478
572.877
572.967
557.104
568.933
572.022
572.774
572.941
563.898
570.856
572.48
572.876
572.966
557.253
568.95
572.018
572.771
572.94
416.729
456.173
453.164
414.422
395.587
397.471
402.932
406.175
416.136
419.474
443.217
450.533
447.743
454.743
424.793
427.447
415.362
417.864
406.605
408.643
355.722
337.969
294.932
289.98
293.418
290.394
294.423
354.407
347.737
330.536
336.483
330.469
310.99
320.475
315.286
305.983
308.814
304.501
349.26
323.795
308.661
306.647
312.78
308.954
302.025
301.924
299.825
297.36
303.557
302.144
349.923
329.214
335.499
319.052
312.89
324.237
302.745
296.882
305.48
340.408
326.39
314.288
301.515
284.32
328.097
317.743
307.001
295.201
280.973
292.683
289.556
285.5
280.776
275.639
288.282
285.89
282.753
279.073
275.062
291.35
288.453
284.671
280.257
275.462
288.652
286.201
282.984
279.214
275.109
292.237
289.188
285.222
280.6
275.578
339.361
324.315
311.659
298.902
283.352
332.706
318.582
306.563
294.559
280.748
321.78
312.094
301.947
291.217
279.36
323.985
311.835
301.167
290.587
279.299
319.539
308.362
298.489
288.733
278.481
306.337
300.43
293.387
285.593
277.274
313.763
305.928
297.26
288
278.13
309.578
302.679
294.842
286.419
277.549
302.214
297.237
291.094
284.179
276.785
304.503
298.96
292.286
284.888
277.023
300.969
296.252
290.376
283.735
276.632
336.125
322.419
310.548
298.208
282.951
316.952
308.809
299.724
289.799
278.808
304.523
299.12
292.515
285.09
277.104
302.857
297.835
291.609
284.547
276.921
308.003
301.907
294.614
286.454
277.59
304.866
299.482
292.86
285.349
277.196
298.907
294.677
289.316
283.146
276.444
298.818
294.597
289.239
283.083
276.42
296.983
293.083
288.094
282.356
276.169
294.829
291.325
286.804
281.57
275.905
300.197
295.675
289.993
283.523
276.565
299
294.731
289.322
283.123
276.432
336.361
323.045
311.458
299.186
283.311
321.36
312.503
302.848
292.155
279.762
326.781
315.804
305.213
293.679
279.808
313.387
306.28
297.998
288.698
278.356
308.232
302.189
294.895
286.653
277.639
317.525
309.274
300.138
290.07
278.766
299.533
295.182
289.681
283.365
276.517
294.404
290.975
286.549
281.418
275.855
301.879
297.068
291.061
284.214
276.807
500.03
542.236
491.845
531.815
467.255
511.146
474.791
522.727
482.288
470.951
511.105
486.098
457.285
444.627
484.32
457.749
518.286
533.341
550.947
557.085
512.111
527.333
544.168
551.762
529.146
505.736
504.5
490.934
522.401
542.046
535.406
542.632
497.064
505.942
511.337
518.563
468.106
475.655
547.061
553.786
516.984
528.236
558.191
565.339
546.757
562.915
562.428
569.09
540.001
560.513
557.294
567.243
532.25
556.601
546.779
563.098
556.172
566.28
561.462
568.177
464.407
453.214
473.48
456.427
433.098
423.545
441.135
426.165
500.754
484.272
491.946
480.217
479.912
458.7
483.716
459.837
447.12
428.135
450.563
429.022
507.276
486.988
511.088
488.349
527.187
556.619
512.775
546.079
518.884
551.745
507.822
542.157
532.856
559.138
515.689
548.34
535.969
560.292
517.026
549.708
534.623
521.065
557.379
548.119
527.71
514.762
554.76
544.768
519.617
507.473
550.152
539.555
454.617
424.262
483.069
508.55
543.367
424.404
452.608
477.204
500.728
533.746
420.743
449.675
475.576
500.993
534.462
500.299
483.935
516.619
501.834
496.771
480.28
516.331
500.836
492.676
476.742
515.441
499.372
416.9
405.928
444.968
433.36
468.218
454.45
489.325
474.368
514.199
497.64
413.239
399.855
441.911
430.367
466.916
454.7
490.409
476.227
513.683
496.169
440.072
430.303
438.425
428.16
408.575
389.477
405.218
383.689
467.431
459.425
467.648
459.333
437.166
426.06
437.117
425.878
403.545
380.242
403.409
380.254
466.75
458.163
467.102
458.368
494.423
486.573
517.996
510.639
493.386
484.892
516.768
507.555
494.096
485.801
518.203
511.199
494.18
485.846
518.078
510.526
471.624
465.131
488.365
482.07
467.671
460.549
486.808
479.129
463.973
456.469
484.162
474.362
394.653
388.426
422.476
414.882
443.27
434.693
461.514
452.531
480.342
468.366
384.826
379.682
419.515
412.902
442.777
434.517
460.944
450.395
474.945
462.962
400.372
392.379
409.139
399.091
427.848
416.411
444.025
426.615
381.281
362.759
385.877
366.316
379.468
362.755
384.643
366.514
381.778
376.31
381.829
374.917
362.389
366.475
402.638
405.749
432.459
437.159
383.491
385.529
384.107
385.345
367.862
368.298
348.833
329.967
350.901
330.789
349.541
329.022
351.361
329.933
349.74
327.483
352.419
329.064
353.455
328.912
353.604
328.215
379.196
370.243
383.677
371.582
403.475
393.741
410.23
395.99
364.225
352.14
360.646
351.284
386.59
372.429
388.189
372.484
414.73
397.522
417.303
397.984
366.019
352.513
366.665
352.233
347.808
325.757
336.481
319.962
345.496
324.582
336.102
319.753
348.998
326.186
336.537
319.735
349.215
326.004
336.126
319.091
345.202
342.041
327.84
324.551
345.635
342.537
326.695
323.454
345.153
342.229
324.943
321.919
373.456
395.976
355.675
342.191
322.434
396.841
374.113
355.141
340.544
320.537
391.925
369.206
350.503
335.743
319.234
338.33
332.693
319.411
310.531
339.095
333.866
318.785
310.36
338.845
333.527
317.765
309.901
389.976
380.341
368.614
360.865
351.466
345.849
337.003
330.963
317.4
310.291
384.45
371.971
363.447
353.248
345.846
337.422
331.3
323.223
316.689
310.227
359.122
345.848
355.996
341.038
379.244
363.306
376.467
357.317
339.4
327.464
342.25
331.228
354.161
337.724
353.593
337.193
375.261
352.839
375.041
352.422
337.564
324.955
336.76
324.272
324.926
315.336
313.482
304.679
328.144
317.906
315.276
306.761
322.826
313.832
311.926
303.042
322.503
312.995
310.899
302.833
326.79
324.358
294.374
292.021
329.519
326.555
295.012
292.485
328.085
323.845
295.479
292.419
371.042
365.604
353.489
349.226
339.191
335.299
323.602
319.109
295.697
292.018
359.463
355.376
342.892
339.136
327.941
324.459
312.818
310.11
294.011
291.138
310.968
298.512
291.009
285.619
311.4
298.643
291.086
285.588
310.418
298.29
290.946
285.64
310.882
298.396
291.039
285.614
309.47
297.895
290.87
285.716
310.083
298.003
290.914
285.588
309.559
297.629
290.503
285.246
308.747
297.073
290.003
284.903
308.39
297.282
290.558
285.563
306.068
296.412
290.04
285.629
308.058
297.296
290.644
285.773
306.26
296.631
290.189
285.814
308.289
297.074
290.281
285.3
305.724
296.112
289.766
285.391
307.846
296.7
289.914
284.997
305.227
295.732
289.455
285.142
310.057
298.212
290.874
285.725
308.656
297.768
290.584
285.881
309.521
298.016
290.807
285.752
308.226
297.623
290.516
285.899
308.649
297.684
290.699
285.822
307.551
297.369
290.42
285.944
307.361
297.165
290.483
285.904
306.857
297.082
290.313
286.001
306.241
296.734
290.21
285.938
307.013
297.339
290.109
286.328
305.853
297.113
289.922
286.527
306.795
297.251
290.098
286.334
305.669
297.026
289.903
286.522
306.376
297.069
290.044
286.323
305.328
296.855
289.84
286.499
305.976
296.84
290.014
286.327
305.008
296.633
289.781
286.475
305.482
296.532
289.947
286.313
304.552
296.346
289.679
286.43
304.018
295.81
289.472
286.04
302.781
295.539
289.233
286.137
304.825
296.213
289.751
286.216
303.712
295.978
289.491
286.317
303.227
295.371
289.117
285.783
301.934
295.075
288.889
285.889
302.571
294.933
288.789
285.519
301.309
294.626
288.565
285.637
281.157
278.425
276.627
275.549
275.046
281.14
278.418
276.624
275.547
275.045
281.138
278.41
276.617
275.543
275.043
281.106
278.396
276.611
275.54
275.04
281.113
278.392
276.607
275.537
275.038
281.041
278.36
276.59
275.528
275.032
280.933
278.302
276.559
275.51
275.02
280.816
278.24
276.526
275.492
275.007
281.02
278.342
276.58
275.521
275.027
281.036
278.344
276.579
275.521
275.027
281.082
278.372
276.595
275.53
275.034
281.076
278.362
276.589
275.526
275.031
280.944
278.304
276.56
275.51
275.02
280.959
278.307
276.56
275.51
275.02
280.813
278.237
276.524
275.49
275.006
280.83
278.241
276.525
275.49
275.006
281.179
278.433
276.63
275.551
275.048
281.199
278.438
276.632
275.552
275.048
281.17
278.423
276.623
275.547
275.045
281.192
278.429
276.626
275.548
275.046
281.154
278.408
276.614
275.541
275.041
281.179
278.416
276.618
275.543
275.042
281.129
278.389
276.603
275.535
275.036
281.15
278.398
276.607
275.537
275.038
281.102
278.375
276.595
275.53
275.033
530.517
526.264
530.633
526.356
530.621
526.332
530.308
525.789
530.07
525.145
531.605
528.572
530.881
527.189
531.915
529.002
532.148
529.186
564.265
571.103
572.573
572.905
572.976
557.162
569.188
572.141
572.813
572.954
564.521
571.183
572.594
572.91
572.977
557.344
569.271
572.164
572.82
572.956
564.735
571.26
572.615
572.915
572.979
557.514
569.355
572.189
572.826
572.958
564.989
571.344
572.635
572.92
572.98
557.624
569.418
572.206
572.83
572.959
565.202
571.392
572.643
572.921
572.98
557.688
569.428
572.202
572.827
572.957
564.106
570.971
572.521
572.889
572.971
557.312
569.065
572.071
572.789
572.946
564.547
571.159
572.579
572.904
572.975
557.45
569.24
572.138
572.809
572.952
563.799
570.842
572.481
572.877
572.967
557.211
568.96
572.028
572.775
572.941
563.918
570.861
572.481
572.876
572.966
557.287
568.959
572.02
572.771
572.94
416.401
455.629
451.264
412.933
405.656
412.294
403.49
411.613
433.637
450.669
437.659
453.804
277.146
277.626
278.692
280.41
282.823
285.977
277.546
278.026
279.086
280.768
283.118
286.198
276.822
276.66
277.305
277.14
278.395
278.23
280.208
280.1
282.775
282.847
286.19
286.62
289.866
294.882
301.641
311.021
319.078
324.979
290.089
294.942
300.857
307.491
313.29
317.01
276.751
276.182
275.42
274.513
273.515
277.183
276.548
275.698
274.686
273.573
278.146
277.362
276.315
275.071
273.704
279.694
278.67
277.306
275.688
273.914
281.866
280.503
278.693
276.551
274.207
284.699
282.887
280.493
277.671
274.586
277.112
276.488
275.652
274.657
273.564
277.545
276.854
275.93
274.83
273.622
278.5
277.661
276.542
275.212
273.752
280.015
278.94
277.51
275.815
273.957
282.129
280.723
278.858
276.654
274.241
284.894
283.048
280.613
277.745
274.612
276.457
275.934
275.232
274.395
273.475
276.311
275.81
275.138
274.336
273.455
276.894
276.303
275.512
274.57
273.534
276.744
276.177
275.416
274.51
273.514
277.877
277.136
276.144
274.964
273.668
277.729
277.01
276.049
274.905
273.648
279.512
278.518
277.191
275.617
273.889
279.416
278.436
277.13
275.578
273.876
281.824
280.468
278.667
276.535
274.201
281.889
280.524
278.709
276.562
274.21
284.891
283.05
280.616
277.747
274.612
285.278
283.375
280.861
277.898
274.663
288.178
285.804
282.689
279.035
275.049
292.639
289.522
285.48
280.768
275.637
298.586
294.435
289.156
283.059
276.418
306.693
301.043
294.106
286.188
277.498
313.467
306.5
298.242
288.896
278.478
318.327
310.383
301.224
290.906
279.219
288.373
285.964
282.809
279.11
275.075
292.691
289.567
285.515
280.792
275.646
297.916
293.899
288.765
282.817
276.336
303.718
298.677
292.348
285.066
277.109
308.734
302.785
295.44
287.031
277.794
311.927
305.393
297.416
288.304
278.242
277.221
277.859
279.109
281.052
283.743
287.227
277.625
278.269
279.513
281.408
284.003
287.348
276.893
276.729
277.53
277.359
278.804
278.633
280.859
280.752
283.742
283.837
287.594
288.17
291.457
296.775
303.703
312.893
320.402
325.46
291.488
296.523
302.477
308.917
314.276
317.364
276.819
276.24
275.464
274.54
273.524
277.395
276.728
275.835
274.772
273.603
278.524
277.684
276.561
275.225
273.757
280.277
279.168
277.687
275.927
273.995
282.702
281.217
279.239
276.895
274.324
285.837
283.861
281.24
278.141
274.747
277.183
276.548
275.699
274.687
273.574
277.765
277.041
276.073
274.92
273.653
278.887
277.991
276.794
275.37
273.806
280.597
279.436
277.89
276.053
274.038
282.934
281.41
279.384
276.985
274.354
285.94
283.943
281.3
278.178
274.759
276.522
275.989
275.274
274.421
273.483
276.374
275.863
275.178
274.362
273.463
277.097
276.476
275.644
274.653
273.562
276.943
276.345
275.545
274.591
273.541
278.249
277.452
276.385
275.115
273.719
278.094
277.321
276.286
275.053
273.698
280.103
279.021
277.576
275.858
273.972
280.007
278.94
277.515
275.82
273.959
282.703
281.219
279.242
276.897
274.325
282.789
281.293
279.298
276.932
274.337
286.17
284.144
281.456
278.276
274.793
286.69
284.584
281.79
278.484
274.864
289.63
287.049
283.647
279.639
275.256
294.373
291.016
286.635
281.5
275.888
300.487
296.085
290.443
283.88
276.701
308.439
302.578
295.32
286.974
277.771
314.717
307.612
299.134
289.483
278.685
318.785
310.796
301.558
291.13
279.299
289.649
287.059
283.651
279.641
275.257
294.138
290.812
286.478
281.401
275.855
299.405
295.188
289.766
283.454
276.555
305.037
299.826
293.247
285.642
277.308
309.651
303.589
296.075
287.441
277.936
312.257
305.683
297.646
288.453
278.294
356.5
338.649
297.31
291.843
296.434
292.714
297.248
363.098
360.813
339.414
351.488
318.016
329.311
312.317
316.656
310.511
354.909
329.806
314.368
311.464
318.038
312.992
304.894
305.706
304.908
301.569
308.818
306.626
352.358
331.142
339.608
321.845
316.334
328.872
306.169
300.325
309.703
341.228
327.165
314.974
302.041
284.535
328.768
318.362
307.52
295.566
281.108
294.862
291.435
286.955
281.699
275.956
289.982
287.349
283.876
279.782
275.304
294.109
290.827
286.505
281.419
275.86
290.77
288.018
284.383
280.098
275.412
294.825
291.418
286.947
281.693
275.953
348.789
333.377
319.557
304.687
285.723
347.023
331.983
318.056
302.849
284.045
330.674
320.34
308.823
295.934
281.095
340.262
326.618
313.526
299.248
282.665
313.048
306.446
298.22
288.765
278.389
322.524
313.967
303.866
292.442
279.732
308.161
302.495
295.264
286.883
277.726
311.919
305.558
297.553
288.325
278.227
306.6
301.224
294.314
286.283
277.518
342.036
328.06
315.448
301.779
284.41
322.788
314.127
304.084
292.728
279.859
309.9
303.892
296.315
287.562
277.967
307.362
301.805
294.752
286.58
277.627
312.981
306.348
298.174
288.787
278.408
308.645
302.817
295.504
287.062
277.791
301.561
296.988
291.124
284.303
276.843
302.319
297.649
291.628
284.613
276.948
301.665
297.144
291.259
284.376
276.865
298.691
294.66
289.39
283.214
276.47
305.097
299.975
293.379
285.703
277.32
303.155
298.36
292.167
284.948
277.062
338.905
325.416
313.513
300.706
283.94
323.229
314.2
304.244
293.105
280.107
330.872
319.561
308.355
295.84
280.545
316.036
308.646
299.902
289.952
278.792
311.47
305.058
297.181
288.141
278.156
322.006
313.334
303.457
292.29
279.545
302.704
297.95
291.85
284.755
276.997
297.566
293.708
288.671
282.767
276.319
305.814
300.523
293.786
285.971
277.415
278.775
289.876
299.985
308.811
315.952
321.372
479.919
474.456
450.189
455.633
466.226
459.371
442.289
433.2
500.529
518.753
496.308
513.872
490.644
481.127
508.681
469.155
465.199
441.901
446.062
458.403
453.386
435.329
428.296
489.112
503.466
486.421
500.12
481.829
474.007
496.171
454.111
451.703
430.131
432.957
446.893
444.099
425.206
420.075
472.053
486.353
470.425
484.339
467.621
462.326
481.764
438.946
437.368
417.681
419.821
433.862
432.17
413.663
409.269
455.923
470.17
454.867
468.578
452.665
448.286
466.455
428.004
426.658
408.57
410.516
423.289
421.389
404.682
399.756
443.703
456.665
442.966
456.053
441.1
436.959
454.384
420.436
419.142
402.403
404.28
415.819
413.832
398.62
393.801
434.547
447.721
433.845
447.542
432.307
428.421
445.866
398.866
395.946
422.627
426.466
392.091
384.879
416.878
407.733
375.481
355.992
373.117
355.475
368.06
366.782
354.578
394.536
391.682
416.656
419.964
387.962
381.124
411.449
403.272
370.41
353.81
367.95
353.571
363.459
362.602
352.61
388.147
385.525
407.765
410.416
382.073
376.092
403.396
396.67
368.187
352.325
365.98
351.511
361.82
360.881
349.995
380.994
378.389
397.865
400.181
374.456
368.133
393.792
387.008
364.061
349.701
361.66
348.076
357.25
355.506
345.564
375.77
373.173
390.629
392.842
369.349
363.039
386.622
379.845
360.818
348.314
358.124
345.507
353.352
350.784
341.793
372.544
369.937
385.852
388.023
366.178
359.864
381.912
375.349
359.653
346.903
356.738
343.284
351.156
348.008
339.005
539.672
556.612
525.733
546.25
508.056
531.718
480.825
506.48
484.485
510.381
509.743
535.293
521.38
544.733
533.181
553.122
498.798
481.979
516.692
490.809
472.124
454.044
488.841
461.566
547.403
554.029
560.75
564.054
536.774
545.615
552.735
558.007
535.621
522.279
509.31
501.787
536.547
547.62
537.274
543.035
499.133
506.456
513.051
519.002
469.792
476.112
549.013
554.166
518.964
528.707
559.677
565.569
558.693
566.997
566.629
570.516
551.088
564.114
561.307
568.557
541.123
559.417
550.761
564.412
557.626
566.806
561.752
568.291
467.709
452.63
475.548
456.16
433.83
420.46
441.873
424.597
503.368
484.709
496.434
481.029
480.898
458.53
483.977
459.767
447.491
427.325
450.657
428.749
508.499
487.17
511.416
488.392
529.577
557.479
513.344
546.275
523.234
553.298
508.927
542.515
533.95
559.544
515.941
548.428
536.26
560.404
517.094
549.732
553.708
542.673
563.729
555.535
545.272
534.208
560.13
550.894
533.478
521.852
554.147
543.653
451.841
412.921
486.772
514.474
545.478
411.536
449.624
482.077
508.143
536.149
410.831
446.572
476.498
502.897
534.983
520.735
500.408
524.763
505.362
515.112
494.876
522.611
502.851
506.226
486.629
518.989
499.123
404.284
390.713
441.891
428.073
471.987
455.33
494.938
476.525
515.537
495.64
403.101
388.203
437.559
423.04
466.087
450.095
490.603
472.635
513.199
492.722
436.841
425.57
436.268
425.189
402.41
381.785
401.479
378.929
466.317
457.573
466.29
456.447
435.973
424.468
436.738
425.39
401.652
377.914
402.824
379.549
466.06
457.111
466.874
458.037
493.832
485.438
517.56
509.866
492.815
483.016
516.229
506.15
493.684
485.139
517.92
510.771
494.03
485.62
517.987
510.394
476.845
457.196
446.407
479.948
459.491
448.532
472.076
452.082
441.289
477.234
455.993
444.697
463.162
442.704
431.591
472.969
450.563
438.741
373.132
360.144
353.445
409.189
391.716
382.262
434.944
414.911
403.697
453.53
432.702
421.458
468.031
444.29
431.654
369.462
355.913
348.518
405.602
389.499
380.947
430.372
411.648
401.555
448.871
427.24
415.58
462.439
438.534
426.063
409.375
395.817
413.308
400.157
439.163
422.712
447.87
429.098
380.555
360.13
381.769
362.06
381.586
360.701
383.359
363.224
381.459
378.274
380.928
374.479
359.711
363.837
402.926
405.793
433.553
437.465
382.994
385.294
383.424
385.086
366.154
367.661
338.358
319.242
343.805
322.399
339.966
319.002
345.332
322.593
341.098
318.555
347.684
323.24
350.667
325.327
352.659
326.984
374.112
362.266
381.371
367.224
401.095
387.704
409.429
392.852
360.363
347.054
353.048
342.493
385.438
370.166
387.841
371.742
414.369
395.926
417.193
397.462
364.052
349.799
366.067
351.338
342.712
320.65
331.296
315.361
336.344
316.769
327.613
312.803
346.329
323.261
333.681
317.092
348.399
325.063
335.169
318.213
321.145
310.64
312.815
306.127
322.395
312.356
312.586
306.329
323.943
315.882
312.218
307.178
354.01
377.917
337.04
325.835
311.488
375.913
350.555
331.208
319.533
307.651
376.17
352.472
335.08
322.559
309.797
302.503
295.092
299.419
292.383
304.965
297.434
300.41
293.531
309.086
301.85
302.04
295.414
368.978
356.254
343.727
332.732
326.172
318.076
314.627
307.283
304.14
297.87
368.74
355.611
346.018
335.17
329.434
320.607
317.316
309.31
306.735
300.416
349.119
335.744
350.298
335.255
370.244
353.55
371.315
351.577
333.717
322.086
332.48
321.868
351.321
334.942
352.719
336.356
372.74
350.089
374.273
351.596
334.671
322.339
335.855
323.472
319.844
310.795
309.142
301.092
319.484
310.098
308.433
300.857
320.127
311.521
309.545
301.182
321.593
312.25
310.184
302.282
286.255
281.393
279.486
280.587
277.251
276.131
289.043
283.806
281.608
281.708
278.21
276.923
293.388
287.741
285.451
283.428
279.583
278.197
342.227
332.319
327.544
322.161
314.686
311.344
308.74
302.444
299.886
298.126
292.166
289.692
285.118
281.108
279.494
340.655
330.068
324.889
323.257
314.543
310.26
310.221
302.947
299.534
298.771
293.01
290.695
286.242
282.296
280.312
303.822
294.204
288.349
284.008
305.16
294.722
288.598
284.059
303.707
294.224
288.433
284.127
305.37
294.899
288.803
284.237
303.455
294.217
288.566
284.31
305.629
295.139
289.061
284.454
306.693
295.742
289.295
284.536
307.733
296.395
289.562
284.635
304.709
294.912
289.008
284.581
302.757
294.255
288.613
284.655
302.925
294.117
288.622
284.507
301.56
293.681
288.328
284.616
306.046
295.589
289.277
284.628
303.747
294.789
288.858
284.735
307.085
296.188
289.568
284.769
304.566
295.283
289.144
284.916
301.596
293.391
287.994
283.99
299.001
292.468
287.539
284.017
301.448
293.377
288.032
284.081
299.036
292.511
287.572
284.094
301.211
293.347
288.086
284.231
299.309
292.663
287.673
284.229
300.834
293.282
288.112
284.422
299.469
292.775
287.779
284.406
300.379
293.181
288.051
284.574
296.683
291.713
287.001
284.26
295.373
291.349
286.76
284.337
297.054
291.863
287.092
284.328
295.802
291.516
286.849
284.399
297.656
292.116
287.236
284.438
296.504
291.799
286.993
284.504
298.404
292.429
287.457
284.603
297.397
292.164
287.202
284.647
299.375
292.842
287.722
284.776
298.296
292.553
287.416
284.794
300.743
293.63
288.074
285.023
299.555
293.344
287.836
285.096
300.117
293.226
287.895
284.905
299.026
292.96
287.629
284.947
301.301
294.04
288.244
285.129
300.065
293.746
288.027
285.237
301.944
294.49
288.495
285.297
300.708
294.188
288.278
285.418
280.309
277.966
276.378
275.407
274.949
280.321
277.971
276.381
275.409
274.951
280.355
277.987
276.389
275.413
274.953
280.377
277.999
276.395
275.417
274.956
280.402
278.01
276.4
275.419
274.958
280.454
278.04
276.417
275.429
274.964
280.566
278.1
276.45
275.448
274.977
280.672
278.161
276.483
275.467
274.99
280.509
278.065
276.429
275.436
274.969
280.527
278.068
276.43
275.436
274.969
280.453
278.034
276.413
275.426
274.962
280.493
278.049
276.42
275.43
274.965
280.575
278.102
276.449
275.447
274.977
280.59
278.104
276.449
275.447
274.976
280.688
278.167
276.486
275.468
274.991
280.7
278.168
276.485
275.468
274.991
280.297
277.96
276.375
275.405
274.948
280.292
277.956
276.373
275.404
274.947
280.332
277.976
276.382
275.41
274.951
280.324
277.97
276.379
275.408
274.949
280.378
277.995
276.392
275.415
274.954
280.368
277.988
276.388
275.412
274.953
280.429
278.018
276.403
275.421
274.958
280.413
278.009
276.398
275.418
274.956
280.464
278.035
276.412
275.425
274.962
533.997
528.827
533.324
528.129
532.111
526.941
530.694
525.354
529.666
524.009
531.203
528.046
530.368
526.36
531.665
528.703
532.066
529.091
564.765
571.181
572.587
572.908
572.977
557.886
569.325
572.165
572.817
572.955
564.889
571.24
572.604
572.912
572.978
557.875
569.375
572.183
572.823
572.957
564.929
571.29
572.62
572.916
572.979
557.756
569.408
572.199
572.828
572.958
565.022
571.349
572.636
572.92