/*--------------------------------*- C++ -*----------------------------------*\
| =========                 |                                                 |
| \\      /  F ield         | OpenFOAM: The Open Source CFD Toolbox           |
|  \\    /   O peration     | Version:  2412                                  |
|   \\  /    A nd           | Website:  www.openfoam.com                      |
|    \\/     M anipulation  |                                                 |
\*---------------------------------------------------------------------------*/
FoamFile
{
    version     2.0;
    format      ascii;
    arch        "LSB;label=32;scalar=64";
    class       surfaceScalarField;
    location    "10/topAir";
    object      phi;
}
// * * * * * * * * * * * * * * * * * * * * * * * * * * * * * * * * * * * * * //

dimensions      [1 0 -1 0 0 0 0];

oriented        oriented;

internalField   nonuniform List<scalar> 
3140
(
9.0686188e-06
1.1743831e-07
8.2912087e-08
8.840684e-06
1.2361849e-07
1.0431639e-07
8.6156108e-06
1.1495383e-07
1.1011928e-07
8.3912845e-06
1.1115448e-07
1.1317188e-07
8.1691814e-06
1.0780697e-07
1.1429609e-07
7.9529881e-06
1.0297475e-07
1.1321861e-07
7.7449673e-06
9.7505809e-08
1.1051496e-07
7.5460533e-06
9.205145e-08
1.0686253e-07
7.3566173e-06
8.6747754e-08
1.0268828e-07
7.1767925e-06
8.1592226e-08
9.8232566e-08
7.0065563e-06
7.6576938e-08
9.3659336e-08
6.8457743e-06
7.1673237e-08
8.9108697e-08
6.6942334e-06
6.6814363e-08
8.47267e-08
6.5514559e-06
6.2055728e-08
8.0724874e-08
6.4169323e-06
5.726702e-08
7.7262159e-08
6.2901311e-06
5.2471049e-08
7.4337705e-08
6.1705766e-06
4.7721022e-08
7.184247e-08
6.0578712e-06
4.3087104e-08
6.962775e-08
5.9516881e-06
3.8641305e-08
6.7551281e-08
5.8517441e-06
3.4442126e-08
6.5510955e-08
5.757774e-06
3.052831e-08
6.3450162e-08
5.669522e-06
2.6922723e-08
6.1336986e-08
5.5867486e-06
2.3639092e-08
5.9141362e-08
5.5092472e-06
2.0686887e-08
5.6820851e-08
5.4368688e-06
1.8073307e-08
5.4310792e-08
5.3695595e-06
1.5801114e-08
5.1513372e-08
5.3074207e-06
1.3859942e-08
4.8283618e-08
5.2508224e-06
1.2194498e-08
4.4408051e-08
5.2007108e-06
1.0565243e-08
3.9550309e-08
9.2647818e-09
3.396979e-08
9.3014386e-06
-3.4509053e-12
8.4963891e-08
9.3179132e-06
-7.1943415e-12
1.0715115e-07
9.3190298e-06
-1.2933662e-11
1.1385018e-07
9.3119462e-06
-2.246019e-11
1.1826049e-07
9.2988801e-06
-3.8352245e-11
1.2091138e-07
9.2804645e-06
-6.4733126e-11
1.2145508e-07
9.2576086e-06
-1.081149e-10
1.204698e-07
9.2312413e-06
-1.7842495e-10
1.1859725e-07
9.2020656e-06
-2.904608e-10
1.1621384e-07
9.170607e-06
-4.653829e-10
1.1351621e-07
9.1372922e-06
-7.3173851e-10
1.1062348e-07
9.1024759e-06
-1.1240711e-09
1.0761362e-07
9.0664419e-06
-1.6737327e-09
1.0452214e-07
9.0295471e-06
-2.3840348e-09
1.0133471e-07
8.9920136e-06
-3.2729332e-09
9.8073637e-08
8.9540358e-06
-4.3442592e-09
9.4793639e-08
8.9157741e-06
-5.5606712e-09
9.154401e-08
8.8773606e-06
-6.8646824e-09
8.8366144e-08
8.8389049e-06
-8.1928237e-09
8.5290917e-08
8.8005025e-06
-9.4850447e-09
8.2330815e-08
8.7622393e-06
-1.0689619e-08
7.9482483e-08
8.7241958e-06
-1.1763258e-08
7.6730988e-08
8.6864535e-06
-1.2667359e-08
7.4050296e-08
8.6491048e-06
-1.3363875e-08
7.1401093e-08
8.6122659e-06
-1.3812732e-08
6.8726647e-08
8.5760951e-06
-1.3970737e-08
6.5944445e-08
8.540828e-06
-1.3796838e-08
6.292567e-08
8.506862e-06
-1.3266331e-08
5.9428601e-08
8.4749917e-06
-1.2392495e-08
5.4829811e-08
-1.1322876e-08
4.782231e-08
9.3014281e-06
-1.1744289e-07
8.4963716e-08
9.3178979e-06
-1.2362783e-07
1.0715076e-07
9.3190058e-06
-1.1497026e-07
1.1384941e-07
9.3119069e-06
-1.1118254e-07
1.18259e-07
9.2988144e-06
-1.0785424e-07
1.2090844e-07
9.280354e-06
-1.0305364e-07
1.214493e-07
9.2574237e-06
-9.7636335e-08
1.2045854e-07
9.2309349e-06
-9.2265374e-08
1.1857567e-07
9.201566e-06
-8.7094718e-08
1.1617324e-07
9.1698077e-06
-8.2148772e-08
1.134417e-07
9.1360445e-06
-7.7459725e-08
1.1049118e-07
9.100589e-06
-7.3058677e-08
1.0739005e-07
9.0637037e-06
-6.896223e-08
1.0417392e-07
9.0256372e-06
-6.5171609e-08
1.0085411e-07
8.9866017e-06
-6.1683327e-08
9.7445868e-08
8.9467689e-06
-5.8493592e-08
9.3982168e-08
8.9062873e-06
-5.5583395e-08
9.0504315e-08
8.8652931e-06
-5.2921202e-08
8.7050808e-08
8.8239185e-06
-5.0470144e-08
8.3651942e-08
8.7823008e-06
-4.8193088e-08
8.03259e-08
8.7405877e-06
-4.6055531e-08
7.7079146e-08
8.6989413e-06
-4.4026045e-08
7.3909273e-08
8.657542e-06
-4.2074571e-08
7.0806716e-08
8.6165947e-06
-4.0169758e-08
6.7753315e-08
8.5763399e-06
-3.8276435e-08
6.4718752e-08
8.5370646e-06
-3.6352148e-08
6.1656994e-08
8.4991189e-06
-3.4340641e-08
5.848972e-08
8.4629587e-06
-3.2145356e-08
5.5039652e-08
8.4292962e-06
-2.949543e-08
5.0765725e-08
-2.669113e-08
4.4403305e-08
9.0685894e-06
8.2911671e-08
8.8406461e-06
1.043155e-07
8.6155582e-06
1.1011761e-07
8.391207e-06
1.1316867e-07
8.1690629e-06
1.142898e-07
7.952803e-06
1.1320626e-07
7.7446759e-06
1.1049082e-07
7.5455948e-06
1.0681572e-07
7.3559015e-06
1.0259858e-07
7.1756899e-06
9.806282e-08
7.0048878e-06
9.334236e-08
6.8433046e-06
8.8524517e-08
6.69068e-06
8.3662443e-08
6.5467219e-06
7.8786426e-08
6.4111166e-06
7.3922037e-08
6.2835172e-06
6.9105763e-08
6.16355e-06
6.4383816e-08
6.0508274e-06
5.9801403e-08
5.9449628e-06
5.5394496e-08
5.8455848e-06
5.1184895e-08
5.7523505e-06
4.7178762e-08
5.6649552e-06
4.3369221e-08
5.5831386e-06
3.9742058e-08
5.5066923e-06
3.6276609e-08
5.4354754e-06
3.2940437e-08
5.3694317e-06
2.9691558e-08
5.3086169e-06
2.6474223e-08
5.2532636e-06
2.3208043e-08
5.2040391e-06
1.9729221e-08
1.6355094e-08
9.1961217e-06
1.1942097e-07
3.6338602e-08
9.1094318e-06
1.2564529e-07
6.5360956e-08
9.0231437e-06
1.1674663e-07
7.9660765e-08
8.9359026e-06
1.1321705e-07
8.7195933e-08
8.8480621e-06
1.1028094e-07
9.1855702e-08
8.7611691e-06
1.0583807e-07
9.4273517e-08
8.6761249e-06
1.0077716e-07
9.4781941e-08
8.593296e-06
9.577103e-08
9.3920364e-08
8.5128782e-06
9.0948561e-08
9.2157604e-08
8.4350208e-06
8.6284318e-08
8.9805597e-08
8.3598463e-06
8.1744092e-08
8.7089818e-08
8.287472e-06
7.7255887e-08
8.4227066e-08
8.2180172e-06
7.2677415e-08
8.1504429e-08
8.151056e-06
6.8215378e-08
7.9478591e-08
8.0862504e-06
6.3565243e-08
7.8517198e-08
8.0232726e-06
5.8806561e-08
7.8528886e-08
7.9619251e-06
5.4037873e-08
7.9175802e-08
7.9021642e-06
4.9363102e-08
8.0050968e-08
7.8440673e-06
4.4882375e-08
8.0791343e-08
7.787755e-06
4.0661722e-08
8.1186364e-08
7.7333345e-06
3.6732897e-08
8.1161195e-08
7.6808896e-06
3.3109676e-08
8.0694045e-08
7.630492e-06
2.9800153e-08
7.9758968e-08
7.5822184e-06
2.6812125e-08
7.8301086e-08
7.53617e-06
2.4154992e-08
7.6221387e-08
7.4925049e-06
2.1835053e-08
7.3359344e-08
7.4514966e-06
1.9831384e-08
6.9475209e-08
7.4136817e-06
1.7993013e-08
6.424353e-08
7.3803113e-06
1.5622782e-08
5.7310499e-08
1.1141222e-08
4.8824734e-08
9.4357663e-06
-3.6155527e-12
3.7582896e-08
9.600474e-06
-7.6734453e-12
6.8096502e-08
9.7473548e-06
-1.3956309e-11
8.3729959e-08
9.8862004e-06
-2.4397075e-11
9.2656367e-08
1.0018611e-05
-4.1868217e-11
9.8823527e-08
1.014313e-05
-7.1008811e-11
1.0284538e-07
1.0259454e-05
-1.1929584e-10
1.0504233e-07
1.0368093e-05
-1.9840903e-10
1.0592726e-07
1.046965e-05
-3.2623244e-10
1.0593137e-07
1.0564658e-05
-5.2914614e-10
1.0532213e-07
1.065361e-05
-8.4361967e-10
1.0425959e-07
1.073696e-05
-1.3135826e-09
1.02833e-07
1.0815095e-05
-1.9707994e-09
1.0103463e-07
1.0888708e-05
-2.7845536e-09
9.8721852e-08
1.0958182e-05
-3.7844561e-09
9.5950707e-08
1.102389e-05
-5.0027099e-09
9.2895783e-08
1.1086149e-05
-6.4021121e-09
8.9725824e-08
1.114521e-05
-7.9222853e-09
8.6593151e-08
1.1201276e-05
-9.49433e-09
8.3604131e-08
1.1254534e-05
-1.1049357e-08
8.0786381e-08
1.1305158e-05
-1.2529376e-08
7.8124282e-08
1.1353307e-05
-1.3887614e-08
7.558226e-08
1.1399137e-05
-1.5081593e-08
7.3106167e-08
1.1442802e-05
-1.6066235e-08
7.0618674e-08
1.148446e-05
-1.6788016e-08
6.8015548e-08
1.1524269e-05
-1.7181076e-08
6.5156486e-08
1.1562346e-05
-1.7168605e-08
6.185238e-08
1.1598586e-05
-1.6669607e-08
5.785559e-08
1.1631795e-05
-1.5619208e-08
5.2867457e-08
-1.4110796e-08
4.6914025e-08
9.4357556e-06
-1.1942575e-07
3.7582583e-08
9.6004581e-06
-1.2565522e-07
6.8095747e-08
9.7473295e-06
-1.1676433e-07
8.3728429e-08
9.8861583e-06
-1.1324758e-07
9.2653333e-08
1.001854e-05
-1.103327e-07
9.8817551e-08
1.014301e-05
-1.0592499e-07
1.0283368e-07
1.0259251e-05
-1.0092202e-07
1.0501967e-07
1.0367755e-05
-9.6010796e-08
1.0588393e-07
1.0469095e-05
-9.1342691e-08
1.0584997e-07
1.0563763e-05
-8.6928159e-08
1.0517288e-07
1.0652205e-05
-8.2790828e-08
1.0399591e-07
1.073484e-05
-7.8954349e-08
1.0239582e-07
1.0812074e-05
-7.5424928e-08
1.00394e-07
1.0884361e-05
-7.2187199e-08
9.7970273e-08
1.0952111e-05
-6.9227364e-08
9.5138846e-08
1.1015663e-05
-6.6550402e-08
9.1978149e-08
1.1075312e-05
-6.4139508e-08
8.8592072e-08
1.113132e-05
-6.1961736e-08
8.5083054e-08
1.1183921e-05
-5.9978273e-08
8.1534639e-08
1.1233349e-05
-5.81492e-08
7.7998366e-08
1.1279839e-05
-5.643762e-08
7.4496928e-08
1.1323636e-05
-5.481059e-08
7.1035662e-08
1.1364993e-05
-5.3235691e-08
6.7604759e-08
1.1404182e-05
-5.1675889e-08
6.4174107e-08
1.14415e-05
-5.0084715e-08
6.0697385e-08
1.1477254e-05
-4.8395337e-08
5.7118472e-08
1.1511715e-05
-4.6501846e-08
5.3362085e-08
1.1544907e-05
-4.4147638e-08
4.9326691e-08
1.1575615e-05
-4.0477312e-08
4.4916104e-08
-3.3463392e-08
4.0188974e-08
9.1960919e-06
3.633793e-08
9.1093929e-06
6.5359336e-08
9.0230886e-06
7.9657492e-08
8.9358202e-06
8.7189475e-08
8.8479344e-06
9.1842996e-08
8.7609671e-06
9.4248567e-08
8.6758027e-06
9.4733155e-08
8.592782e-06
9.3825633e-08
8.5120628e-06
9.1975068e-08
8.4337408e-06
8.9456724e-08
8.3578641e-06
8.642815e-08
8.2844543e-06
8.298005e-08
8.2135348e-06
7.915701e-08
8.1451578e-06
7.4976261e-08
8.079387e-06
7.0465474e-08
8.0162444e-06
6.5698002e-08
7.955707e-06
6.07817e-08
7.8977171e-06
5.5829491e-08
7.842196e-06
5.0937335e-08
7.7890622e-06
4.6169446e-08
7.7382509e-06
4.155248e-08
7.6897213e-06
3.7088323e-08
7.6434608e-06
3.2766899e-08
7.5994936e-06
2.8567926e-08
7.5578905e-06
2.4458882e-08
7.5187489e-06
2.0437944e-08
7.4822478e-06
1.6473527e-08
7.4487315e-06
1.2576807e-08
7.4190286e-06
8.9549711e-09
6.2622417e-09
9.1665735e-06
1.1924375e-07
1.9490527e-08
9.069891e-06
1.2521937e-07
3.6824102e-08
8.9858454e-06
1.157867e-07
4.791968e-08
8.9066845e-06
1.1187138e-07
5.4485468e-08
8.8312346e-06
1.0869391e-07
5.8611707e-08
8.7603165e-06
1.0404853e-07
6.1142998e-08
8.6939181e-06
9.8820763e-08
6.2359624e-08
8.6315993e-06
9.3703301e-08
6.2535795e-08
8.572981e-06
8.8808491e-08
6.196744e-08
8.5178125e-06
8.4075612e-08
6.0898485e-08
8.4659627e-06
7.9406981e-08
5.9532599e-08
8.4174832e-06
7.4599072e-08
5.8107597e-08
8.3726618e-06
6.9264725e-08
5.7061934e-08
8.3300816e-06
6.4439626e-08
5.7644947e-08
8.2891005e-06
5.911383e-08
6.0432199e-08
8.2491057e-06
5.3552839e-08
6.5036261e-08
8.2097213e-06
4.793389e-08
7.0703576e-08
8.1709197e-06
4.2388037e-08
7.6547201e-08
8.1328736e-06
3.7093137e-08
8.1827083e-08
8.0957587e-06
3.2157773e-08
8.6223115e-08
8.0596763e-06
2.7628899e-08
8.9689683e-08
8.024662e-06
2.3530219e-08
9.2247987e-08
7.9907031e-06
1.9879864e-08
9.3902615e-08
7.9577527e-06
1.6695361e-08
9.4615779e-08
7.9257454e-06
1.4002323e-08
9.4281464e-08
7.8946355e-06
1.1836701e-08
9.2683411e-08
7.8645012e-06
1.0225102e-08
8.9431385e-08
7.8358974e-06
9.0713329e-09
8.3819419e-08
7.8107689e-06
7.8186731e-09
7.4660511e-08
5.2433652e-09
6.0505916e-08
9.4056773e-06
-4.0928644e-12
2.0114195e-08
9.5608225e-06
-8.773491e-12
3.8179477e-08
9.7103084e-06
-1.6207109e-11
5.0046902e-08
9.8573787e-06
-2.8865132e-11
5.7486336e-08
1.0002331e-05
-5.0586175e-11
6.2615531e-08
1.0143047e-05
-8.7810993e-11
6.6265968e-08
1.0278363e-05
-1.5134216e-10
6.8698119e-08
1.0408092e-05
-2.5881161e-10
7.0160219e-08
1.053236e-05
-4.3852434e-10
7.0911222e-08
1.065135e-05
-7.3401225e-10
7.1141368e-08
1.0765268e-05
-1.2070163e-09
7.0955504e-08
1.0874272e-05
-1.9279395e-09
7.0355648e-08
1.0978352e-05
-2.9034024e-09
6.9123024e-08
1.1078748e-05
-3.9376269e-09
6.6704047e-08
1.1175617e-05
-5.0847283e-09
6.328214e-08
1.1269308e-05
-6.5091834e-09
5.9269968e-08
1.136008e-05
-8.1845692e-09
5.5077193e-08
1.1448012e-05
-1.0065303e-08
5.1120406e-08
1.1533144e-05
-1.2075198e-08
4.7647559e-08
1.1615526e-05
-1.4111808e-08
4.4683441e-08
1.1695198e-05
-1.6083044e-08
4.2173982e-08
1.1772188e-05
-1.7906848e-08
4.0040362e-08
1.1846506e-05
-1.9502507e-08
3.8182184e-08
1.1918153e-05
-2.0788575e-08
3.6467932e-08
1.1987099e-05
-2.1651724e-08
3.4736737e-08
1.2053265e-05
-2.1931943e-08
3.2772114e-08
1.2116472e-05
-2.1439725e-08
3.0324111e-08
1.2176377e-05
-1.9916615e-08
2.695251e-08
1.2232096e-05
-1.7115038e-08
2.2097038e-08
-1.3166618e-08
1.5595995e-08
9.4056661e-06
-1.1924913e-07
2.0113853e-08
9.5608051e-06
-1.2523072e-07
3.8178669e-08
9.7102794e-06
-1.1580726e-07
5.0045234e-08
9.8573284e-06
-1.1190753e-07
5.7483e-08
1.0002243e-05
-1.0875656e-07
6.2608917e-08
1.0142892e-05
-1.041563e-07
6.6252934e-08
1.0278093e-05
-9.9005396e-08
6.8672652e-08
1.0407626e-05
-9.4018568e-08
7.0111024e-08
1.0531565e-05
-8.934581e-08
7.0817829e-08
1.0650027e-05
-8.4991697e-08
7.0968986e-08
1.0763138e-05
-8.097561e-08
7.0653538e-08
1.0871035e-05
-7.7312644e-08
6.9883351e-08
1.0973921e-05
-7.398279e-08
6.8586931e-08
1.107225e-05
-7.0915176e-08
6.66189e-08
1.1166421e-05
-6.8060633e-08
6.3943916e-08
1.1256691e-05
-6.5469037e-08
6.0668589e-08
1.1343278e-05
-6.3144405e-08
5.6965282e-08
1.1426335e-05
-6.1066865e-08
5.3027563e-08
1.1505985e-05
-5.9207814e-08
4.9017579e-08
1.1582361e-05
-5.7528751e-08
4.5039459e-08
1.1655625e-05
-5.5991622e-08
4.1142541e-08
1.1725942e-05
-5.4544903e-08
3.7358089e-08
1.1793477e-05
-5.3127236e-08
3.369492e-08
1.1858468e-05
-5.1675732e-08
3.0071415e-08
1.1921187e-05
-5.0118115e-08
2.6447085e-08
1.198188e-05
-4.8296555e-08
2.2791065e-08
1.2040865e-05
-4.5986584e-08
1.8925485e-08
1.2098293e-05
-4.2774955e-08
1.4759356e-08
1.2153389e-05
-3.7490582e-08
1.0198115e-08
-2.7681806e-08
5.4207593e-09
9.1665429e-06
1.9489786e-08
9.0698492e-06
3.6822365e-08
8.9857833e-06
4.7916123e-08
8.9065868e-06
5.4478383e-08
8.8310756e-06
5.8597651e-08
8.7600527e-06
6.1115132e-08
8.693476e-06
6.2304479e-08
8.6308562e-06
6.242693e-08
8.5717325e-06
6.1752954e-08
8.5157211e-06
6.0476389e-08
8.462473e-06
5.8700673e-08
8.4116824e-06
5.6457994e-08
8.3631327e-06
5.3723928e-08
8.3167523e-06
5.0441483e-08
8.2725644e-06
4.6592809e-08
8.2305267e-06
4.2266614e-08
8.1905432e-06
3.7620836e-08
8.1524773e-06
3.2828489e-08
8.1161669e-06
2.8039997e-08
8.0814585e-06
2.3349174e-08
8.0482784e-06
1.8741018e-08
8.0165601e-06
1.4261714e-08
7.9862145e-06
9.9853925e-09
7.9572597e-06
5.8471105e-09
7.9298795e-06
1.7211729e-09
7.9041554e-06
-2.1343097e-09
7.8803623e-06
-5.7196324e-09
7.8594053e-06
-9.2409032e-09
7.8432866e-06
-1.2416517e-08
-1.4683031e-08
9.1607066e-06
1.193943e-07
8.3588089e-09
9.0556856e-06
1.2559869e-07
1.6246409e-08
8.9652973e-06
1.1627214e-07
2.2035801e-08
8.8815819e-06
1.1238406e-07
2.5816806e-08
8.8027464e-06
1.0920609e-07
2.8241152e-08
8.7296076e-06
1.0452005e-07
2.9761738e-08
8.662184e-06
9.9205376e-08
3.05779e-08
8.5999281e-06
9.3963026e-08
3.0828609e-08
8.5423339e-06
8.8901587e-08
3.0660042e-08
8.4890935e-06
8.392935e-08
3.0209592e-08
8.4401613e-06
7.8854478e-08
2.9610274e-08
8.3959921e-06
7.322132e-08
2.905565e-08
8.3578476e-06
6.6148582e-08
2.906033e-08
8.3214331e-06
6.2127932e-08
3.2006432e-08
8.2860928e-06
5.7996426e-08
3.7915194e-08
8.2509882e-06
5.4514801e-08
4.5817895e-08
8.2155455e-06
5.1686915e-08
5.4686627e-08
8.1803731e-06
4.8942792e-08
6.301714e-08
8.1459931e-06
4.6362193e-08
7.0082659e-08
8.1126232e-06
4.3946248e-08
7.5873352e-08
8.0802998e-06
4.1695722e-08
8.0529016e-08
8.0489519e-06
3.9641996e-08
8.4149771e-08
8.0184126e-06
3.7833924e-08
8.6788326e-08
7.9884153e-06
3.6327439e-08
8.8451359e-08
7.9585804e-06
3.5199458e-08
8.9069223e-08
7.9284032e-06
3.4568093e-08
8.8432465e-08
7.8971625e-06
3.4724281e-08
8.607635e-08
7.8641996e-06
3.5830435e-08
8.1070209e-08
7.8296367e-06
3.7862645e-08
7.1469887e-08
4.1020913e-08
5.3493202e-08
9.3998415e-06
-4.5721241e-12
8.6323386e-09
9.5467398e-06
-9.8873655e-12
1.6889758e-08
9.689977e-06
-1.8545911e-11
2.3100332e-08
9.8325045e-06
-3.3602745e-11
2.737656e-08
9.9740127e-06
-6.0008537e-11
3.0373409e-08
1.0112376e-05
-1.0634817e-10
3.2529446e-08
1.0246439e-05
-1.8742293e-10
3.4027865e-08
1.03759e-05
-3.2832406e-10
3.4990227e-08
1.0500745e-05
-5.7063335e-10
3.5538597e-08
1.0621029e-05
-9.7987541e-10
3.5766441e-08
1.0736784e-05
-1.6477706e-09
3.5702818e-08
1.084778e-05
-2.6520693e-09
3.5233145e-08
1.0953075e-05
-3.8396226e-09
3.3816584e-08
1.1055914e-05
-4.3670863e-09
3.0361596e-08
1.115563e-05
-4.2899312e-09
2.585727e-08
1.125252e-05
-4.0499634e-09
2.0954073e-08
1.1346745e-05
-3.7156679e-09
1.6268969e-08
1.1437814e-05
-3.4716097e-09
1.248506e-08
1.1525633e-05
-3.3474995e-09
9.5609154e-09
1.161021e-05
-3.277119e-09
7.3574932e-09
1.1691559e-05
-3.216238e-09
5.7684521e-09
1.1769693e-05
-3.1059218e-09
4.6883437e-09
1.1844585e-05
-2.840141e-09
4.0010486e-09
1.191618e-05
-2.3465174e-09
3.585286e-09
1.1984317e-05
-1.4316029e-09
3.2710127e-09
1.204882e-05
6.0858033e-11
2.8186876e-09
1.2108926e-05
3.0917095e-09
1.8940355e-09
1.216374e-05
7.7683509e-09
2.4591817e-10
1.221248e-05
1.5124039e-08
-3.8590966e-09
2.5480001e-08
-1.1021456e-08
9.3998298e-06
-1.1940032e-07
8.6321106e-09
9.5467208e-06
-1.2561149e-07
1.6889228e-08
9.6899439e-06
-1.1629567e-07
2.3099241e-08
9.8324451e-06
-1.1242615e-07
2.7374369e-08
9.9739054e-06
-1.0928043e-07
3.0369019e-08
1.0112182e-05
-1.0465075e-07
3.2520697e-08
1.0246092e-05
-9.9434825e-08
3.4010542e-08
1.0375284e-05
-9.4366003e-08
3.4956327e-08
1.0499669e-05
-8.9611651e-08
3.5473655e-08
1.0619201e-05
-8.5190416e-08
3.5647189e-08
1.0733832e-05
-8.1129463e-08
3.5504692e-08
1.0843498e-05
-7.7431057e-08
3.499638e-08
1.0948287e-05
-7.4005371e-08
3.3963699e-08
1.1049074e-05
-7.0607101e-08
3.2072235e-08
1.1146513e-05
-6.7077011e-08
2.9291379e-08
1.1240895e-05
-6.3615644e-08
2.5853143e-08
1.1332442e-05
-6.0316877e-08
2.2020176e-08
1.1421159e-05
-5.7236847e-08
1.8076696e-08
1.1507004e-05
-5.4399821e-08
1.4225928e-08
1.1589977e-05
-5.1770055e-08
1.0560756e-08
1.1670154e-05
-4.9394869e-08
7.1470341e-09
1.1747628e-05
-4.7235578e-08
4.0163733e-09
1.1822352e-05
-4.5131394e-08
1.2656731e-09
1.1894635e-05
-4.2891024e-08
-1.6638276e-09
1.1964839e-05
-4.0381431e-08
-4.8017389e-09
1.2032984e-05
-3.7531588e-08
-7.7566947e-09
1.2099751e-05
-3.3872485e-08
-1.0871124e-08
1.2165449e-05
-2.8805705e-08
-1.4357554e-08
1.2229935e-05
-2.0845477e-08
-1.8310962e-08
-7.6906543e-09
-2.2217711e-08
9.160675e-06
8.35833e-09
9.0556406e-06
1.6245287e-08
8.9652276e-06
2.2033486e-08
8.8814677e-06
2.5812144e-08
8.8025531e-06
2.8231784e-08
8.7292746e-06
2.9742913e-08
8.6616043e-06
3.0539971e-08
8.5989132e-06
3.0751981e-08
8.54055e-06
3.0504509e-08
8.4859447e-06
2.9891329e-08
8.4345657e-06
2.895021e-08
8.3859365e-06
2.7656144e-08
8.339737e-06
2.5918031e-08
8.2959803e-06
2.3591161e-08
8.2548949e-06
2.060111e-08
8.2164848e-06
1.7061111e-08
8.1806145e-06
1.3174339e-08
8.1470362e-06
9.1699698e-09
8.1154023e-06
5.2741726e-09
8.08523e-06
1.7515628e-09
8.0564974e-06
-1.9211333e-09
8.0293265e-06
-5.8026259e-09
8.0033829e-06
-9.2020722e-09
7.978684e-06
-1.234456e-08
7.9552541e-06
-1.5229837e-08
7.9333097e-06
-1.7720757e-08
7.9135239e-06
-1.9805484e-08
7.8971208e-06
-2.1642451e-08
7.8872462e-06
-2.3386162e-08
-2.53957e-08
9.1579085e-06
1.1941946e-07
3.6675906e-14
9.048487e-06
1.2566785e-07
1.139527e-14
8.9542127e-06
1.1631012e-07
9.9378786e-15
8.8676863e-06
1.1234316e-07
9.6791116e-15
8.7868508e-06
1.0907665e-07
6.5237956e-15
8.7123173e-06
1.0429523e-07
8.2839395e-15
8.6440183e-06
9.8876837e-08
6.8995511e-15
8.5813232e-06
9.352376e-08
1.9811241e-14
8.5236526e-06
8.8330542e-08
-1.6539208e-15
8.4706996e-06
8.3162583e-08
5.4241332e-15
8.4226149e-06
7.7695023e-08
-1.9593781e-14
8.3805909e-06
7.1079949e-08
-4.3247877e-14
8.3479059e-06
6.1751332e-08
1.0437639e-14
8.3145716e-06
6.5520305e-08
3.0349828e-14
8.2813171e-06
7.1503454e-08
2.6306313e-13
8.2468581e-06
8.0739467e-08
5.4313003e-13
8.2099527e-06
9.2142452e-08
1.0883792e-12
8.1732278e-06
1.003076e-07
1.5935697e-12
8.1371163e-06
1.0673905e-07
2.0785623e-12
8.1017976e-06
1.1170089e-07
2.4943156e-12
8.0673848e-06
1.1540975e-07
2.8885676e-12
8.0338251e-06
1.1813684e-07
3.2121966e-12
8.0008728e-06
1.2012961e-07
3.4993997e-12
7.9680623e-06
1.2161566e-07
3.6783056e-12
7.9346262e-06
1.2282707e-07
3.887376e-12
7.899315e-06
1.2403636e-07
3.9326979e-12
7.8599905e-06
1.2566736e-07
3.9137679e-12
7.8128637e-06
1.2844011e-07
3.766478e-12
7.7509455e-06
1.3361042e-07
3.2839681e-12
1.4461625e-07
2.1353072e-12
9.3970174e-06
-4.9019979e-12
3.7238135e-14
9.5395856e-06
-1.0651039e-11
1.0878077e-14
9.6790162e-06
-2.0128263e-11
3.6397869e-15
9.8187727e-06
-3.6810941e-11
-1.6500257e-15
9.9582892e-06
-6.6434316e-11
-3.7759171e-15
1.0095233e-05
-1.191249e-10
-4.9318901e-15
1.022835e-05
-2.1269278e-10
2.229128e-16
1.0357242e-05
-3.7791439e-10
5.4152758e-15
1.0481778e-05
-6.6661951e-10
-8.6563885e-16
1.0601867e-05
-1.1603389e-09
-3.8593368e-15
1.0717228e-05
-1.9624751e-09
-9.8652288e-15
1.0826607e-05
-3.0666496e-09
2.1857186e-15
1.0926202e-05
-4.0266575e-09
-1.7092902e-14
1.1023616e-05
-1.5266363e-09
-4.6652972e-14
1.1116238e-05
4.7517458e-09
-2.4648249e-13
1.1204814e-05
1.3142072e-08
-4.4598764e-13
1.1290427e-05
2.283805e-08
-6.9040653e-13
1.1370923e-05
3.235036e-08
-8.3778534e-13
1.1446542e-05
4.0749241e-08
-9.4695259e-13
1.15175e-05
4.8180311e-08
-9.8769651e-13
1.1584004e-05
5.4764818e-08
-1.0359135e-12
1.1646298e-05
6.0629457e-08
-9.7468244e-13
1.170459e-05
6.5944217e-08
-9.4087968e-13
1.1758879e-05
7.1023447e-08
-9.1117434e-13
1.1808915e-05
7.6177547e-08
-9.141955e-13
1.1854189e-05
8.1698262e-08
-8.6658743e-13
1.1893506e-05
8.8364979e-08
-8.4729746e-13
1.192477e-05
9.754323e-08
-9.0608473e-13
1.1943447e-05
1.1119596e-07
-1.1233254e-12
1.3277299e-07
-1.6010239e-12
9.3970054e-06
-1.1942591e-07
3.7120296e-14
9.5395656e-06
-1.2568162e-07
1.3477637e-14
9.6789803e-06
-1.1633566e-07
4.0322815e-15
9.8187071e-06
-1.1238926e-07
9.1397044e-16
9.9581687e-06
-1.0915899e-07
-2.3341067e-15
1.0095012e-05
-1.0444184e-07
-5.9325983e-16
1.0227948e-05
-9.9138144e-08
-1.0559717e-15
1.0356518e-05
-9.399114e-08
5.862804e-15
1.0480498e-05
-8.9173742e-08
-8.9774684e-15
1.0599694e-05
-8.4708827e-08
-5.4681989e-15
1.0713851e-05
-8.0614769e-08
-1.3208874e-14
1.082262e-05
-7.6839098e-08
1.1225598e-15
1.0925674e-05
-7.3117496e-08
9.9374344e-15
1.1024868e-05
-6.8648165e-08
-2.4019074e-14
1.112172e-05
-6.2807756e-08
-1.0130751e-13
1.1216872e-05
-5.6156385e-08
-2.2103332e-13
1.1310863e-05
-4.913078e-08
-3.5282135e-13
1.14035e-05
-4.2206143e-08
-4.5621804e-13
1.1494327e-05
-3.5846788e-08
-5.8191972e-13
1.1583136e-05
-3.0062112e-08
-7.1293256e-13
1.1669723e-05
-2.4665677e-08
-7.8212113e-13
1.1753953e-05
-1.957373e-08
-8.5619815e-13
1.1835964e-05
-1.4787646e-08
-9.2933863e-13
1.1915575e-05
-1.0236004e-08
-9.7407545e-13
1.1992532e-05
-5.5636752e-09
-1.1337668e-12
1.2066432e-05
6.2458186e-11
-1.2794602e-12
1.2136542e-05
7.4071011e-09
-1.3992005e-12
1.2202614e-05
1.7138934e-08
-1.5244526e-12
1.2264746e-05
3.0781454e-08
-1.7171464e-12
5.0328095e-08
-1.9255863e-12
9.1578763e-06
3.5409048e-14
9.0484399e-06
1.6066643e-14
8.9541378e-06
1.1521589e-14
8.8675606e-06
3.4632509e-15
8.7866334e-06
6.1793785e-15
8.7119345e-06
7.0626767e-15
8.6433363e-06
1.5112615e-14
8.5800971e-06
5.2192857e-15
8.5214279e-06
3.8201045e-15
8.4666104e-06
-1.5934387e-14
8.4149459e-06
-2.1686374e-14
8.365763e-06
-3.7491461e-14
8.3185635e-06
-5.337016e-14
8.2735066e-06
-8.3118873e-14
8.2313002e-06
-1.5338571e-13
8.1922052e-06
-2.5726178e-13
8.1562492e-06
-4.1711619e-13
8.1232138e-06
-5.8276374e-13
8.0926422e-06
-7.9486458e-13
8.064333e-06
-1.0154487e-12
8.037748e-06
-1.224962e-12
8.0123739e-06
-1.4145976e-12
7.9883868e-06
-1.5854468e-12
7.9658093e-06
-1.6946975e-12
7.9450193e-06
-1.8134711e-12
7.9273649e-06
-1.7138456e-12
7.914971e-06
-1.7561413e-12
7.9104727e-06
-1.8535912e-12
7.917874e-06
-1.9670462e-12
-2.040996e-12
9.1579085e-06
1.1941946e-07
-8.3587336e-09
9.048487e-06
1.2566785e-07
-1.6246382e-08
8.9542127e-06
1.1631011e-07
-2.203578e-08
8.8676863e-06
1.1234316e-07
-2.5816785e-08
8.7868508e-06
1.0907665e-07
-2.8241133e-08
8.7123173e-06
1.0429524e-07
-2.9761722e-08
8.6440184e-06
9.8876841e-08
-3.0577887e-08
8.5813232e-06
9.3523769e-08
-3.0828595e-08
8.5236526e-06
8.8330554e-08
-3.0660032e-08
8.4706997e-06
8.3162585e-08
-3.0209599e-08
8.4226149e-06
7.7695029e-08
-2.9610309e-08
8.3805909e-06
7.1079905e-08
-2.9055712e-08
8.3479062e-06
6.1751168e-08
-2.9060412e-08
8.314572e-06
6.5520381e-08
-3.2006644e-08
8.2813179e-06
7.1503965e-08
-3.7915466e-08
8.2468589e-06
8.074084e-08
-4.5818249e-08
8.2099534e-06
9.2144925e-08
-5.4686851e-08
8.1732284e-06
1.0031094e-07
-6.3017212e-08
8.1371168e-06
1.0674317e-07
-7.0082496e-08
8.1017979e-06
1.1170564e-07
-7.5872959e-08
8.067385e-06
1.1541505e-07
-8.0528351e-08
8.033825e-06
1.1814263e-07
-8.4148922e-08
8.0008725e-06
1.2013575e-07
-8.6787263e-08
7.9680618e-06
1.216221e-07
-8.8450158e-08
7.9346254e-06
1.2283354e-07
-8.9067737e-08
7.8993137e-06
1.2404315e-07
-8.843089e-08
7.8599884e-06
1.2567436e-07
-8.607468e-08
7.8128602e-06
1.2844732e-07
-8.1068502e-08
7.7509394e-06
1.3361794e-07
-7.1468189e-08
1.446245e-07
-5.3491476e-08
9.3970174e-06
-4.9053492e-12
-8.6322663e-09
9.5395856e-06
-1.0651925e-11
-1.6889734e-08
9.6790162e-06
-2.0127913e-11
-2.3100315e-08
9.8187727e-06
-3.6810825e-11
-2.7376548e-08
9.9582892e-06
-6.6433251e-11
-3.0373403e-08
1.0095233e-05
-1.1912812e-10
-3.2529442e-08
1.022835e-05
-2.126928e-10
-3.4027869e-08
1.0357242e-05
-3.7791613e-10
-3.4990232e-08
1.0481778e-05
-6.6660311e-10
-3.5538605e-08
1.0601867e-05
-1.1603578e-09
-3.5766449e-08
1.0717228e-05
-1.9624486e-09
-3.5702815e-08
1.0826607e-05
-3.0666733e-09
-3.5233108e-08
1.0926202e-05
-4.0266737e-09
-3.3816486e-08
1.1023615e-05
-1.5265585e-09
-3.0361367e-08
1.1116236e-05
4.7521056e-09
-2.5857014e-08
1.1204812e-05
1.3142934e-08
-2.0953828e-08
1.1290424e-05
2.283955e-08
-1.6268752e-08
1.137092e-05
3.235257e-08
-1.2484864e-08
1.1446538e-05
4.0752207e-08
-9.5607229e-09
1.1517495e-05
4.8183888e-08
-7.3572818e-09
1.1583997e-05
5.4768997e-08
-5.7682297e-09
1.1646291e-05
6.0634143e-08
-4.6880349e-09
1.1704581e-05
6.5949429e-08
-4.0007042e-09
1.1758868e-05
7.1029171e-08
-3.5848594e-09
1.1808902e-05
7.6183603e-08
-3.2705532e-09
1.1854175e-05
8.1704502e-08
-2.8181999e-09
1.189349e-05
8.8371612e-08
-1.8935668e-09
1.1924752e-05
9.7550282e-08
-2.454749e-10
1.1943427e-05
1.1120361e-07
3.8594869e-09
1.3278169e-07
1.1021774e-08
9.3970054e-06
-1.1942591e-07
-8.6320433e-09
9.5395656e-06
-1.2568161e-07
-1.6889204e-08
9.6789803e-06
-1.1633566e-07
-2.3099222e-08
9.8187071e-06
-1.1238927e-07
-2.7374352e-08
9.9581687e-06
-1.0915899e-07
-3.0369006e-08
1.0095012e-05
-1.0444185e-07
-3.2520691e-08
1.0227948e-05
-9.9138139e-08
-3.4010545e-08
1.0356518e-05
-9.399117e-08
-3.4956334e-08
1.0480498e-05
-8.9173727e-08
-3.5473666e-08
1.0599694e-05
-8.4708859e-08
-3.5647196e-08
1.0713851e-05
-8.0614735e-08
-3.5504688e-08
1.082262e-05
-7.6839093e-08
-3.4996349e-08
1.0925674e-05
-7.3117461e-08
-3.3963618e-08
1.1024868e-05
-6.864815e-08
-3.2072113e-08
1.1121719e-05
-6.2807634e-08
-2.9291224e-08
1.1216872e-05
-5.6156121e-08
-2.585297e-08
1.1310863e-05
-4.9130234e-08
-2.2019964e-08
1.1403499e-05
-4.2205276e-08
-1.8076424e-08
1.1494327e-05
-3.5845591e-08
-1.4225618e-08
1.1583137e-05
-3.0060609e-08
-1.0560435e-08
1.1669723e-05
-2.466385e-08
-7.146658e-09
1.1753954e-05
-1.9571646e-08
-4.015967e-09
1.1835965e-05
-1.4785143e-08
-1.2653163e-09
1.1915577e-05
-1.023332e-08
1.664427e-09
1.1992535e-05
-5.5606763e-09
4.8022085e-09
1.2066435e-05
6.5408444e-11
7.7572403e-09
1.2136544e-05
7.4111032e-09
1.0871598e-08
1.2202616e-05
1.7143198e-08
1.4357972e-08
1.2264747e-05
3.0786061e-08
1.8311295e-08
5.0333142e-08
2.2217945e-08
9.1578763e-06
-8.3582619e-09
9.0484399e-06
-1.624526e-08
8.9541378e-06
-2.2033466e-08
8.8675606e-06
-2.5812122e-08
8.7866334e-06
-2.8231767e-08
8.7119345e-06
-2.9742895e-08
8.6433363e-06
-3.0539955e-08
8.5800971e-06
-3.0751973e-08
8.5214279e-06
-3.0504507e-08
8.4666103e-06
-2.9891343e-08
8.4149458e-06
-2.8950234e-08
8.3657629e-06
-2.7656179e-08
8.3185634e-06
-2.5918061e-08
8.2735064e-06
-2.3591186e-08
8.2312997e-06
-2.0601148e-08
8.1922046e-06
-1.706118e-08
8.1562485e-06
-1.3174471e-08
8.1232129e-06
-9.1701661e-09
8.0926413e-06
-5.2744969e-09
8.064332e-06
-1.7519974e-09
8.0377472e-06
1.9203056e-09
8.0123731e-06
5.8018401e-09
7.9883862e-06
9.2011993e-09
7.965809e-06
1.2343605e-08
7.9450195e-06
1.5228711e-08
7.9273659e-06
1.7719462e-08
7.9149738e-06
1.980418e-08
7.9104773e-06
2.1641196e-08
7.9178804e-06
2.3385003e-08
2.5394711e-08
9.1607066e-06
1.1939429e-07
-1.9490463e-08
9.0556856e-06
1.255987e-07
-3.6824082e-08
8.9652974e-06
1.1627213e-07
-4.7919657e-08
8.881582e-06
1.1238407e-07
-5.4485451e-08
8.8027464e-06
1.092061e-07
-5.8611693e-08
8.7296076e-06
1.0452007e-07
-6.114299e-08
8.662184e-06
9.9205384e-08
-6.2359621e-08
8.5999282e-06
9.3963034e-08
-6.2535805e-08
8.5423339e-06
8.890161e-08
-6.1967452e-08
8.4890935e-06
8.3929361e-08
-6.0898529e-08
8.4401614e-06
7.8854487e-08
-5.953264e-08
8.395992e-06
7.3221345e-08
-5.8107644e-08
8.3578477e-06
6.6148455e-08
-5.7062002e-08
8.3214333e-06
6.2127603e-08
-5.7645001e-08
8.2860934e-06
5.7996036e-08
-6.0432434e-08
8.2509889e-06
5.4514799e-08
-6.5036677e-08
8.2155462e-06
5.1687388e-08
-7.0704279e-08
8.1803737e-06
4.8943874e-08
-7.6548203e-08
8.1459936e-06
4.6363686e-08
-8.1828358e-08
8.1126236e-06
4.3948291e-08
-8.6224657e-08
8.0803002e-06
4.1698206e-08
-8.9691448e-08
8.048952e-06
3.9644951e-08
-9.2249907e-08
8.0184126e-06
3.7837175e-08
-9.3904647e-08
7.988415e-06
3.6331084e-08
-9.461789e-08
7.9585799e-06
3.5203201e-08
-9.4283584e-08
7.9284023e-06
3.4572203e-08
-9.2685582e-08
7.8971611e-06
3.4728741e-08
-8.9433525e-08
7.8641971e-06
3.5835226e-08
-8.3821445e-08
7.8296323e-06
3.7867916e-08
-7.4662246e-08
4.1027137e-08
-6.0507011e-08
9.3998415e-06
-4.573625e-12
-2.0114134e-08
9.5467398e-06
-9.8968306e-12
-3.817946e-08
9.689977e-06
-1.8542659e-11
-5.0046886e-08