/*--------------------------------*- C++ -*----------------------------------*\
| =========                 |                                                 |
| \\      /  F ield         | OpenFOAM: The Open Source CFD Toolbox           |
|  \\    /   O peration     | Version:  2412                                  |
|   \\  /    A nd           | Website:  www.openfoam.com                      |
|    \\/     M anipulation  |                                                 |
\*---------------------------------------------------------------------------*/
FoamFile
{
    version     2.0;
    format      ascii;
    arch        "LSB;label=32;scalar=64";
    class       volScalarField;
    location    "10/topAir";
    object      rho;
}
// * * * * * * * * * * * * * * * * * * * * * * * * * * * * * * * * * * * * * //

dimensions      [1 -3 0 0 0 0 0];

internalField   nonuniform List<scalar> 
1200
(
1.1586212
1.1586212
1.1586211
1.1586211
1.1586211
1.1586211
1.1586211
1.1586211
1.1586211
1.1586211
1.1586211
1.1586211
1.1586208
1.1586113
1.1586031
1.1585967
1.1585927
1.158591
1.1585913
1.1585929
1.158595
1.1585973
1.1585996
1.1586016
1.1586035
1.1586051
1.1586066
1.1586079
1.1586091
1.1586101
1.1586201
1.1586201
1.1586201
1.1586201
1.1586201
1.1586201
1.1586201
1.1586201
1.1586201
1.1586201
1.1586201
1.1586201
1.1586201
1.1586198
1.1586193
1.1586187
1.158618
1.1586173
1.1586166
1.1586161
1.1586157
1.1586153
1.158615
1.1586148
1.1586147
1.1586146
1.1586145
1.1586145
1.1586145
1.1586145
1.158619
1.158619
1.158619
1.158619
1.158619
1.158619
1.158619
1.158619
1.158619
1.158619
1.158619
1.158619
1.158619
1.158619
1.1586189
1.1586189
1.1586189
1.1586188
1.1586187
1.1586186
1.1586186
1.1586185
1.1586184
1.1586183
1.1586182
1.1586181
1.158618
1.158618
1.1586179
1.1586178
1.158618
1.158618
1.158618
1.158618
1.158618
1.1586179
1.1586179
1.1586179
1.1586179
1.1586179
1.1586179
1.1586179
1.1586179
1.1586179
1.1586179
1.1586179
1.1586179
1.1586179
1.1586179
1.1586179
1.1586178
1.1586178
1.1586178
1.1586178
1.1586178
1.1586177
1.1586177
1.1586177
1.1586177
1.1586176
1.1586212
1.1586212
1.1586212
1.1586211
1.1586211
1.1586211
1.1586211
1.1586211
1.1586211
1.1586211
1.1586211
1.1586211
1.1586201
1.1585905
1.1585644
1.1585434
1.1585295
1.1585235
1.1585236
1.1585276
1.1585333
1.1585395
1.1585456
1.1585514
1.1585568
1.1585617
1.1585663
1.1585704
1.1585743
1.1585776
1.1586201
1.1586201
1.1586201
1.1586201
1.1586201
1.1586201
1.1586201
1.1586201
1.1586201
1.1586201
1.1586201
1.1586201
1.15862
1.1586193
1.1586179
1.1586162
1.1586142
1.1586123
1.1586104
1.1586088
1.1586075
1.1586063
1.1586053
1.1586045
1.1586039
1.1586034
1.158603
1.1586027
1.1586025
1.1586023
1.158619
1.158619
1.158619
1.158619
1.158619
1.158619
1.158619
1.158619
1.158619
1.158619
1.158619
1.158619
1.158619
1.158619
1.1586189
1.1586188
1.1586187
1.1586186
1.1586184
1.1586182
1.158618
1.1586178
1.1586176
1.1586174
1.1586171
1.1586169
1.1586167
1.1586165
1.1586162
1.158616
1.158618
1.158618
1.158618
1.158618
1.158618
1.158618
1.1586179
1.1586179
1.1586179
1.1586179
1.1586179
1.1586179
1.1586179
1.1586179
1.1586179
1.1586179
1.1586179
1.1586179
1.1586179
1.1586178
1.1586178
1.1586178
1.1586177
1.1586177
1.1586176
1.1586176
1.1586175
1.1586175
1.1586174
1.1586173
1.1586212
1.1586212
1.1586211
1.1586211
1.1586211
1.1586211
1.1586211
1.1586211
1.1586211
1.1586211
1.1586211
1.158621
1.1586171
1.1584994
1.1583949
1.1583101
1.158254
1.1582326
1.1582365
1.1582543
1.1582777
1.1583025
1.1583265
1.1583492
1.1583702
1.1583895
1.1584073
1.1584237
1.1584386
1.1584519
1.1586201
1.1586201
1.1586201
1.1586201
1.1586201
1.1586201
1.1586201
1.1586201
1.1586201
1.1586201
1.1586201
1.1586201
1.1586199
1.1586169
1.1586117
1.1586049
1.1585974
1.1585899
1.1585831
1.1585771
1.1585719
1.1585676
1.158564
1.158561
1.1585586
1.1585566
1.1585551
1.1585539
1.158553
1.1585523
1.158619
1.158619
1.158619
1.158619
1.158619
1.158619
1.158619
1.158619
1.158619
1.158619
1.158619
1.158619
1.158619
1.1586189
1.1586188
1.1586185
1.1586181
1.1586176
1.158617
1.1586163
1.1586155
1.1586147
1.1586139
1.158613
1.1586122
1.1586113
1.1586105
1.1586096
1.1586088
1.158608
1.158618
1.158618
1.158618
1.158618
1.158618
1.158618
1.1586179
1.1586179
1.1586179
1.1586179
1.1586179
1.1586179
1.1586179
1.1586179
1.1586179
1.1586179
1.1586179
1.1586178
1.1586178
1.1586177
1.1586176
1.1586175
1.1586174
1.1586172
1.1586171
1.1586169
1.1586167
1.1586164
1.1586162
1.158616
1.1586212
1.1586211
1.1586211
1.1586211
1.1586211
1.1586211
1.1586211
1.1586211
1.1586211
1.1586211
1.1586211
1.1586206
1.1586064
1.1581753
1.157789
1.1574692
1.1572563
1.1571983
1.1572354
1.157316
1.1574111
1.1575072
1.1575989
1.1576844
1.1577631
1.1578354
1.1579015
1.1579618
1.1580166
1.1580648
1.1586201
1.1586201
1.1586201
1.1586201
1.1586201
1.1586201
1.1586201
1.1586201
1.1586201
1.1586201
1.1586201
1.1586201
1.1586194
1.1586085
1.1585893
1.1585639
1.1585354
1.1585072
1.1584815
1.1584591
1.15844
1.158424
1.1584108
1.1584001
1.1583917
1.1583851
1.1583802
1.1583768
1.1583744
1.1583728
1.158619
1.158619
1.158619
1.158619
1.158619
1.158619
1.158619
1.158619
1.158619
1.158619
1.158619
1.158619
1.158619
1.1586187
1.1586182
1.1586171
1.1586157
1.1586137
1.1586114
1.1586088
1.158606
1.1586029
1.1585998
1.1585966
1.1585934
1.1585902
1.1585869
1.1585836
1.1585802
1.1585768
1.158618
1.158618
1.158618
1.158618
1.158618
1.158618
1.1586179
1.1586179
1.1586179
1.1586179
1.1586179
1.1586179
1.1586179
1.1586179
1.1586179
1.1586178
1.1586177
1.1586176
1.1586174
1.1586172
1.1586168
1.1586164
1.158616
1.1586154
1.1586148
1.1586141
1.1586134
1.1586126
1.1586117
1.1586108
1.1586212
1.1586211
1.1586211
1.1586211
1.1586211
1.1586211
1.1586211
1.1586211
1.1586211
1.1586211
1.158621
1.1586195
1.1585755
1.1572159
1.1560077
1.1549951
1.1543129
1.154317
1.1545801
1.1549217
1.1552696
1.1555974
1.155897
1.1561677
1.1564112
1.1566296
1.1568254
1.1570007
1.1571572
1.1572925
1.1586201
1.1586201
1.1586201
1.1586201
1.1586201
1.1586201
1.1586201
1.1586201
1.1586201
1.1586201
1.1586201
1.15862
1.1586181
1.1585838
1.158522
1.1584377
1.1583392
1.1582455
1.1581635
1.1580951
1.1580398
1.1579967
1.1579642
1.1579409
1.1579255
1.1579167
1.1579136
1.1579149
1.1579199
1.1579274
1.158619
1.158619
1.158619
1.158619
1.158619
1.158619
1.158619
1.158619
1.158619
1.158619
1.158619
1.158619
1.1586189
1.1586182
1.1586164
1.158613
1.1586078
1.1586009
1.1585924
1.1585829
1.1585726
1.1585618
1.1585508
1.1585398
1.158529
1.1585184
1.1585082
1.1584983
1.1584887
1.1584792
1.158618
1.158618
1.158618
1.158618
1.158618
1.158618
1.1586179
1.1586179
1.1586179
1.1586179
1.1586179
1.1586179
1.1586179
1.1586179
1.1586178
1.1586177
1.1586174
1.158617
1.1586163
1.1586155
1.1586145
1.1586133
1.1586118
1.1586102
1.1586084
1.1586064
1.1586042
1.1586018
1.1585992
1.1585963
1.1586212
1.1586211
1.1586211
1.1586211
1.1586211
1.1586211
1.1586211
1.1586211
1.1586211
1.1586211
1.158621
1.1586195
1.1585755
1.1572158
1.1560076
1.1549949
1.1543127
1.1543167
1.1545799
1.1549215
1.1552695
1.1555972
1.1558969
1.1561676
1.1564111
1.1566295
1.1568253
1.1570006
1.1571571
1.1572924
1.1586201
1.1586201
1.1586201
1.1586201
1.1586201
1.1586201
1.1586201
1.1586201
1.1586201
1.1586201
1.1586201
1.15862
1.1586181
1.1585837
1.158522
1.1584377
1.1583392
1.1582455
1.1581635
1.158095
1.1580398
1.1579967
1.1579641
1.1579409
1.1579254
1.1579167
1.1579135
1.1579149
1.1579199
1.1579274
1.158619
1.158619
1.158619
1.158619
1.158619
1.158619
1.158619
1.158619
1.158619
1.158619
1.158619
1.158619
1.1586189
1.1586182
1.1586164
1.158613
1.1586078
1.1586009
1.1585924
1.1585829
1.1585726
1.1585618
1.1585508
1.1585398
1.158529
1.1585184
1.1585082
1.1584983
1.1584887
1.1584792
1.158618
1.158618
1.158618
1.158618
1.158618
1.158618
1.1586179
1.1586179
1.1586179
1.1586179
1.1586179
1.1586179
1.1586179
1.1586179
1.1586178
1.1586177
1.1586174
1.158617
1.1586163
1.1586155
1.1586145
1.1586133
1.1586118
1.1586102
1.1586084
1.1586064
1.1586042
1.1586018
1.1585992
1.1585963
1.1586212
1.1586211
1.1586211
1.1586211
1.1586211
1.1586211
1.1586211
1.1586211
1.1586211
1.1586211
1.1586211
1.1586206
1.1586064
1.1581753
1.157789
1.1574692
1.1572562
1.1571982
1.1572353
1.1573159
1.157411
1.1575071
1.1575988
1.1576843
1.157763
1.1578353
1.1579015
1.1579618
1.1580166
1.1580647
1.1586201
1.1586201
1.1586201
1.1586201
1.1586201
1.1586201
1.1586201
1.1586201
1.1586201
1.1586201
1.1586201
1.1586201
1.1586194
1.1586085
1.1585893
1.1585639
1.1585353
1.1585072
1.1584815
1.1584591
1.15844
1.158424
1.1584108
1.1584001
1.1583917
1.1583851
1.1583802
1.1583767
1.1583744
1.1583728
1.158619
1.158619
1.158619
1.158619
1.158619
1.158619
1.158619
1.158619
1.158619
1.158619
1.158619
1.158619
1.158619
1.1586187
1.1586182
1.1586171
1.1586157
1.1586137
1.1586114
1.1586088
1.158606
1.1586029
1.1585998
1.1585966
1.1585934
1.1585902
1.1585869
1.1585836
1.1585802
1.1585768
1.158618
1.158618
1.158618
1.158618
1.158618
1.158618
1.1586179
1.1586179
1.1586179
1.1586179
1.1586179
1.1586179
1.1586179
1.1586179
1.1586179
1.1586178
1.1586177
1.1586176
1.1586174
1.1586172
1.1586168
1.1586164
1.158616
1.1586154
1.1586148
1.1586141
1.1586134
1.1586126
1.1586117
1.1586108
1.1586212
1.1586212
1.1586211
1.1586211
1.1586211
1.1586211
1.1586211
1.1586211
1.1586211
1.1586211
1.1586211
1.158621
1.1586171
1.1584994
1.1583949
1.1583101
1.158254
1.1582325
1.1582365
1.1582542
1.1582777
1.1583024
1.1583265
1.1583491
1.1583701
1.1583895
1.1584073
1.1584237
1.1584386
1.1584519
1.1586201
1.1586201
1.1586201
1.1586201
1.1586201
1.1586201
1.1586201
1.1586201
1.1586201
1.1586201
1.1586201
1.1586201
1.1586199
1.1586169
1.1586117
1.1586049
1.1585974
1.1585899
1.1585831
1.1585771
1.1585719
1.1585676
1.158564
1.158561
1.1585586
1.1585566
1.1585551
1.1585539
1.158553
1.1585523
1.158619
1.158619
1.158619
1.158619
1.158619
1.158619
1.158619
1.158619
1.158619
1.158619
1.158619
1.158619
1.158619
1.1586189
1.1586188
1.1586185
1.1586181
1.1586176
1.158617
1.1586163
1.1586155
1.1586147
1.1586139
1.158613
1.1586122
1.1586113
1.1586105
1.1586096
1.1586088
1.158608
1.158618
1.158618
1.158618
1.158618
1.158618
1.158618
1.1586179
1.1586179
1.1586179
1.1586179
1.1586179
1.1586179
1.1586179
1.1586179
1.1586179
1.1586179
1.1586179
1.1586178
1.1586178
1.1586177
1.1586176
1.1586175
1.1586174
1.1586172
1.1586171
1.1586169
1.1586167
1.1586164
1.1586162
1.158616
1.1586212
1.1586212
1.1586212
1.1586211
1.1586211
1.1586211
1.1586211
1.1586211
1.1586211
1.1586211
1.1586211
1.1586211
1.1586201
1.1585905
1.1585644
1.1585434
1.1585295
1.1585234
1.1585236
1.1585275
1.1585332
1.1585394
1.1585456
1.1585514
1.1585568
1.1585617
1.1585663
1.1585704
1.1585742
1.1585776
1.1586201
1.1586201
1.1586201
1.1586201
1.1586201
1.1586201
1.1586201
1.1586201
1.1586201
1.1586201
1.1586201
1.1586201
1.15862
1.1586193
1.1586179
1.1586162
1.1586142
1.1586123
1.1586104
1.1586088
1.1586075
1.1586063
1.1586053
1.1586045
1.1586039
1.1586034
1.158603
1.1586027
1.1586025
1.1586023
1.158619
1.158619
1.158619
1.158619
1.158619
1.158619
1.158619
1.158619
1.158619
1.158619
1.158619
1.158619
1.158619
1.158619
1.1586189
1.1586188
1.1586187
1.1586186
1.1586184
1.1586182
1.158618
1.1586178
1.1586176
1.1586174
1.1586171
1.1586169
1.1586167
1.1586165
1.1586162
1.158616
1.158618
1.158618
1.158618
1.158618
1.158618
1.158618
1.1586179
1.1586179
1.1586179
1.1586179
1.1586179
1.1586179
1.1586179
1.1586179
1.1586179
1.1586179
1.1586179
1.1586179
1.1586179
1.1586178
1.1586178
1.1586178
1.1586177
1.1586177
1.1586176
1.1586176
1.1586175
1.1586175
1.1586174
1.1586173
1.1586212
1.1586212
1.1586211
1.1586211
1.1586211
1.1586211
1.1586211
1.1586211
1.1586211
1.1586211
1.1586211
1.1586211
1.1586208
1.1586113
1.1586031
1.1585967
1.1585927
1.158591
1.1585913
1.1585929
1.158595
1.1585973
1.1585996
1.1586016
1.1586035
1.1586051
1.1586066
1.1586079
1.1586091
1.1586101
1.1586201
1.1586201
1.1586201
1.1586201
1.1586201
1.1586201
1.1586201
1.1586201
1.1586201
1.1586201
1.1586201
1.1586201
1.1586201
1.1586198
1.1586193
1.1586187
1.158618
1.1586173
1.1586166
1.1586161
1.1586157
1.1586153
1.158615
1.1586148
1.1586147
1.1586146
1.1586145
1.1586145
1.1586145
1.1586145
1.158619
1.158619
1.158619
1.158619
1.158619
1.158619
1.158619
1.158619
1.158619
1.158619
1.158619
1.158619
1.158619
1.158619
1.1586189
1.1586189
1.1586189
1.1586188
1.1586187
1.1586186
1.1586186
1.1586185
1.1586184
1.1586183
1.1586182
1.1586181
1.158618
1.158618
1.1586179
1.1586178
1.158618
1.158618
1.158618
1.158618
1.158618
1.1586179
1.1586179
1.1586179
1.1586179
1.1586179
1.1586179
1.1586179
1.1586179
1.1586179
1.1586179
1.1586179
1.1586179
1.1586179
1.1586179
1.1586179
1.1586178
1.1586178
1.1586178
1.1586178
1.1586178
1.1586177
1.1586177
1.1586177
1.1586177
1.1586176
)
;

boundaryField
{
    maxY
    {
        type            calculated;
        value           nonuniform List<scalar> 
300
(
1.1586175
1.1586175
1.1586175
1.1586175
1.1586175
1.1586175
1.1586175
1.1586175
1.1586175
1.1586175
1.1586175
1.1586175
1.1586175
1.1586175
1.1586175
1.1586175
1.1586175
1.1586175
1.1586175
1.1586175
1.1586174
1.1586174
1.1586174
1.1586174
1.1586174
1.1586174
1.1586174
1.1586174
1.1586174
1.1586174
1.1586174
1.1586174
1.1586174
1.1586174
1.1586174
1.1586174
1.1586174
1.1586174
1.1586174
1.1586174
1.1586174
1.1586174
1.1586174
1.1586174
1.1586174
1.1586174
1.1586174
1.1586174
1.1586174
1.1586174
1.1586174
1.1586174
1.1586174
1.1586174
1.1586174
1.1586174
1.1586174
1.1586174
1.1586174
1.1586174
1.1586174
1.1586174
1.1586174
1.1586174
1.1586174
1.1586174
1.1586174
1.1586174
1.1586174
1.1586174
1.1586174
1.1586174
1.1586174
1.1586174
1.1586174
1.1586174
1.1586174
1.1586174
1.1586174
1.1586174
1.1586174
1.1586174
1.1586174
1.1586174
1.1586174
1.1586174
1.1586174
1.1586174
1.1586174
1.1586174
1.1586174
1.1586174
1.1586174
1.1586174
1.1586174
1.1586174
1.1586174
1.1586174
1.1586174
1.1586174
1.1586174
1.1586174
1.1586174
1.1586174
1.1586174
1.1586174
1.1586174
1.1586174
1.1586174
1.1586174
1.1586174
1.1586174
1.1586174
1.1586174
1.1586174
1.1586174
1.1586174
1.1586174
1.1586174
1.1586174
1.1586174
1.1586174
1.1586174
1.1586174
1.1586174
1.1586174
1.1586174
1.1586174
1.1586174
1.1586174
1.1586174
1.1586174
1.1586174
1.1586174
1.1586174
1.1586174
1.1586174
1.1586174
1.1586174
1.1586174
1.1586174
1.1586174
1.1586174
1.1586173
1.1586173
1.1586173
1.1586173
1.1586174
1.1586174
1.1586174
1.1586174
1.1586174
1.1586174
1.1586173
1.1586171
1.1586171
1.1586173
1.1586174
1.1586174
1.1586174
1.1586174
1.1586174
1.1586173
1.1586172
1.1586169
1.1586169
1.1586172
1.1586173
1.1586174
1.1586174
1.1586173
1.1586173
1.1586173
1.1586171
1.1586164
1.1586164
1.1586171
1.1586173
1.1586173
1.1586173
1.1586173
1.1586173
1.1586172
1.1586169
1.1586158
1.1586158
1.1586169
1.1586172
1.1586173
1.1586173
1.1586173
1.1586173
1.1586172
1.1586166
1.158615
1.158615
1.1586166
1.1586172
1.1586173
1.1586173
1.1586173
1.1586173
1.1586171
1.1586163
1.158614
1.158614
1.1586163
1.1586171
1.1586173
1.1586173
1.1586173
1.1586172
1.158617
1.1586159
1.1586127
1.1586127
1.1586159
1.158617
1.1586172
1.1586173
1.1586173
1.1586172
1.1586168
1.1586154
1.1586113
1.1586113
1.1586154
1.1586168
1.1586172
1.1586173
1.1586173
1.1586172
1.1586167
1.1586149
1.1586096
1.1586096
1.1586149
1.1586167
1.1586172
1.1586173
1.1586172
1.1586171
1.1586165
1.1586143
1.1586078
1.1586078
1.1586143
1.1586165
1.1586171
1.1586172
1.1586172
1.1586171
1.1586163
1.1586136
1.1586059
1.1586059
1.1586136
1.1586163
1.1586171
1.1586172
1.1586172
1.158617
1.1586161
1.1586129
1.1586037
1.1586037
1.1586129
1.1586161
1.158617
1.1586172
1.1586172
1.1586169
1.1586159
1.1586121
1.1586013
1.1586013
1.1586121
1.1586159
1.1586169
1.1586172
1.1586171
1.1586169
1.1586157
1.1586112
1.1585987
1.1585987
1.1586112
1.1586157
1.1586169
1.1586171
1.1586171
1.1586168
1.1586154
1.1586103
1.1585958
1.1585958
1.1586103
1.1586154
1.1586168
1.1586171
)
;
    }
    minX
    {
        type            calculated;
        value           nonuniform List<scalar> 
40
(
1.1586212
1.1586201
1.158619
1.158618
1.1586212
1.1586201
1.158619
1.158618
1.1586211
1.1586201
1.158619
1.158618
1.1586211
1.1586201
1.158619
1.158618
1.1586211
1.1586201
1.158619
1.158618
1.1586211
1.1586201
1.158619
1.158618
1.1586211
1.1586201
1.158619
1.158618
1.1586211
1.1586201
1.158619
1.158618
1.1586212
1.1586201
1.158619
1.158618
1.1586212
1.1586201
1.158619
1.158618
)
;
    }
    maxX
    {
        type            calculated;
        value           nonuniform List<scalar> 
40
(
1.1586103
1.1586146
1.1586178
1.1586176
1.1585783
1.1586026
1.1586161
1.1586173
1.158454
1.1585532
1.1586081
1.158616
1.1580705
1.1583754
1.1585773
1.1586109
1.1573042
1.1579342
1.1584808
1.1585966
1.1573041
1.1579342
1.1584808
1.1585966
1.1580704
1.1583754
1.1585773
1.1586109
1.158454
1.1585531
1.1586081
1.158616
1.1585783
1.1586026
1.1586161
1.1586173
1.1586103
1.1586146
1.1586178
1.1586176
)
;
    }
    minZ
    {
        type            calculated;
        value           nonuniform List<scalar> 
120
(
1.1586212
1.1586201
1.158619
1.158618
1.1586212
1.1586201
1.158619
1.158618
1.1586211
1.1586201
1.158619
1.158618
1.1586211
1.1586201
1.158619
1.158618
1.1586211
1.1586201
1.158619
1.158618
1.1586211
1.1586201
1.158619
1.1586179
1.1586211
1.1586201
1.158619
1.1586179
1.1586211
1.1586201
1.158619
1.1586179
1.1586211
1.1586201
1.158619
1.1586179
1.1586211
1.1586201
1.158619
1.1586179
1.1586211
1.1586201
1.158619
1.1586179
1.1586211
1.1586201
1.158619
1.1586179
1.1586208
1.1586201
1.158619
1.1586179
1.1586113
1.1586198
1.158619
1.1586179
1.1586031
1.1586193
1.1586189
1.1586179
1.1585967
1.1586187
1.1586189
1.1586179
1.1585927
1.158618
1.1586189
1.1586179
1.158591
1.1586173
1.1586188
1.1586179
1.1585913
1.1586166
1.1586187
1.1586179
1.1585929
1.1586161
1.1586186
1.1586179
1.158595
1.1586157
1.1586186
1.1586178
1.1585973
1.1586153
1.1586185
1.1586178
1.1585996
1.158615
1.1586184
1.1586178
1.1586016
1.1586148
1.1586183
1.1586178
1.1586035
1.1586147
1.1586182
1.1586178
1.1586051
1.1586146
1.1586181
1.1586177
1.1586066
1.1586145
1.158618
1.1586177
1.1586079
1.1586145
1.158618
1.1586177
1.1586091
1.1586145
1.1586179
1.1586177
1.1586101
1.1586145
1.1586178
1.1586176
)
;
    }
    maxZ
    {
        type            calculated;
        value           nonuniform List<scalar> 
120
(
1.1586212
1.1586201
1.158619
1.158618
1.1586212
1.1586201
1.158619
1.158618
1.1586211
1.1586201
1.158619
1.158618
1.1586211
1.1586201
1.158619
1.158618
1.1586211
1.1586201
1.158619
1.158618
1.1586211
1.1586201
1.158619
1.1586179
1.1586211
1.1586201
1.158619
1.1586179
1.1586211
1.1586201
1.158619
1.1586179
1.1586211
1.1586201
1.158619
1.1586179
1.1586211
1.1586201
1.158619
1.1586179
1.1586211
1.1586201
1.158619
1.1586179
1.1586211
1.1586201
1.158619
1.1586179
1.1586208
1.1586201
1.158619
1.1586179
1.1586113
1.1586198
1.158619
1.1586179
1.1586031
1.1586193
1.1586189
1.1586179
1.1585967
1.1586187
1.1586189
1.1586179
1.1585927
1.158618
1.1586189
1.1586179
1.158591
1.1586173
1.1586188
1.1586179
1.1585913
1.1586166
1.1586187
1.1586179
1.1585929
1.1586161
1.1586186
1.1586179
1.158595
1.1586157
1.1586186
1.1586178
1.1585973
1.1586153
1.1586185
1.1586178
1.1585996
1.158615
1.1586184
1.1586178
1.1586016
1.1586148
1.1586183
1.1586178
1.1586035
1.1586147
1.1586182
1.1586178
1.1586051
1.1586146
1.1586181
1.1586177
1.1586066
1.1586145
1.158618
1.1586177
1.1586079
1.1586145
1.158618
1.1586177
1.1586091
1.1586145
1.1586179
1.1586177
1.1586101
1.1586145
1.1586178
1.1586176
)
;
    }
    topAir_to_rightSolid
    {
        type            calculated;
        value           nonuniform List<scalar> 
130
(
1.1585483
1.1585782
1.1585989
1.158611
1.1586171
1.1586198
1.158621
1.1586214
1.1586215
1.1586216
1.1586216
1.1586216
1.1586216
1.158354
1.1584712
1.1585473
1.1585886
1.1586082
1.1586166
1.1586198
1.158621
1.1586214
1.1586215
1.1586215
1.1586215
1.1586215
1.1575858
1.1580801
1.1583719
1.1585173
1.1585814
1.1586071
1.1586166
1.1586199
1.1586209
1.1586213
1.1586214
1.1586214
1.1586214
1.1551289
1.1569883
1.1579345
1.1583549
1.1585247
1.1585881
1.1586103
1.1586177
1.15862
1.1586207
1.158621
1.1586211
1.1586211
1.1494039
1.1550039
1.1572653
1.1581357
1.1584547
1.1585661
1.1586032
1.1586151
1.1586187
1.1586199
1.1586203
1.1586205
1.1586206
1.1494032
1.1550036
1.1572652
1.1581357
1.1584547
1.1585661
1.1586032
1.1586151
1.1586187
1.1586199
1.1586203
1.1586205
1.1586206
1.1551283
1.156988
1.1579343
1.1583549
1.1585247
1.1585881
1.1586103
1.1586177
1.15862
1.1586207
1.158621
1.1586211
1.1586211
1.1575855
1.15808
1.1583719
1.1585173
1.1585814
1.1586071
1.1586166
1.1586199
1.1586209
1.1586213
1.1586214
1.1586214
1.1586214
1.1583538
1.1584711
1.1585473
1.1585886
1.1586082
1.1586166
1.1586198
1.158621
1.1586214
1.1586215
1.1586215
1.1586215
1.1586215
1.1585483
1.1585782
1.1585989
1.158611
1.1586171
1.1586198
1.158621
1.1586214
1.1586215
1.1586216
1.1586216
1.1586216
1.1586216
)
;
    }
    topAir_to_heater
    {
        type            calculated;
        value           nonuniform List<scalar> 
40
(
1.1584572
1.158466
1.158485
1.1585145
1.1580027
1.1580327
1.1581011
1.158215
1.1561237
1.1562261
1.1564807
1.1569502
1.1495454
1.1498149
1.1505854
1.1522779
1.1297768
1.130163
1.1316736
1.1361845
1.1297762
1.1301618
1.1316721
1.1361828
1.1495456
1.1498144
1.1505846
1.1522768
1.1561239
1.156226
1.1564803
1.1569497
1.1580028
1.1580326
1.158101
1.1582148
1.1584573
1.158466
1.158485
1.1585144
)
;
    }
    topAir_to_leftSolid
    {
        type            calculated;
        value           nonuniform List<scalar> 
130
(
1.1586217
1.1586217
1.1586217
1.1586217
1.1586217
1.1586217
1.1586217
1.1586217
1.1586217
1.1586216
1.1586216
1.1586216
1.1586216
1.1586217
1.1586217
1.1586217
1.1586217
1.1586217
1.1586217
1.1586217
1.1586217
1.1586216
1.1586216
1.1586216
1.1586216
1.1586215
1.1586217
1.1586217
1.1586217
1.1586217
1.1586217
1.1586217
1.1586217
1.1586216
1.1586216
1.1586216
1.1586215
1.1586214
1.1586211
1.1586217
1.1586217
1.1586217
1.1586217
1.1586217
1.1586217
1.1586217
1.1586216
1.1586216
1.1586215
1.1586212
1.1586206
1.1586194
1.1586217
1.1586217
1.1586217
1.1586217
1.1586217
1.1586217
1.1586216
1.1586216
1.1586216
1.1586213
1.1586207
1.1586189
1.158614
1.1586217
1.1586217
1.1586217
1.1586217
1.1586217
1.1586217
1.1586216
1.1586216
1.1586216
1.1586213
1.1586207
1.1586189
1.158614
1.1586217
1.1586217
1.1586217
1.1586217
1.1586217
1.1586217
1.1586217
1.1586216
1.1586216
1.1586215
1.1586212
1.1586206
1.1586194
1.1586217
1.1586217
1.1586217
1.1586217
1.1586217
1.1586217
1.1586217
1.1586216
1.1586216
1.1586216
1.1586215
1.1586214
1.1586211
1.1586217
1.1586217
1.1586217
1.1586217
1.1586217
1.1586217
1.1586217
1.1586217
1.1586216
1.1586216
1.1586216
1.1586216
1.1586215
1.1586217
1.1586217
1.1586217
1.1586217
1.1586217
1.1586217
1.1586217
1.1586217
1.1586217
1.1586216
1.1586216
1.1586216
1.1586216
)
;
    }
}


// ************************************************************************* //
