/*--------------------------------*- C++ -*----------------------------------*\
| =========                 |                                                 |
| \\      /  F ield         | OpenFOAM: The Open Source CFD Toolbox           |
|  \\    /   O peration     | Version:  2412                                  |
|   \\  /    A nd           | Website:  www.openfoam.com                      |
|    \\/     M anipulation  |                                                 |
\*---------------------------------------------------------------------------*/
FoamFile
{
    version     2.0;
    format      ascii;
    arch        "LSB;label=32;scalar=64";
    class       volScalarField;
    location    "10/topAir";
    object      T;
}
// * * * * * * * * * * * * * * * * * * * * * * * * * * * * * * * * * * * * * //

dimensions      [0 0 0 1 0 0 0];

internalField   nonuniform List<scalar> 
1200
(
300
300
300
300
300
300
300
300
300
299.99999
299.99999
300
300.00009
300.00254
300.00465
300.00631
300.00737
300.0078
300.00772
300.00731
300.00675
300.00615
300.00557
300.00504
300.00456
300.00413
300.00374
300.0034
300.0031
300.00284
300
300
300
300
300
300
299.99999
299.99999
299.99999
299.99999
299.99999
299.99999
300
300.00007
300.0002
300.00036
300.00054
300.00072
300.00088
300.00102
300.00113
300.00123
300.0013
300.00135
300.00139
300.00141
300.00143
300.00144
300.00144
300.00143
300
300
300
300
300
300
300.00001
300.00001
300.00001
300.00001
300.00001
300.00001
300.00001
300.00001
300.00002
300.00002
300.00004
300.00005
300.00007
300.00009
300.00011
300.00013
300.00015
300.00018
300.0002
300.00022
300.00024
300.00026
300.00028
300.0003
300
300
300
300
300.00001
300.00001
300.00001
300.00001
300.00001
300.00001
300.00001
300.00001
300.00001
300.00001
300.00001
300.00001
300.00002
300.00002
300.00002
300.00002
300.00002
300.00003
300.00003
300.00004
300.00004
300.00005
300.00005
300.00006
300.00007
300.00007
300
300
300
300
300
300
300
299.99999
299.99999
299.99999
299.99999
300
300.00026
300.00793
300.0147
300.02012
300.02372
300.02529
300.02524
300.02422
300.02275
300.02114
300.01955
300.01805
300.01665
300.01537
300.01419
300.01311
300.01212
300.01125
300
300
300
300
300
299.99999
299.99999
299.99999
299.99999
299.99999
299.99999
299.99999
300
300.0002
300.00055
300.00101
300.00151
300.00202
300.00249
300.0029
300.00326
300.00356
300.00381
300.00401
300.00418
300.00431
300.00441
300.00449
300.00454
300.00458
300
300
300
300
300
300
300
300
300.00001
300.00001
300.00001
300.00001
300.00001
300.00001
300.00002
300.00004
300.00007
300.0001
300.00015
300.00019
300.00025
300.0003
300.00036
300.00042
300.00047
300.00053
300.00059
300.00065
300.00071
300.00076
300
300
300
300
300
300.00001
300.00001
300.00001
300.00001
300.00001
300.00001
300.00001
300.00001
300.00001
300.00001
300.00001
300.00002
300.00002
300.00002
300.00003
300.00003
300.00004
300.00005
300.00006
300.00007
300.00008
300.0001
300.00011
300.00013
300.00015
300
300
300
300
300
300
300
299.99999
299.99999
299.99999
300
300.00003
300.00104
300.03153
300.05858
300.08054
300.09509
300.10064
300.09961
300.09501
300.08894
300.08253
300.07629
300.07043
300.06499
300.05997
300.05535
300.05112
300.04724
300.04381
300
300
300
300
300
299.99999
299.99999
299.99999
299.99999
299.99999
299.99999
299.99999
300.00004
300.00081
300.00217
300.00392
300.00587
300.00779
300.00956
300.01112
300.01245
300.01358
300.01451
300.01528
300.01591
300.01642
300.01682
300.01713
300.01736
300.01753
300
300
300
300
300
300
300
300
300
300.00001
300.00001
300.00001
300.00001
300.00002
300.00006
300.00013
300.00024
300.00037
300.00053
300.00071
300.0009
300.00111
300.00132
300.00154
300.00176
300.00198
300.0022
300.00242
300.00263
300.00284
300
300
300
300
300
300.00001
300.00001
300.00001
300.00001
300.00001
300.00001
300.00001
300.00001
300.00001
300.00001
300.00002
300.00002
300.00003
300.00005
300.00006
300.00009
300.00011
300.00014
300.00018
300.00022
300.00027
300.00032
300.00038
300.00044
300.00051
300
300
300
300
300
300
300
300
300
300
300.00001
300.00014
300.00382
300.11549
300.21562
300.29855
300.35379
300.36884
300.35923
300.33831
300.31363
300.28869
300.2649
300.24274
300.22231
300.20357
300.18643
300.17079
300.15659
300.14412
300
300
300
300
300
299.99999
299.99999
299.99999
299.99999
299.99999
299.99999
300
300.00017
300.00299
300.00797
300.01453
300.02193
300.02922
300.03587
300.04168
300.04663
300.05077
300.05418
300.05695
300.05914
300.06084
300.0621
300.063
300.06361
300.06402
300
300
300
300
300
300
300
300
300
300.00001
300.00001
300.00001
300.00001
300.00007
300.00022
300.00048
300.00086
300.00136
300.00196
300.00264
300.00337
300.00415
300.00496
300.00579
300.00662
300.00746
300.00831
300.00916
300.01003
300.01091
300
300
300
300
300
300.00001
300.00001
300.00001
300.00001
300.00001
300.00001
300.00001
300.00001
300.00001
300.00002
300.00003
300.00005
300.00009
300.00014
300.0002
300.00028
300.00039
300.00051
300.00064
300.0008
300.00098
300.00117
300.00138
300.00161
300.00184
300
300
300
300
300
300
300
300
300
300
300.00002
300.00042
300.01181
300.3643
300.67823
300.94183
301.11969
301.11862
301.05
300.96094
300.8703
300.78498
300.70701
300.63659
300.57329
300.51653
300.46567
300.42016
300.37953
300.3444
300
300
300
300
300
299.99999
299.99999
299.99999
299.99999
299.99999
299.99999
300.00002
300.00052
300.0094
300.0254
300.04722
300.07273
300.09702
300.11826
300.136
300.1503
300.16149
300.16991
300.17595
300.17994
300.18221
300.18304
300.18269
300.18139
300.17945
300
300
300
300
300
300
300
300
300
300.00001
300.00001
300.00001
300.00002
300.0002
300.00067
300.00154
300.0029
300.0047
300.00688
300.00934
300.01201
300.0148
300.01765
300.0205
300.0233
300.02604
300.02868
300.03124
300.03374
300.03619
300
300
300
300
300
300.00001
300.00001
300.00001
300.00001
300.00001
300.00001
300.00001
300.00001
300.00002
300.00003
300.00007
300.00014
300.00025
300.00041
300.00062
300.00089
300.00121
300.00158
300.00201
300.00247
300.00298
300.00354
300.00416
300.00485
300.00559
300
300
300
300
300
300
300
300
300
300
300.00002
300.00042
300.01181
300.36431
300.67825
300.94186
301.11974
301.11868
301.05006
300.96099
300.87035
300.78502
300.70704
300.63662
300.57332
300.51656
300.4657
300.42018
300.37955
300.34441
300
300
300
300
300
299.99999
299.99999
299.99999
299.99999
299.99999
299.99999
300.00002
300.00052
300.0094
300.0254
300.04723
300.07273
300.09702
300.11827
300.136
300.15031
300.1615
300.16992
300.17596
300.17996
300.18222
300.18305
300.1827
300.1814
300.17946
300
300
300
300
300
300
300
300
300
300.00001
300.00001
300.00001
300.00002
300.0002
300.00067
300.00155
300.0029
300.0047
300.00688
300.00934
300.01201
300.0148
300.01765
300.0205
300.0233
300.02604
300.02868
300.03124
300.03374
300.03619
300
300
300
300
300
300.00001
300.00001
300.00001
300.00001
300.00001
300.00001
300.00001
300.00001
300.00002
300.00003
300.00007
300.00014
300.00025
300.00041
300.00062
300.00089
300.00121
300.00158
300.00201
300.00247
300.00298
300.00354
300.00416
300.00485
300.00559
300
300
300
300
300
300
300
300
300
300
300.00001
300.00014
300.00382
300.11549
300.21562
300.29857
300.35382
300.36888
300.35926
300.33835
300.31366
300.28872
300.26493
300.24277
300.22233
300.20359
300.18645
300.17081
300.1566
300.14413
300
300
300
300
300
299.99999
299.99999
299.99999
299.99999
299.99999
299.99999
300
300.00017
300.00299
300.00797
300.01453
300.02193
300.02923
300.03588
300.04169
300.04664
300.05078
300.05419
300.05695
300.05914
300.06084
300.06211
300.06301
300.06362
300.06403
300
300
300
300
300
300
300
300
300
300.00001
300.00001
300.00001
300.00001
300.00007
300.00022
300.00048
300.00086
300.00136
300.00196
300.00264
300.00337
300.00415
300.00496
300.00579
300.00662
300.00746
300.00831
300.00916
300.01003
300.01091
300
300
300
300
300
300.00001
300.00001
300.00001
300.00001
300.00001
300.00001
300.00001
300.00001
300.00001
300.00002
300.00003
300.00005
300.00009
300.00014
300.0002
300.00028
300.00039
300.00051
300.00064
300.0008
300.00098
300.00117
300.00138
300.00161
300.00184
300
300
300
300
300
300
300
299.99999
299.99999
299.99999
300
300.00003
300.00104
300.03153
300.05858
300.08055
300.0951
300.10065
300.09963
300.09502
300.08895
300.08254
300.0763
300.07044
300.065
300.05998
300.05536
300.05113
300.04725
300.04382
300
300
300
300
300
299.99999
299.99999
299.99999
299.99999
299.99999
299.99999
299.99999
300.00004
300.00081
300.00217
300.00392
300.00587
300.00779
300.00957
300.01112
300.01246
300.01358
300.01451
300.01529
300.01591
300.01642
300.01682
300.01713
300.01736
300.01753
300
300
300
300
300
300
300
300
300
300.00001
300.00001
300.00001
300.00001
300.00002
300.00006
300.00013
300.00024
300.00037
300.00053
300.00071
300.0009
300.00111
300.00132
300.00154
300.00176
300.00198
300.0022
300.00242
300.00263
300.00284
300
300
300
300
300
300.00001
300.00001
300.00001
300.00001
300.00001
300.00001
300.00001
300.00001
300.00001
300.00001
300.00002
300.00002
300.00003
300.00005
300.00006
300.00009
300.00011
300.00014
300.00018
300.00022
300.00027
300.00032
300.00038
300.00044
300.00051
300
300
300
300
300
300
300
299.99999
299.99999
299.99999
299.99999
300
300.00026
300.00793
300.0147
300.02012
300.02372
300.02529
300.02524
300.02422
300.02275
300.02114
300.01955
300.01805
300.01666
300.01537
300.01419
300.01311
300.01213
300.01125
300
300
300
300
300
299.99999
299.99999
299.99999
299.99999
299.99999
299.99999
299.99999
300
300.0002
300.00055
300.00101
300.00151
300.00202
300.00249
300.0029
300.00326
300.00356
300.00381
300.00401
300.00418
300.00431
300.00441
300.00449
300.00454
300.00458
300
300
300
300
300
300
300
300
300.00001
300.00001
300.00001
300.00001
300.00001
300.00001
300.00002
300.00004
300.00007
300.0001
300.00015
300.00019
300.00025
300.0003
300.00036
300.00042
300.00047
300.00053
300.00059
300.00065
300.00071
300.00076
300
300
300
300
300
300.00001
300.00001
300.00001
300.00001
300.00001
300.00001
300.00001
300.00001
300.00001
300.00001
300.00001
300.00002
300.00002
300.00002
300.00003
300.00003
300.00004
300.00005
300.00006
300.00007
300.00008
300.0001
300.00011
300.00013
300.00015
300
300
300
300
300
300
300
300
300
299.99999
299.99999
300
300.00009
300.00254
300.00465
300.00631
300.00737
300.0078
300.00772
300.00731
300.00675
300.00615
300.00557
300.00504
300.00456
300.00413
300.00374
300.0034
300.0031
300.00284
300
300
300
300
300
300
299.99999
299.99999
299.99999
299.99999
299.99999
299.99999
300
300.00007
300.0002
300.00036
300.00054
300.00072
300.00088
300.00102
300.00113
300.00123
300.0013
300.00135
300.00139
300.00141
300.00143
300.00144
300.00144
300.00143
300
300
300
300
300
300
300.00001
300.00001
300.00001
300.00001
300.00001
300.00001
300.00001
300.00001
300.00002
300.00002
300.00004
300.00005
300.00007
300.00009
300.00011
300.00013
300.00015
300.00018
300.0002
300.00022
300.00024
300.00026
300.00028
300.0003
300
300
300
300
300.00001
300.00001
300.00001
300.00001
300.00001
300.00001
300.00001
300.00001
300.00001
300.00001
300.00001
300.00001
300.00002
300.00002
300.00002
300.00002
300.00002
300.00003
300.00003
300.00004
300.00004
300.00005
300.00005
300.00006
300.00007
300.00007
)
;

boundaryField
{
    maxY
    {
        type            zeroGradient;
    }
    minX
    {
        type            fixedValue;
        value           uniform 300;
    }
    maxX
    {
        type            inletOutlet;
        inletValue      uniform 300;
        value           nonuniform List<scalar> 
40
(
300.00279
300.00141
300.00029
300.00007
300.01108
300.00451
300.00075
300.00015
300.04326
300.01731
300.00281
300.0005
300.14264
300.06334
300.01079
300.00182
300.34136
300.17768
300.03577
300.00552
300.34138
300.17769
300.03577
300.00552
300.14265
300.06335
300.01079
300.00182
300.04327
300.01732
300.00281
300.0005
300.01108
300.00451
300.00075
300.00015
300.00279
300.00141
300.00029
300.00007
)
;
    }
    minZ
    {
        type            zeroGradient;
    }
    maxZ
    {
        type            zeroGradient;
    }
    topAir_to_rightSolid
    {
        type            compressible::turbulentTemperatureRadCoupledMixed;
        refValue        nonuniform List<scalar> 
130
(
300.01899
300.01125
300.00587
300.00275
300.00117
300.00046
300.00017
300.00006
300.00002
300.00001
300
300
300
300.06934
300.03896
300.01923
300.00853
300.00346
300.0013
300.00046
300.00016
300.00006
300.00002
300.00001
300.00001
300.00001
300.26849
300.14029
300.06466
300.027
300.01039
300.00374
300.00128
300.00043
300.00016
300.00007
300.00004
300.00003
300.00003
300.90728
300.42354
300.17798
300.06899
300.02502
300.00859
300.00284
300.00095
300.00035
300.00017
300.00011
300.00009
300.00008
302.4063
300.93964
300.3514
300.12563
300.04298
300.01415
300.00456
300.00151
300.00058
300.00029
300.0002
300.00017
300.00015
302.40648
300.93972
300.35144
300.12564
300.04298
300.01415
300.00456
300.00151
300.00058
300.00029
300.0002
300.00017
300.00015
300.90742
300.42361
300.17802
300.06901
300.02502
300.00859
300.00284
300.00095
300.00035
300.00017
300.00011
300.00009
300.00008
300.26857
300.14032
300.06468
300.027
300.01039
300.00374
300.00128
300.00043
300.00016
300.00007
300.00004
300.00003
300.00003
300.06937
300.03897
300.01924
300.00854
300.00346
300.0013
300.00046
300.00016
300.00006
300.00002
300.00001
300.00001
300.00001
300.019
300.01126
300.00587
300.00275
300.00117
300.00046
300.00017
300.00006
300.00002
300.00001
300
300
300
)
;
        refGradient     uniform 0;
        valueFraction   uniform 0.99967867;
        source          uniform 0;
        logInterval     -1;
        writePrecision  8;
        updateHeader    1;
        writeToFile     0;
        useUserTime     1;
        kappaMethod     fluidThermo;
        value           nonuniform List<scalar> 
130
(
300.01898
300.01125
300.00587
300.00275
300.00117
300.00046
300.00017
300.00006
300.00002
300.00001
300.00001
300
300
300.06932
300.03895
300.01923
300.00854
300.00347
300.00131
300.00047
300.00016
300.00006
300.00003
300.00002
300.00001
300.00001
300.26844
300.14027
300.06467
300.02701
300.01041
300.00376
300.0013
300.00045
300.00018
300.00009
300.00006
300.00005
300.00004
300.90711
300.42352
300.17803
300.06907
300.0251
300.00867
300.00292
300.00102
300.00042
300.00023
300.00016
300.00014
300.00013
302.40588
300.93968
300.35159
300.12587
300.04321
300.01437
300.00476
300.0017
300.00074
300.00044
300.00034
300.00029
300.00026
302.40606
300.93975
300.35164
300.12588
300.04322
300.01437
300.00476
300.0017
300.00074
300.00044
300.00034
300.00029
300.00026
300.90725
300.42359
300.17807
300.06909
300.02511
300.00867
300.00292
300.00102
300.00042
300.00023
300.00016
300.00014
300.00013
300.26851
300.14031
300.06469
300.02702
300.01041
300.00376
300.0013
300.00045
300.00018
300.00009
300.00006
300.00005
300.00004
300.06935
300.03897
300.01924
300.00854
300.00347
300.00131
300.00047
300.00016
300.00006
300.00003
300.00002
300.00001
300.00001
300.019
300.01125
300.00587
300.00275
300.00117
300.00046
300.00017
300.00006
300.00002
300.00001
300.00001
300
300
)
;
    }
    topAir_to_heater
    {
        type            compressible::turbulentTemperatureRadCoupledMixed;
        refValue        nonuniform List<scalar> 
40
(
300.04259
300.04031
300.03539
300.02776
300.16039
300.15262
300.13487
300.10536
300.64838
300.62173
300.55554
300.43351
302.36937
302.29845
302.09591
301.65204
307.66178
307.55652
307.14576
305.9259
307.66195
307.55683
307.14615
305.92633
302.36931
302.29857
302.09614
301.65233
300.64833
300.62177
300.55564
300.43364
300.16037
300.15263
300.1349
300.10541
300.04258
300.04031
300.0354
300.02778
)
;
        refGradient     uniform 0;
        valueFraction   uniform 0.99967867;
        source          uniform 0;
        logInterval     -1;
        writePrecision  8;
        updateHeader    1;
        writeToFile     0;
        useUserTime     1;
        kappaMethod     fluidThermo;
        value           nonuniform List<scalar> 
40
(
300.04258
300.0403
300.03538
300.02775
300.16035
300.15258
300.13483
300.10533
300.64818
300.62155
300.55539
300.4334
302.36864
302.29778
302.09533
301.65162
307.65943
307.55431
307.14376
305.92435
307.65961
307.55462
307.14416
305.92478
302.36859
302.2979
302.09556
301.65191
300.64813
300.62159
300.55549
300.43354
300.16032
300.15259
300.13487
300.10538
300.04257
300.0403
300.03539
300.02777
)
;
    }
    topAir_to_leftSolid
    {
        type            compressible::turbulentTemperatureRadCoupledMixed;
        refValue        nonuniform List<scalar> 
130
(
300
300
300
300
300
300
300
300
300
300
300
300
300.00001
300
300
300
300
300
300
300
300
300
300
300.00001
300.00002
300.00003
300
300
300
300
300
300
300
300
300
300.00001
300.00003
300.00007
300.00013
300
300
300
300
300
300
300
300
300.00001
300.00004
300.00011
300.00027
300.00057
300
300
300
300
300
300
300
300.00001
300.00003
300.00008
300.00025
300.00072
300.00198
300
300
300
300
300
300
300
300.00001
300.00003
300.00008
300.00025
300.00072
300.00198
300
300
300
300
300
300
300
300
300.00001
300.00004
300.00011
300.00027
300.00057
300
300
300
300
300
300
300
300
300
300.00001
300.00003
300.00007
300.00013
300
300
300
300
300
300
300
300
300
300
300.00001
300.00002
300.00003
300
300
300
300
300
300
300
300
300
300
300
300
300.00001
)
;
        refGradient     uniform 0;
        valueFraction   uniform 0.99967867;
        source          uniform 0;
        logInterval     -1;
        writePrecision  8;
        updateHeader    1;
        writeToFile     0;
        useUserTime     1;
        kappaMethod     fluidThermo;
        value           nonuniform List<scalar> 
130
(
300
300
300
300
300
300
300
300
300
300
300
300
300.00001
300
300
300
300
300
300
300
300
300
300
300.00001
300.00002
300.00003
300
300
300
300
300
300
300
300
300
300.00001
300.00003
300.00007
300.00013
300
300
300
300
300
300
300
300
300.00001
300.00004
300.00011
300.00027
300.00057
300
300
300
300
300
300
300
300.00001
300.00003
300.00008
300.00025
300.00072
300.00199
300
300
300
300
300
300
300
300.00001
300.00003
300.00008
300.00025
300.00072
300.00199
300
300
300
300
300
300
300
300
300.00001
300.00004
300.00011
300.00027
300.00057
300
300
300
300
300
300
300
300
300
300.00001
300.00003
300.00007
300.00013
300
300
300
300
300
300
300
300
300
300
300.00001
300.00002
300.00003
300
300
300
300
300
300
300
300
300
300
300
300
300.00001
)
;
    }
}


// ************************************************************************* //
