/*--------------------------------*- C++ -*----------------------------------*\
| =========                 |                                                 |
| \\      /  F ield         | OpenFOAM: The Open Source CFD Toolbox           |
|  \\    /   O peration     | Version:  2412                                  |
|   \\  /    A nd           | Website:  www.openfoam.com                      |
|    \\/     M anipulation  |                                                 |
\*---------------------------------------------------------------------------*/
FoamFile
{
    version     2.0;
    format      ascii;
    arch        "LSB;label=32;scalar=64";
    class       volVectorField;
    location    "10/topAir";
    object      U;
}
// * * * * * * * * * * * * * * * * * * * * * * * * * * * * * * * * * * * * * //

dimensions      [0 1 -1 0 0 0 0];

internalField   nonuniform List<vector> 
1200
(
(0.097227778 0.000961781 0.00079951769)
(0.096218183 0.0012967416 0.0012002321)
(0.094365098 0.001334684 0.0013563821)
(0.091885191 0.0013066258 0.0014209214)
(0.089344855 0.0012592061 0.0014435451)
(0.086936469 0.0011948776 0.0014340855)
(0.084650515 0.0011197949 0.001399764)
(0.082461247 0.0010412024 0.0013491119)
(0.080366746 0.00096334006 0.0012889332)
(0.078373407 0.00088807779 0.0012236699)
(0.076484433 0.00081614553 0.0011562615)
(0.074699111 0.00074761757 0.0010889186)
(0.073015166 0.00068202064 0.0010235833)
(0.071428938 0.00061956237 0.00096252339)
(0.069934957 0.000559247 0.00090710588)
(0.068527143 0.00050079663 0.00085737229)
(0.067199824 0.00044443785 0.0008125329)
(0.065948192 0.00039068159 0.0007714474)
(0.06476836 0.00034013643 0.00073301446)
(0.063657139 0.00029332927 0.00069643639)
(0.062611686 0.00025059875 0.00066124227)
(0.061629266 0.00021209175 0.00062713101)
(0.060707223 0.00017781704 0.00059379372)
(0.05984312 0.00014770339 0.00056079373)
(0.059034982 0.00012163394 0.00052747768)
(0.058281631 9.9441489e-05 0.00049287558)
(0.057583313 8.0831992e-05 0.00045556718)
(0.056942905 6.4975431e-05 0.00041336543)
(0.056360738 4.8063847e-05 0.00036173741)
(0.055682968 3.7454616e-05 0.00030767087)
(0.099371479 0.00097371837 0.00082562596)
(0.10013561 0.0013290767 0.0012542383)
(0.10060709 0.0014035868 0.0014385516)
(0.1006101 0.0014177263 0.0015321144)
(0.10043327 0.0014098174 0.0015826698)
(0.10022884 0.0013815193 0.0016001615)
(0.10000479 0.0013394233 0.0015922202)
(0.0997434 0.0012905096 0.0015672305)
(0.099443902 0.0012385305 0.0015316019)
(0.099114837 0.0011850087 0.001489404)
(0.098763703 0.0011304785 0.0014432002)
(0.098395107 0.0010749278 0.0013946857)
(0.098012241 0.0010179587 0.0013449062)
(0.097618118 0.000959914 0.001294317)
(0.097215973 0.00090010519 0.001243663)
(0.096808209 0.00083857197 0.0011936238)
(0.096396662 0.00077594734 0.0011447084)
(0.095982843 0.0007132031 0.0010972946)
(0.095568018 0.00065142145 0.0010516174)
(0.095153272 0.00059160113 0.0010077548)
(0.094739568 0.00053455591 0.00096566051)
(0.094327799 0.00048091509 0.00092518984)
(0.093918829 0.00043118517 0.00088609516)
(0.093513578 0.00038581331 0.00084800263)
(0.09311314 0.00034522505 0.00081037326)
(0.092718944 0.00030981943 0.00077241127)
(0.092333053 0.00027989383 0.00073283653)
(0.091958848 0.00025536865 0.00068912163)
(0.091600724 0.00023510213 0.00063422174)
(0.091170624 0.00021746523 0.0005562647)
(0.09937147 -0.00097379477 0.00082562549)
(0.10013557 -0.0013292453 0.0012542365)
(0.10060698 -0.0014038922 0.0014385467)
(0.10060987 -0.0014182547 0.0015321034)
(0.10043283 -0.0014107155 0.0015826462)
(0.10022803 -0.0013830295 0.001600113)
(0.10000337 -0.0013419379 0.0015921235)
(0.099740971 -0.0012946508 0.0015670427)
(0.099439848 -0.001245266 0.0015312463)
(0.099108227 -0.0011958074 0.0014887495)
(0.098753199 -0.0011475079 0.001442037)
(0.098378909 -0.0011012644 0.0013927191)
(0.09798809 -0.0010576757 0.0013418346)
(0.097583234 -0.0010169457 0.0012900277)
(0.097166793 -0.00097932071 0.0012378488)
(0.096740889 -0.00094481147 0.0011858646)
(0.09630726 -0.00091312329 0.0011345989)
(0.095867412 -0.00088376697 0.0010844845)
(0.095422762 -0.00085618127 0.0010358349)
(0.094974741 -0.00082981922 0.00098882566)
(0.09452487 -0.00080418762 0.00094350851)
(0.094074807 -0.00077884371 0.00089984078)
(0.093626388 -0.0007533591 0.00085769651)
(0.093181676 -0.00072727738 0.00081686001)
(0.092743049 -0.00070008206 0.00077701088)
(0.092313315 -0.00067116641 0.00073766405)
(0.091895891 -0.00063980052 0.00069794513)
(0.091495186 -0.00060507354 0.00065584834)
(0.091115445 -0.00056572984 0.00060491434)
(0.090660857 -0.00052246316 0.00053354408)
(0.097227754 -0.00096181089 0.00079951665)
(0.096218094 -0.0012968052 0.0012002278)
(0.094364884 -0.0013347961 0.001356371)
(0.091884764 -0.0013068156 0.0014208968)
(0.08934408 -0.0012595242 0.0014434935)
(0.086935129 -0.0011954078 0.0014339807)
(0.084648268 -0.0011206734 0.0013995557)
(0.082457566 -0.0010426467 0.0013487051)
(0.080360837 -0.00096569227 0.0012881517)
(0.07836411 -0.00089187151 0.0012221917)
(0.076470109 -0.00082220808 0.0011535078)
(0.074677533 -0.00075723488 0.0010838653)
(0.072983397 -0.00069715918 0.0010144409)
(0.071384406 -0.00064194557 0.0009460154)
(0.06987723 -0.00059146786 0.00087917888)
(0.068458343 -0.00054552919 0.00081449259)
(0.067123884 -0.0005038326 0.00075249069)
(0.065869725 -0.0004660045 0.00069361614)
(0.064691651 -0.00043164022 0.00063817293)
(0.063585528 -0.00040033649 0.00058629655)
(0.06254747 -0.00037171266 0.00053795572)
(0.061573954 -0.00034541472 0.00049298372)
(0.060661913 -0.00032110557 0.00045110993)
(0.059808803 -0.00029844386 0.0004119749)
(0.059012712 -0.00027706628 0.0003751409)
(0.058272537 -0.00025655563 0.00034008164)
(0.057588336 -0.00023637978 0.0003060292)
(0.056962092 -0.00021553567 0.00027170625)
(0.05639199 -0.00019019477 0.00023370499)
(0.055721063 -0.0001681328 0.0001992021)
(0.098508005 0.00098584946 0.0010622275)
(0.098432214 0.0013411554 0.0016298993)
(0.097918483 0.0013961217 0.0018725985)
(0.096975813 0.0013841257 0.0019894024)
(0.095950445 0.0013506047 0.0020482517)
(0.094977157 0.0012980259 0.0020627217)
(0.094051053 0.0012330344 0.0020423518)
(0.093150478 0.0011631791 0.001998647)
(0.092270876 0.0010928623 0.0019407267)
(0.091416191 0.0010240541 0.0018743923)
(0.090589931 0.00095747231 0.0018035042)
(0.089793733 0.00089296971 0.0017312944)
(0.089029091 0.00082950932 0.0016613838)
(0.088295236 0.00076821988 0.0015998471)
(0.087587532 0.00070717547 0.0015499448)
(0.086900899 0.00064614958 0.0015108883)
(0.08623196 0.00058579768 0.0014797464)
(0.085579342 0.00052713427 0.0014527936)
(0.084943421 0.00047127941 0.0014266916)
(0.084325613 0.00041911604 0.0013992363)
(0.083727486 0.00037114336 0.0013692641)
(0.08315026 0.0003275525 0.0013361114)
(0.082594811 0.00028835949 0.001299143)
(0.082061895 0.00025349756 0.001257451)
(0.081552413 0.00022286065 0.0012096284)
(0.081067677 0.00019626794 0.0011535404)
(0.080609912 0.0001732245 0.0010861068)
(0.08018341 0.00015185719 0.0010032236)
(0.079794916 0.00012414721 0.00090051672)
(0.079371551 7.2910899e-05 0.00078049311)
(0.10071026 0.00099365163 0.0010944299)
(0.10246664 0.0013553803 0.0016840717)
(0.10434633 0.0014297575 0.0019462839)
(0.10596939 0.0014432291 0.0020857424)
(0.10741317 0.0014353022 0.0021701211)
(0.10877676 0.0014077724 0.002212507)
(0.11007342 0.0013672566 0.0022221019)
(0.11129011 0.0013207465 0.0022097543)
(0.11242456 0.0012719883 0.0021838082)
(0.11348341 0.0012224236 0.0021493077)
(0.11447407 0.0011723625 0.0021091939)
(0.11540219 0.0011213827 0.002065184)
(0.11627239 0.0010684936 0.0020177934)
(0.11708974 0.001014907 0.0019661528)
(0.11786042 0.00095894824 0.0019115113)
(0.11858889 0.00090048699 0.0018554004)
(0.11927869 0.00084032938 0.0017991231)
(0.11993277 0.00077966735 0.0017438178)
(0.12055352 0.00071980171 0.0016902018)
(0.121143 0.00066184422 0.0016385089)
(0.12170312 0.00060659082 0.001588631)
(0.12223566 0.00055459436 0.0015402135)
(0.12274234 0.00050629982 0.0014926493)
(0.1232248 0.00046214604 0.0014450278)
(0.12368471 0.00042263502 0.0013960782)
(0.12412375 0.00038833984 0.0013440281)
(0.1245433 0.00035973842 0.0012863512)
(0.12494306 0.00033649867 0.0012191125)
(0.12531867 0.00031467471 0.0011354708)
(0.12575108 0.00027945585 0.0010251908)
(0.10071025 -0.00099373171 0.0010944267)
(0.1024666 -0.0013555603 0.0016840636)
(0.10434621 -0.0014300876 0.0019462666)
(0.10596914 -0.0014438045 0.0020857068)
(0.10741269 -0.0014362856 0.0021700495)
(0.10877589 -0.0014094346 0.0022123652)
(0.11007187 -0.001370041 0.0022218252)
(0.11128744 -0.0013253692 0.0022092236)
(0.11242007 -0.0012795866 0.0021828101)
(0.11347604 -0.0012347713 0.0021474767)
(0.1144623 -0.0011921584 0.0021059519)
(0.11538403 -0.001152585 0.0020597588)
(0.11624548 -0.0011164445 0.0020095891)
(0.11705106 -0.0010834183 0.0019555809)
(0.11780545 -0.0010537174 0.0018981588)
(0.11851282 -0.0010273582 0.0018382244)
(0.11917665 -0.0010039971 0.0017768046)
(0.1197999 -0.00098311347 0.0017148587)
(0.12038519 -0.00096412061 0.0016531375)
(0.12093501 -0.00094642867 0.0015920978)
(0.12145186 -0.0009294958 0.0015319344)
(0.1219383 -0.00091282298 0.0014726676)
(0.12239702 -0.00089589937 0.0014141347)
(0.12283081 -0.00087813805 0.0013559104)
(0.12324274 -0.00085880737 0.0012973992)
(0.12363603 -0.0008369311 0.0012378232)
(0.12401374 -0.00081116653 0.0011759022)
(0.12437712 -0.00077915996 0.0011094613)
(0.1247222 -0.00073512251 0.0010337279)
(0.12512027 -0.00066480516 0.00093864442)
(0.098507982 -0.00098588059 0.0010622212)
(0.098432124 -0.001341223 0.0016298828)
(0.097918261 -0.0013962426 0.0018725627)
(0.096975363 -0.0013843327 0.0019893282)
(0.095949615 -0.0013509541 0.0020481014)
(0.094975703 -0.0012986118 0.0020624218)
(0.094048583 -0.0012340125 0.0020417603)
(0.093146377 -0.0011648031 0.0019974948)
(0.092264192 -0.0010955445 0.0019385089)
(0.091405484 -0.0010284659 0.0018701726)
(0.090573078 -0.00096471821 0.001795567)
(0.089767665 -0.00090491077 0.001716522)
(0.08898916 -0.00084926381 0.001634084)
(0.088237742 -0.0007976947 0.0015488335)
(0.087514013 -0.00075012324 0.001461345)
(0.086818546 -0.0007064675 0.0013725597)
(0.086151426 -0.00066653085 0.0012836573)
(0.085512219 -0.00063001733 0.001195796)
(0.084900144 -0.00059657353 0.0011099276)
(0.084314281 -0.00056581853 0.0010266737)
(0.08375379 -0.00053737846 0.00094630007)
(0.083218069 -0.00051090196 0.00086890976)
(0.082706816 -0.0004860484 0.0007944347)
(0.082220078 -0.00046244952 0.00072247082)
(0.081758344 -0.00043966355 0.00065241339)
(0.081322514 -0.0004170766 0.00058389305)
(0.080914079 -0.00039370497 0.00051633908)
(0.080535848 -0.00036716015 0.0004492491)
(0.080191584 -0.00032907152 0.00038345066)
(0.07981213 -0.00026170024 0.00032582621)
(0.098377623 0.00098084051 0.00041427031)
(0.098074787 0.0013301089 0.00071225188)
(0.097470401 0.0013787439 0.0008877077)
(0.096583282 0.0013620268 0.00099552084)
(0.095685937 0.0013253194 0.0010676621)
(0.094874575 0.0012705011 0.0011127687)
(0.09413692 0.0012040371 0.0011346487)
(0.09344829 0.0011334447 0.0011384715)
(0.092798278 0.0010630048 0.0011293611)
(0.092184905 0.00099439004 0.0011112546)
(0.091607696 0.0009277315 0.0010873584)
(0.091066584 0.00086167298 0.0010612373)
(0.090565064 0.00079286672 0.0010387123)
(0.09010097 0.00072763669 0.0010343639)
(0.089661202 0.00066046739 0.0010540805)
(0.08923346 0.00059109194 0.0010933886)
(0.088810872 0.00052091671 0.0011438393)
(0.088391223 0.000451582 0.001195618)
(0.087976052 0.00038522429 0.001241504)
(0.087568541 0.00032357163 0.0012782664)
(0.08717129 0.00026759237 0.0013050532)
(0.086785556 0.00021770901 0.0013216554)
(0.086411558 0.00017404105 0.0013276547)
(0.086048933 0.00013654941 0.0013220533)
(0.085697027 0.00010516153 0.0013029356)
(0.085355156 7.97831e-05 0.0012670032)
(0.085023318 6.0069113e-05 0.0012089791)
(0.084704493 4.416687e-05 0.0011206192)
(0.084409108 2.4245623e-05 0.00099025745)
(0.084110314 -1.7418952e-05 0.00080879839)
(0.10057691 0.00099312207 0.00042665328)
(0.10210686 0.0013549672 0.00073907029)
(0.10389915 0.0014265458 0.00093027861)
(0.10558062 0.0014366319 0.0010562981)
(0.10715396 0.0014257019 0.0011488168)
(0.10868109 0.001395442 0.0012161024)
(0.11016895 0.001352396 0.0012617187)
(0.11160233 0.001303586 0.0012904011)
(0.11297414 0.001252705 0.0013066577)
(0.11428598 0.0012009295 0.0013136178)
(0.11554148 0.0011479875 0.00131314)
(0.11674319 0.0010923755 0.0013058579)
(0.11789285 0.0010315521 0.0012900691)
(0.11899468 0.00097234708 0.001260756)
(0.1200575 0.00090988391 0.0012211429)
(0.12108536 0.00084361604 0.0011756655)
(0.12208074 0.00077461836 0.0011283122)
(0.1230453 0.00070420697 0.0010827157)
(0.12397959 0.00063424933 0.0010404705)
(0.12488389 0.00056647858 0.0010017533)
(0.1257586 0.0005021417 0.0009661594)
(0.12660415 0.00044217598 0.00093294322)
(0.12742077 0.00038740147 0.00090100533)
(0.12820855 0.00033860632 0.00086877925)
(0.12896734 0.00029682981 0.00083418747)
(0.1296966 0.00026351579 0.00079442049)
(0.13039489 0.00024025625 0.00074609934)
(0.13105897 0.00022820047 0.00068416621)
(0.1316858 0.00022495488 0.0006025381)
(0.13244756 0.00021631088 0.00050188128)
(0.1005769 -0.00099321242 0.00042664794)
(0.1021068 -0.0013551726 0.00073905731)
(0.10389901 -0.0014269284 0.00093025152)
(0.10558031 -0.0014373116 0.0010562434)
(0.10715335 -0.0014268882 0.0011487081)
(0.10867996 -0.0013974941 0.0012158884)
(0.11016689 -0.0013559235 0.0012613021)
(0.11159868 -0.0013096109 0.0012896006)
(0.1129678 -0.0012629233 0.0013051465)
(0.11427525 -0.0012181121 0.001310837)
(0.11552387 -0.0011765632 0.0013082379)
(0.11671565 -0.0011391514 0.0012978989)
(0.1178523 -0.0011057539 0.0012793844)
(0.11893697 -0.0010742056 0.0012515018)
(0.11997437 -0.0010451094 0.0012145109)
(0.12096846 -0.0010190454 0.0011702555)
(0.12192193 -0.00099604347 0.001121021)
(0.12283668 -0.0009759962 0.0010690402)
(0.12371412 -0.00095853855 0.0010159909)
(0.12455556 -0.00094307569 0.00096282095)
(0.12536248 -0.00092895891 0.00090991112)
(0.12613664 -0.00091539705 0.00085740268)
(0.12687987 -0.00090144161 0.00080524795)
(0.1275943 -0.00088603275 0.00075261419)
(0.12828256 -0.00086778572 0.00069861721)
(0.12894748 -0.00084442232 0.0006424386)
(0.12959202 -0.00081290669 0.00058247802)
(0.13021815 -0.00076833485 0.00051756165)
(0.13082622 -0.00070098698 0.00044694707)
(0.13158981 -0.00059328703 0.00037377673)
(0.098377596 -0.00098087524 0.00041425915)
(0.09807468 -0.0013301855 0.0007122246)
(0.097470129 -0.0013788836 0.00088765059)
(0.096582719 -0.0013622712 0.00099540547)
(0.095684871 -0.0013257417 0.001067432)
(0.094872649 -0.0012712279 0.0011123128)
(0.094133529 -0.0012052858 0.0011337507)
(0.093442416 -0.0011355876 0.0011367138)
(0.092788225 -0.0010666838 0.0011259403)
(0.092167863 -0.00100073 0.0011046315)
(0.091579028 -0.00093876485 0.0010745803)
(0.091018548 -0.00088122911 0.0010365992)
(0.090483364 -0.00082803115 0.00099078278)
(0.089971672 -0.00077860639 0.00093686494)
(0.089483175 -0.000732794 0.00087512428)
(0.089018025 -0.00069069965 0.0008071462)
(0.088575717 -0.00065226136 0.00073528688)
(0.088155009 -0.00061727704 0.00066195741)
(0.087754216 -0.00058542832 0.00058914032)
(0.087371549 -0.00055631346 0.00051801524)
(0.087005666 -0.00052954826 0.00044846747)
(0.086655769 -0.0005046679 0.00038036347)
(0.086321131 -0.00048110901 0.00031408041)
(0.086001344 -0.00045827238 0.00024942989)
(0.085697269 -0.00043549717 0.00018586224)
(0.085410354 -0.00041148732 0.00012255171)
(0.085142654 -0.00038425963 5.9103317e-05)
(0.084899885 -0.00034997284 -3.3983874e-06)
(0.084695826 -0.00029780748 -6.086075e-05)
(0.084542499 -0.00020246955 -0.00010145145)
(0.098353467 0.000983197 0.00022312297)
(0.09797584 0.0013356783 0.00042072995)
(0.097284713 0.0013866982 0.00056791334)
(0.096331777 0.0013714529 0.00066919038)
(0.095391325 0.0013355615 0.00073751276)
(0.094551563 0.0012808949 0.00078157794)
(0.093797147 0.0012139163 0.00080630409)
(0.093103403 0.001142221 0.00081578693)
(0.092459427 0.0010701313 0.00081392935)
(0.091862228 0.00099914374 0.00080414264)
(0.091311153 0.00092864827 0.00078956734)
(0.090808673 0.00085510961 0.00077419619)
(0.090370306 0.0007704965 0.00076654776)
(0.089993541 0.00070534087 0.00079764993)
(0.08964381 0.00064609679 0.00087950922)
(0.089293649 0.00059335366 0.0010022593)
(0.088930891 0.00054802922 0.0011481586)
(0.088555099 0.00050635132 0.0012932727)
(0.088175464 0.00046791323 0.0014215739)
(0.087801782 0.000432686 0.0015282612)
(0.087438985 0.00040054677 0.0016137759)
(0.087087877 0.00037154927 0.0016795088)
(0.086747194 0.00034592319 0.0017263894)
(0.086414562 0.00032392185 0.0017544986)
(0.086086531 0.00030599235 0.0017625706)
(0.08575836 0.00029290391 0.0017470336)
(0.085423559 0.00028654423 0.0017003506)
(0.085074735 0.00028822848 0.0016077998)
(0.084704289 0.00029603879 0.0014411109)
(0.084193348 0.00031185509 0.0011535452)
(0.10055311 0.00099336866 0.00023011858)
(0.10200872 0.00135656 0.00043674082)
(0.10371503 0.0014290624 0.00059414328)
(0.1053315 0.0014393851 0.00070734362)
(0.10686175 0.0014282613 0.00078937915)
(0.10835949 0.0013974212 0.00084872224)
(0.10982861 0.0013533575 0.00089000269)
(0.11125384 0.0013030485 0.00091693496)
(0.11262748 0.0012500799 0.00093288464)
(0.11394973 0.0011952941 0.00094040552)
(0.1152224 0.0011375978 0.00094085153)
(0.11644511 0.0010737188 0.00093342367)
(0.11761522 0.00099882957 0.00091158301)
(0.11873666 0.00094443425 0.00086011755)
(0.11982769 0.00089818005 0.00078552359)
(0.12089046 0.00085873635 0.00069798017)
(0.12192421 0.00082538378 0.0006082721)
(0.1229272 0.00079350377 0.00052839581)
(0.12389582 0.0007623975 0.00046203099)
(0.12482864 0.00073239484 0.00040861632)
(0.12572588 0.00070384613 0.00036666681)
(0.12658802 0.00067746744 0.00033438841)
(0.12741515 0.0006544374 0.00030964302)
(0.12820688 0.00063570411 0.00028993378)
(0.12896215 0.00062312155 0.0002720214)
(0.12967927 0.00061994946 0.00025141733)
(0.13035343 0.00062994178 0.00022197603)
(0.13097581 0.00065936047 0.00017489323)
(0.13153977 0.00071496749 9.7741232e-05)
(0.13218606 0.00079681168 -2.4665241e-05)
(0.1005531 -0.00099346951 0.00023011406)
(0.10200866 -0.0013567912 0.00043672981)
(0.10371486 -0.0014294996 0.00059412011)
(0.10533113 -0.0014401749 0.0007072966)
(0.10686101 -0.0014296661 0.00078928472)
(0.10835807 -0.0013999025 0.00084853432)
(0.10982597 -0.0013577208 0.00088963225)
(0.11124906 -0.0013106897 0.00091621336)
(0.11261899 -0.001263399 0.00093150546)
(0.11393505 -0.0012183663 0.00093785598)
(0.11519812 -0.0011772012 0.00093645765)
(0.11640812 -0.0011405871 0.00092712861)
(0.11756488 -0.0011063975 0.00090787281)
(0.1186727 -0.0010663028 0.00087424094)
(0.11974022 -0.0010226516 0.00082474438)
(0.12077371 -0.0009783738 0.00076186218)
(0.12177621 -0.00093538567 0.00068970005)
(0.12274869 -0.00089568668 0.00061308124)
(0.12369071 -0.00085944775 0.00053597791)
(0.12460182 -0.00082591768 0.00046068734)
(0.12548221 -0.00079485694 0.00038846855)
(0.12633267 -0.00076552083 0.00031974728)
(0.12715373 -0.00073620404 0.00025429638)
(0.12794669 -0.00070494977 0.0001920012)
(0.1287149 -0.00066920215 0.00013181519)
(0.1294606 -0.00062555483 7.095713e-05)
(0.13018731 -0.00056881947 6.4550225e-06)
(0.13089936 -0.00048971154 -6.4366459e-05)
(0.13160255 -0.00037184007 -0.00014321903)
(0.13252274 -0.00019288691 -0.00022382055)
(0.098353436 -0.00098323554 0.0002231135)
(0.097975713 -0.0013357643 0.0004207068)
(0.097284387 -0.0013868576 0.00056786459)
(0.096331091 -0.001371737 0.00066909111)
(0.095390002 -0.0013360626 0.00073731265)
(0.094549113 -0.0012817772 0.00078117647)
(0.093792708 -0.0012154715 0.00080550022)
(0.093095454 -0.0011449708 0.00081417948)
(0.092445285 -0.0010750252 0.00081071234)
(0.091837125 -0.0010079663 0.00079768511)
(0.0912665 -0.00094493463 0.00077650459)
(0.09072825 -0.00088628348 0.00074738318)
(0.090217762 -0.00083139014 0.00070933897)
(0.089732943 -0.00077857193 0.00066044224)
(0.089274986 -0.00072779446 0.00059945547)
(0.088845757 -0.00067992864 0.00052769026)
(0.088445133 -0.00063544692 0.00044824242)
(0.088071035 -0.00059454934 0.00036483925)
(0.087720076 -0.00055697127 0.0002809333)
(0.087387707 -0.00052220285 0.00019896644)
(0.0870708 -0.00049045659 0.0001209461)
(0.086769297 -0.00046161065 4.7478669e-05)
(0.086482795 -0.00043461779 -2.2162964e-05)
(0.086209962 -0.00040780317 -8.8384662e-05)
(0.085950428 -0.00037968581 -0.00015111045)
(0.085705331 -0.00034917619 -0.00020946331)
(0.085479031 -0.00031297143 -0.00026288115)
(0.085281129 -0.00026553419 -0.00031167177)
(0.085134004 -0.00019372796 -0.00035579936)
(0.085104447 -6.7688528e-05 -0.00039437857)
(0.098341139 0.00098325217 6.6561042e-05)
(0.097926888 0.0013357465 0.00012527415)
(0.097188412 0.0013862073 0.00016744619)
(0.096195309 0.0013699347 0.00019340517)
(0.095227556 0.0013328434 0.0002076982)
(0.094370186 0.0012769077 0.00021424861)
(0.093604343 0.0012086003 0.00021535961)
(0.09290387 0.0011355098 0.00021257365)
(0.092257264 0.0010618887 0.00020718657)
(0.091661246 0.00098889992 0.00020031817)
(0.091115982 0.00091480523 0.00019305126)
(0.090629241 0.00083261775 0.00018704523)
(0.090244937 0.00072742629 0.00018692907)
(0.089965703 0.00071278617 0.00021346846)
(0.089716173 0.00074618472 0.00027511863)
(0.089438718 0.00082008373 0.0003658745)
(0.089104714 0.00092348399 0.00047433238)
(0.088713929 0.00100937 0.00058354567)
(0.088296134 0.0010747407 0.00068202958)
(0.087878693 0.0011215517 0.00076635217)
(0.087472945 0.0011522573 0.00083670422)
(0.087080361 0.0011698684 0.00089395838)
(0.086698717 0.0011774606 0.00093879161)
(0.086323903 0.0011779334 0.0009714652)
(0.085949294 0.0011738894 0.00099150492)
(0.085564226 0.0011679083 0.00099703581)
(0.085151172 0.0011637944 0.00098356856)
(0.084680207 0.0011675228 0.0009417599)
(0.084085109 0.0011871957 0.00085217762)
(0.082904635 0.0012603238 0.00067851241)
(0.10054083 0.00099339074 6.8616376e-05)
(0.10195992 0.0013570463 0.00012999421)
(0.10361932 0.0014297466 0.00017520463)
(0.10519644 0.0014398295 0.00020476837)
(0.10669991 0.0014281712 0.00022327347)
(0.10818002 0.0013965904 0.00023453318)
(0.10963717 0.0013515862 0.00024070932)
(0.11105459 0.0013000917 0.00024318807)
(0.11242369 0.0012455625 0.00024305485)
(0.11374345 0.0011884652 0.00024104108)
(0.11501329 0.0011267535 0.00023728019)
(0.11622617 0.0010549623 0.00023054962)
(0.11736677 0.00096712008 0.0002155644)
(0.11842916 0.00097532834 0.00018076406)
(0.11945257 0.0010418077 0.00013016751)
(0.12043806 0.0011552795 7.0836495e-05)
(0.1213845 0.0013011083 1.0919498e-05)
(0.12229127 0.0014326854 -4.0136475e-05)
(0.12314528 0.0015444372 -7.9651336e-05)
(0.12394414 0.0016377679 -0.00010825641)
(0.12469128 0.0017149447 -0.00012723342)
(0.1253904 0.0017786192 -0.00013802228)
(0.12604433 0.001831688 -0.00014223322)
(0.12665444 0.0018780633 -0.00014155786)
(0.12721979 0.0019218549 -0.00013814191)
(0.12773668 0.0019671858 -0.00013493831)
(0.12819658 0.0020214086 -0.00013635922)
(0.12858291 0.0020980215 -0.00014828906)
(0.1288638 0.0022197808 -0.00017920171)
(0.12897008 0.0024266378 -0.00024406794)
(0.10054082 -0.00099349874 6.861451e-05)
(0.10195985 -0.0013572951 0.00012998974)
(0.10361914 -0.0014302207 0.00017519523)
(0.10519602 -0.0014406939 0.00020474929)
(0.10669907 -0.0014297252 0.00022323487)
(0.10817839 -0.001399368 0.00023445581)
(0.10963412 -0.0013565367 0.00024055527)
(0.11104898 -0.001308894 0.00024288523)
(0.11241363 -0.0012611709 0.00024247177)
(0.11372603 -0.0012160247 0.00023996469)
(0.11498517 -0.0011750177 0.00023548177)
(0.11618833 -0.0011377019 0.00022838555)
(0.11733142 -0.0010961894 0.00021689321)
(0.11842051 -0.0010254443 0.000197303)
(0.11947424 -0.00092995737 0.00016779058)
(0.12050723 -0.00081781781 0.00012940029)
(0.12152679 -0.00069770238 8.4575656e-05)
(0.12253438 -0.00058265359 3.6605527e-05)
(0.12352598 -0.00047652488 -1.1587059e-05)
(0.12449704 -0.00037864841 -5.8203778e-05)
(0.12544487 -0.00028722364 -0.00010209266)
(0.12636793 -0.00020092132 -0.0001428185)
(0.127266 -0.0001187156 -0.00018054891)
(0.12813889 -3.8377902e-05 -0.00021471139)
(0.12898451 4.4259218e-05 -0.00024570062)
(0.1298041 0.00013682168 -0.00027590786)
(0.13058227 0.00024954897 -0.00030740105)
(0.13131777 0.00039741438 -0.00034242778)
(0.13201428 0.00060497791 -0.00038257392)
(0.13289605 0.00090770836 -0.00042361698)
(0.098341106 -0.00098329327 6.655718e-05)
(0.097926748 -0.0013358387 0.00012526482)
(0.097188051 -0.0013863799 0.00016742647)
(0.09619454 -0.0013702455 0.00019336472)
(0.095226053 -0.0013333981 0.00020761607)
(0.094367363 -0.0012778975 0.0002140823)
(0.093599136 -0.001210373 0.00021502256)
(0.092894341 -0.0011387058 0.00021188844)
(0.092239845 -0.0010677252 0.00020578739)
(0.091629227 -0.00099980542 0.00019743328)
(0.091056333 -0.00093601129 0.00018701569)
(0.090514029 -0.0008762469 0.00017410704)
(0.08999561 -0.00081856964 0.00015756513)
(0.089498441 -0.0007577641 0.00013555061)
(0.089026699 -0.00069286696 0.00010654199)
(0.088586709 -0.0006263417 7.067473e-05)
(0.08818129 -0.00056080044 2.9384048e-05)
(0.087809458 -0.00049908448 -1.5243275e-05)
(0.087467347 -0.00044281467 -6.1048397e-05)
(0.08715082 -0.00039196533 -0.00010626906)
(0.086855665 -0.0003452617 -0.00014843592)
(0.08657666 -0.00030174093 -0.00018652861)
(0.086311206 -0.00026110478 -0.0002216357)
(0.086059937 -0.00022288514 -0.00025419679)
(0.085825389 -0.00018454436 -0.00028392475)
(0.085610046 -0.00013890566 -0.00030925061)
(0.085444266 -7.7989716e-05 -0.00032935041)
(0.085346741 6.3523407e-06 -0.00034525803)
(0.085354461 0.00012651112 -0.00035895284)
(0.085644094 0.00030195188 -0.00037496029)
(0.098341139 0.00098325218 -6.6559832e-05)
(0.097926888 0.0013357465 -0.00012527376)
(0.097188412 0.0013862072 -0.00016744588)
(0.096195309 0.0013699347 -0.00019340488)
(0.095227556 0.0013328435 -0.00020769797)
(0.094370186 0.0012769077 -0.00021424842)
(0.093604343 0.0012086004 -0.00021535946)
(0.092903869 0.0011355099 -0.00021257334)
(0.092257265 0.001061889 -0.00020718681)
(0.091661245 0.00098889996 -0.00020031815)
(0.091115982 0.00091480547 -0.00019305206)
(0.090629243 0.00083261709 -0.00018704597)
(0.090244938 0.00072742393 -0.00018692808)
(0.08996571 0.00071278601 -0.0002134677)
(0.089716186 0.00074618653 -0.00027511261)
(0.089438737 0.0008200947 -0.00036586306)
(0.089104739 0.0009235055 -0.00047430746)
(0.088713952 0.001009402 -0.00058350758)
(0.088296156 0.0010747833 -0.00068197847)
(0.087878713 0.0011216018 -0.00076628918)
(0.087472961 0.0011523129 -0.00083662934)
(0.087080372 0.0011699306 -0.00089387401)
(0.086698726 0.0011775254 -0.00093869823)
(0.086323907 0.001178001 -0.00097136524)
(0.085949298 0.001173956 -0.00099139627)
(0.085564222 0.0011679765 -0.00099692379)
(0.085151161 0.0011638642 -0.00098345576)
(0.084680184 0.0011675936 -0.00094164931)
(0.084085064 0.0011872685 -0.00085207667)
(0.082904524 0.0012604023 -0.00067843404)
(0.10054083 0.00099339073 -6.861518e-05)
(0.10195992 0.0013570463 -0.00012999385)
(0.10361932 0.0014297465 -0.00017520444)
(0.10519644 0.0014398295 -0.00020476831)
(0.10669991 0.0014281713 -0.00022327352)
(0.10818002 0.0013965905 -0.00023453328)
(0.10963717 0.0013515862 -0.00024070939)
(0.11105459 0.0013000919 -0.00024318808)
(0.11242369 0.0012455627 -0.00024305505)
(0.11374345 0.0011884654 -0.00024104125)
(0.11501329 0.0011267539 -0.00023728035)
(0.11622617 0.0010549619 -0.00023054906)
(0.11736677 0.0009671183 -0.00021556403)
(0.11842915 0.00097532815 -0.0001807636)
(0.11945256 0.0010418112 -0.00013017142)
(0.12043804 0.0011552924 -7.0844974e-05)
(0.12138448 0.0013011341 -1.0934262e-05)
(0.12229124 0.0014327242 4.0117467e-05)
(0.12314524 0.0015444892 7.9628812e-05)
(0.12394409 0.0016378304 0.00010823184)
(0.12469122 0.0017150175 0.0001272065)
(0.12539033 0.0017787009 0.00013799683)
(0.12604424 0.001831777 0.00014220766)
(0.12665434 0.0018781593 0.0001415336)
(0.12721967 0.0019219522 0.00013811739)
(0.12773654 0.0019672867 0.00013491456)
(0.12819643 0.0020215132 0.00013633572)
(0.12858273 0.0020981303 0.00014826398)
(0.1288636 0.0022198957 0.00017917175)
(0.12896983 0.0024267644 0.00024402796)
(0.10054082 -0.00099349875 -6.8613358e-05)
(0.10195985 -0.0013572951 -0.00012998933)
(0.10361914 -0.0014302207 -0.00017519501)
(0.10519602 -0.0014406939 -0.00020474914)
(0.10669907 -0.0014297251 -0.00022323483)
(0.10817839 -0.001399368 -0.00023445581)
(0.10963412 -0.0013565366 -0.00024055539)
(0.11104898 -0.0013088942 -0.00024288521)
(0.11241363 -0.0012611706 -0.00024247216)
(0.11372603 -0.0012160251 -0.00023996475)
(0.11498517 -0.0011750173 -0.00023548194)
(0.11618833 -0.0011377023 -0.00022838515)
(0.11733142 -0.0010961889 -0.00021689247)
(0.1184205 -0.0010254437 -0.00019730319)
(0.11947423 -0.00092995336 -0.0001677926)
(0.12050723 -0.00081781029 -0.00012940531)
(0.12152678 -0.00069768863 -8.4583506e-05)
(0.12253438 -0.000582634 -3.6615443e-05)
(0.12352598 -0.00047649928 1.1574237e-05)
(0.12449704 -0.00037861691 5.8187586e-05)
(0.12544488 -0.00028718568 0.00010207488)
(0.12636794 -0.0002008793 0.00014279883)
(0.12726602 -0.00011866645 0.00018052715)
(0.12813891 -3.8324488e-05 0.00021468794)
(0.12898454 4.4318008e-05 0.0002456714)
(0.12980413 0.00013688623 0.00027587511)
(0.1305823 0.00024961975 0.00030736379)
(0.13131779 0.00039749069 0.00034238659)
(0.1320143 0.00060506138 0.0003825271)
(0.13289606 0.00090780265 0.00042356412)
(0.098341106 -0.00098329325 -6.6556049e-05)
(0.097926748 -0.0013358387 -0.00012526434)
(0.097188051 -0.0013863799 -0.00016742611)
(0.09619454 -0.0013702456 -0.00019336451)
(0.095226053 -0.0013333982 -0.00020761584)
(0.094367363 -0.0012778976 -0.00021408209)
(0.093599136 -0.0012103729 -0.00021502213)
(0.092894341 -0.0011387061 -0.00021188836)
(0.092239844 -0.0010677248 -0.00020578715)
(0.091629227 -0.00099980595 -0.00019743364)
(0.091056333 -0.00093601105 -0.00018701607)
(0.090514028 -0.00087624717 -0.00017410793)
(0.089995609 -0.00081856958 -0.00015756653)
(0.089498439 -0.00075776358 -0.00013555301)
(0.089026695 -0.00069286593 -0.00010654639)
(0.088586704 -0.00062633918 -7.0681745e-05)
(0.088181283 -0.00056079686 -2.9394785e-05)