/*--------------------------------*- C++ -*----------------------------------*\
| =========                 |                                                 |
| \\      /  F ield         | OpenFOAM: The Open Source CFD Toolbox           |
|  \\    /   O peration     | Version:  2412                                  |
|   \\  /    A nd           | Website:  www.openfoam.com                      |
|    \\/     M anipulation  |                                                 |
\*---------------------------------------------------------------------------*/
FoamFile
{
    version     2.0;
    format      ascii;
    arch        "LSB;label=32;scalar=64";
    class       volScalarField;
    location    "90/rightSolid";
    object      T;
}
// * * * * * * * * * * * * * * * * * * * * * * * * * * * * * * * * * * * * * //

dimensions      [0 0 0 1 0 0 0];

internalField   nonuniform List<scalar> 
130
(
324.19423
321.48645
318.70849
316.01105
313.50276
311.25224
309.29566
307.64575
306.30004
305.24769
304.47471
303.96779
303.7169
326.57185
323.32517
320.07309
316.99365
314.19523
311.73304
309.6263
307.87204
306.45507
305.35506
304.5513
304.02599
303.76644
331.37832
326.89015
322.61657
318.7641
315.4085
312.55649
310.1822
308.24682
306.70876
305.52913
304.67463
304.11935
303.84586
338.55942
331.73015
325.8072
320.85246
316.77416
313.45111
310.77015
308.63521
306.96766
305.70478
304.79815
304.21248
303.92498
346.93848
336.26129
328.38806
322.38412
317.71157
314.03797
311.14398
308.87695
307.12655
305.81168
304.87303
304.26895
303.97305
346.93848
336.26129
328.38806
322.38412
317.71157
314.03797
311.14398
308.87695
307.12655
305.81168
304.87304
304.26896
303.97306
338.55943
331.73016
325.80722
320.85247
316.77417
313.45111
310.77016
308.63522
306.96767
305.70479
304.79815
304.21249
303.92499
331.37835
326.89018
322.6166
318.76412
315.40851
312.55649
310.18221
308.24683
306.70877
305.52913
304.67463
304.11936
303.84587
326.57189
323.32521
320.07312
316.99367
314.19525
311.73305
309.62632
307.87205
306.45508
305.35507
304.55131
304.02599
303.76645
324.19428
321.4865
318.70853
316.01107
313.50278
311.25225
309.29568
307.64576
306.30005
305.2477
304.47472
303.9678
303.71691
)
;

boundaryField
{
    maxX
    {
        type            zeroGradient;
    }
    minZ
    {
        type            zeroGradient;
    }
    maxZ
    {
        type            zeroGradient;
    }
    rightSolid_to_bottomWater
    {
        type            compressible::turbulentTemperatureRadCoupledMixed;
        refValue        nonuniform List<scalar> 
130
(
303.2347
303.21045
303.02477
302.71851
302.34123
301.9424
301.56146
301.22709
300.9495
300.7304
300.56543
300.44861
300.37479
303.33811
303.45557
303.40588
303.21045
302.90336
302.5265
302.12127
301.72815
301.37196
301.06847
300.82397
300.63798
300.50774
304.71049
304.75689
304.60289
304.27882
303.8282
303.30308
302.75405
302.23005
301.76026
301.36231
301.04199
300.79691
300.62231
311.63548
310.16909
308.64079
307.17694
305.84017
304.65911
303.64597
302.80884
302.13548
301.60943
301.21092
300.91752
300.7122
322.70912
311.98981
308.49824
306.48133
305.02574
303.90479
303.02848
302.34445
301.80913
301.39286
301.07332
300.83356
300.66322
322.70975
311.99018
308.49841
306.4814
305.02577
303.90477
303.02847
302.34445
301.80913
301.39286
301.07333
300.83356
300.66322
311.63793
310.17088
308.6418
307.17739
305.84033
304.65878
303.64583
302.80881
302.13549
301.60945
301.21093
300.91753
300.7122
304.71184
304.75806
304.60371
304.27928
303.82832
303.30116
302.75459
302.23055
301.76061
301.36249
301.04208
300.79694
300.62233
303.33928
303.45653
303.40652
303.21079
302.90344
302.52493
302.12174
301.72858
301.37223
301.06861
300.82403
300.638
300.50775
303.23602
303.21131
303.02521
302.71868
302.34121
301.94121
301.56194
301.22738
300.94962
300.73044
300.56544
300.44861
300.3748
)
;
        refGradient     uniform 0;
        valueFraction   uniform 0.0075140686;
        source          uniform 0;
        logInterval     -1;
        writePrecision  8;
        updateHeader    1;
        writeToFile     0;
        useUserTime     1;
        kappaMethod     solidThermo;
        value           nonuniform List<scalar> 
130
(
324.02933
321.34206
318.58399
315.90496
313.41316
311.17703
309.23276
307.59318
306.25589
305.21014
304.442
303.93819
303.68872
326.38992
323.16885
319.94122
316.88388
314.10465
311.65861
309.56512
307.82152
306.41292
305.31923
304.51994
303.99736
303.73888
331.1707
326.71689
322.47461
318.64906
315.31574
312.48168
310.12157
308.19724
306.66761
305.49418
304.64396
304.0912
303.81855
338.35005
331.56127
325.67164
320.74351
316.68625
313.37975
310.71179
308.58704
306.92736
305.67036
304.76781
304.18452
303.89773
346.7496
336.07216
328.23208
322.25845
317.61049
313.95653
311.07816
308.82347
307.0826
305.77482
304.84109
304.23993
303.94507
346.7496
336.07216
328.23209
322.25845
317.6105
313.95653
311.07817
308.82346
307.0826
305.77482
304.84109
304.23994
303.94508
338.35008
331.5613
325.67167
320.74353
316.68626
313.37975
310.71179
308.58705
306.92737
305.67036
304.76781
304.18453
303.89775
331.17074
326.71693
322.47464
318.64909
315.31575
312.48167
310.12159
308.19725
306.66762
305.49419
304.64397
304.09121
303.81856
326.38997
323.16889
319.94125
316.88391
314.10466
311.6586
309.56514
307.82153
306.41293
305.31924
304.51994
303.99736
303.73889
324.02939
321.34211
318.58403
315.90499
313.41318
311.17703
309.23278
307.59319
306.2559
305.21015
304.442
303.9382
303.68873
)
;
    }
    rightSolid_to_topAir
    {
        type            compressible::turbulentTemperatureRadCoupledMixed;
        refValue        nonuniform List<scalar> 
130
(
306.62404
307.2829
307.73694
308.00405
308.10317
308.06107
307.9051
307.66179
307.35617
307.01108
306.64638
306.27786
305.93168
306.32252
306.93652
307.34734
307.57762
307.6541
307.60557
307.46159
307.25206
307.0073
306.75808
306.51921
306.26688
306.02312
307.45482
308.10576
308.50652
308.69437
308.70814
308.58589
308.36436
308.07869
307.7635
307.45327
307.16565
306.87229
306.59619
309.61896
310.35359
310.76227
310.91313
310.86473
310.6658
310.35686
309.97181
309.53968
309.08615
308.63361
308.19938
307.80906
312.60036
313.28521
313.57242
313.57518
313.3733
313.02534
312.57565
312.05846
311.5008
310.92449
310.34761
309.78514
309.26084
312.60036
313.28521
313.57242
313.57518
313.37329
313.02535
312.57565
312.05846
311.5008
310.92449
310.34761
309.78514
309.26083
309.61896
310.35359
310.76227
310.91313
310.86471
310.6658
310.35685
309.9718
309.53967
309.08614
308.6336
308.19938
307.80906
307.45482
308.10576
308.50653
308.69437
308.70812
308.5859
308.36435
308.07869
307.76349
307.45326
307.16565
306.87229
306.59619
306.32252
306.93653
307.34735
307.57763
307.65409
307.60558
307.46159
307.25207
307.0073
306.75809
306.51921
306.26689
306.02313
306.62404
307.28291
307.73695
308.00406
308.10316
308.06108
307.90511
307.66181
307.35618
307.0111
306.64639
306.27787
305.93169
)
;
        refGradient     uniform 0;
        valueFraction   uniform 0.00032132529;
        source          uniform 0;
        logInterval     -1;
        writePrecision  8;
        updateHeader    1;
        writeToFile     0;
        useUserTime     1;
        kappaMethod     solidThermo;
        value           nonuniform List<scalar> 
130
(
324.18112
321.47478
318.69826
316.00222
313.49525
311.24592
309.2904
307.64139
306.29641
305.24462
304.47204
303.96535
303.71452
326.55794
323.31283
320.06232
316.98438
314.18735
311.72642
309.62078
307.86746
306.45126
305.35187
304.54855
304.02351
303.76407
331.36335
326.87711
322.60538
318.75463
315.40056
312.5499
310.17677
308.24236
306.7051
305.52608
304.67203
304.11703
303.84363
338.54301
331.71637
325.79575
320.84303
316.76647
313.44488
310.76515
308.63122
306.96447
305.70219
304.79597
304.21054
303.9231
346.92058
336.2471
328.37673
322.37507
317.70438
314.03231
311.13957
308.87354
307.12393
305.80964
304.87138
304.2675
303.97162
346.92057
336.2471
328.37673
322.37507
317.70438
314.03231
311.13957
308.87354
307.12393
305.80964
304.87138
304.2675
303.97163
338.54302
331.71638
325.79577
320.84305
316.76648
313.44489
310.76516
308.63122
306.96447
305.70219
304.79598
304.21055
303.92311
331.36337
326.87714
322.60541
318.75465
315.40057
312.5499
310.17678
308.24237
306.70511
305.52609
304.67204
304.11703
303.84364
326.55798
323.31287
320.06235
316.9844
314.18737
311.72643
309.6208
307.86747
306.45128
305.35188
304.54856
304.02352
303.76408
324.18117
321.47482
318.6983
316.00225
313.49527
311.24593
309.29041
307.6414
306.29642
305.24463
304.47205
303.96536
303.71453
)
;
    }
    rightSolid_to_heater
    {
        type            compressible::turbulentTemperatureRadCoupledMixed;
        refValue        nonuniform List<scalar> 10(326.64901 329.56329 335.66396 345.70005 362.13958 362.13959 345.70006 335.66398 329.56332 326.64906);
        refGradient     uniform 0;
        valueFraction   uniform 0.50000003;
        source          uniform 0;
        logInterval     -1;
        writePrecision  8;
        updateHeader    1;
        writeToFile     0;
        useUserTime     1;
        kappaMethod     solidThermo;
        value           nonuniform List<scalar> 10(325.41788 328.06387 333.5175 342.12618 354.53559 354.5356 342.12619 333.51752 328.0639 325.41794);
    }
}


// ************************************************************************* //
