/*--------------------------------*- C++ -*----------------------------------*\
| =========                 |                                                 |
| \\      /  F ield         | OpenFOAM: The Open Source CFD Toolbox           |
|  \\    /   O peration     | Version:  2412                                  |
|   \\  /    A nd           | Website:  www.openfoam.com                      |
|    \\/     M anipulation  |                                                 |
\*---------------------------------------------------------------------------*/
FoamFile
{
    version     2.0;
    format      ascii;
    arch        "LSB;label=32;scalar=64";
    class       surfaceScalarField;
    location    "5/air";
    object      phi;
}
// * * * * * * * * * * * * * * * * * * * * * * * * * * * * * * * * * * * * * //

dimensions      [1 0 -1 0 0 0 0];

oriented        oriented;

internalField   nonuniform List<scalar> 
111140
(
-5.66586e-05
-6.19236e-05
-0.000327558
7.73033e-05
-3.42192e-05
-0.000281651
0.000104977
-4.07328e-05
-0.000182685
0.000116232
-2.72832e-05
-0.000147544
0.000116933
-1.66228e-05
-0.000113071
0.000114182
-8.80722e-06
-8.51465e-05
0.000108308
-4.00076e-06
-6.01848e-05
0.000100335
-7.68824e-07
-4.06566e-05
9.11468e-05
2.42369e-06
-2.54829e-05
8.61818e-05
3.89531e-06
-1.48428e-05
8.94037e-05
-6.39732e-06
-5.1525e-06
0.000100561
-4.09487e-05
6.97366e-06
0.000113081
-9.24664e-05
1.41846e-05
0.000119087
-0.000142224
1.84729e-05
0.000114061
-0.000177204
2.18015e-05
9.58276e-05
-0.000184961
2.39654e-05
6.67699e-05
-0.000161494
2.25711e-05
3.57803e-05
-0.000115976
1.59128e-05
1.8752e-05
-7.23281e-05
2.38195e-06
-5.6702e-05
-2.55197e-06
-3.32181e-05
6.57655e-05
-0.000282138
8.89947e-05
8.01645e-05
-0.000236596
0.000109151
8.36928e-05
-0.000144582
0.00011224
8.6184e-05
-0.000116556
0.000104899
7.91974e-05
-8.8479e-05
9.21701e-05
6.86711e-05
-6.47497e-05
7.74766e-05
5.69074e-05
-4.62147e-05
6.41773e-05
4.43062e-05
-3.17757e-05
5.7309e-05
3.07373e-05
-2.14453e-05
6.07957e-05
1.08858e-05
-1.04771e-05
8.03685e-05
-2.78387e-05
1.8686e-06
0.000106219
-8.083e-05
1.40309e-05
0.000123064
-0.00013103
2.17186e-05
0.000126705
-0.000171264
2.53985e-05
0.000115516
-0.000193667
2.76518e-05
8.86736e-05
-0.000185977
2.78581e-05
5.13406e-05
-0.000147652
2.34917e-05
1.55281e-05
-9.31102e-05
1.29466e-05
4.76907e-06
-5.74281e-05
-4.14103e-06
-5.39825e-05
-6.1048e-06
-3.83915e-05
8.83665e-05
-0.000188429
9.8159e-05
9.47288e-05
-0.000151115
0.000130779
0.000108138
-5.7065e-05
0.000141531
0.000111175
-3.57431e-05
0.000142336
0.000101995
-2.36032e-05
0.000135476
8.69159e-05
-1.13844e-05
0.000123901
6.91301e-05
-6.47768e-07
0.00011092
4.82494e-05
9.03725e-06
0.000103472
2.26645e-05
1.55215e-05
0.000110934
-1.76737e-05
2.10971e-05
0.000125489
-7.03854e-05
2.7992e-05
0.000136053
-0.000122136
3.07421e-05
0.000138496
-0.000164216
3.0743e-05
0.000130238
-0.000193305
3.02993e-05
0.000108434
-0.000203094
3.12319e-05
7.11284e-05
-0.000178748
3.00757e-05
2.63427e-05
-0.000125552
2.26853e-05
-3.83639e-06
-7.17727e-05
8.84152e-06
-9.6485e-08
-5.09273e-05
-1.02407e-05
-5.51581e-05
-8.9665e-06
-2.66699e-05
8.87621e-05
-0.000152001
0.000102509
8.46876e-05
-0.000119138
0.000137433
0.000105317
-3.21023e-05
0.000149562
0.000108279
-9.23216e-06
0.000153067
9.72494e-05
1.23985e-06
0.000147995
8.03899e-05
1.15982e-05
0.000138408
5.74719e-05
2.12448e-05
0.000130254
2.67101e-05
2.96936e-05
0.000131841
-1.5925e-05
3.70032e-05
0.000141045
-6.89215e-05
4.20437e-05
0.000148462
-0.000118482
4.06796e-05
0.000149416
-0.000159715
3.66251e-05
0.00014185
-0.000189691
3.3041e-05
0.000124241
-0.000207308
3.16119e-05
9.2394e-05
-0.000204846
3.35985e-05
4.52424e-05
-0.000163013
3.14172e-05
4.77187e-07
-0.000101215
2.04284e-05
-1.48881e-05
-6.11398e-05
4.73238e-06
-8.19193e-07
-5.02629e-05
-1.47333e-05
-5.65208e-05
-1.13684e-05
-1.88331e-05
7.0664e-05
-0.000119571
9.9423e-05
5.30867e-05
-8.66551e-05
0.000131729
8.25606e-05
-9.54992e-06
0.000142396
8.35327e-05
1.40789e-05
0.000145921
6.70831e-05
2.66412e-05
0.000141295
1.33635e-05
3.68351e-05
1.14402e-05
1.28954e-05
1.04822e-05
0.000136846
6.67517e-06
4.75197e-05
2.43375e-06
4.80382e-06
4.8812e-07
0.000139747
-5.30698e-06
5.67907e-05
-1.05412e-05
-6.56906e-06
-1.05647e-05
0.000148816
-1.95862e-05
5.77667e-05
-2.43351e-05
-1.78742e-05
-2.09648e-05
0.000156017
-3.25329e-05
4.98922e-05
-3.639e-05
-2.73795e-05
-2.97127e-05
0.0001576
-4.3052e-05
4.06251e-05
-4.60176e-05
-3.48543e-05
-3.67659e-05
0.000151504
-5.10991e-05
3.40013e-05
-5.31446e-05
-4.09237e-05
-4.24531e-05
0.000136159
-5.63569e-05
3.05409e-05
-5.71154e-05
-4.53373e-05
-4.60775e-05
0.000110491
-5.79762e-05
3.0889e-05
-5.68353e-05
-4.78349e-05
-4.98831e-05
6.79651e-05
-5.34414e-05
3.6015e-05
-4.82853e-05
-4.99612e-05
-4.66467e-05
1.33761e-05
-0.000140397
3.19729e-05
-1.79587e-05
-8.69707e-05
1.70903e-05
-1.85654e-05
-6.16309e-05
1.09782e-06
-1.52242e-06
-5.01249e-05
-1.71809e-05
-5.80884e-05
-1.43361e-05
-1.65418e-05
4.50591e-05
-9.91514e-05
8.6244e-05
1.37781e-05
-6.34771e-05
0.00010659
4.27373e-05
1.94769e-05
0.000112307
3.23416e-05
4.54743e-05
3.2268e-05
-1.97789e-06
6.01069e-05
2.90179e-05
3.18528e-05
2.81226e-05
3.10145e-05
7.11608e-06
7.50092e-06
-3.16953e-05
3.19276e-05
-2.88824e-06
9.33103e-06
-3.33276e-05
3.40767e-05
-1.60265e-05
9.97048e-06
-3.66068e-05
3.75523e-05
-2.89005e-05
8.36882e-06
-3.99776e-05
4.0505e-05
-3.98657e-05
6.80532e-06
-4.20498e-05
4.17402e-05
-4.87134e-05
5.97089e-06
-4.19489e-05
4.03943e-05
-5.54607e-05
5.91626e-06
-3.89328e-05
3.60477e-05
-5.94739e-05
6.00206e-06
-3.31169e-05
2.93876e-05
-5.95815e-05
5.33456e-06
-2.49947e-05
1.89281e-05
-5.31307e-05
5.75591e-06
-1.44939e-05
-0.00012614
3.09432e-05
-9.76823e-06
-6.23289e-06
-8.84394e-06
-5.86164e-06
-2.76486e-05
-8.77993e-05
1.39833e-05
-2.29045e-05
-6.60022e-05
-3.7295e-07
-2.36632e-06
-4.99148e-05
-2.07482e-05
-5.99863e-05
-1.8136e-05
-2.57931e-05
2.47584e-05
-8.17586e-05
4.70205e-05
-6.80619e-06
-5.22294e-05
5.80282e-05
-1.41046e-05
4.58342e-05
7.097e-05
-4.48964e-05
6.42962e-05
2.18505e-05
-8.54852e-05
6.55102e-05
2.36996e-05
2.06488e-05
2.27683e-05
3.57376e-06
2.44922e-05
-1.71301e-05
1.09146e-05
1.47825e-05
-2.75412e-05
2.06099e-06
2.44924e-06
2.24694e-06
2.30978e-06
7.5795e-06
7.58453e-06
7.5225e-06
7.64284e-06
-6.9192e-06
-6.4058e-06
-6.48502e-06
-6.82756e-06
-8.22818e-06
6.45276e-06
8.56778e-06
-7.65968e-06
8.67308e-07
-9.62585e-06
9.01566e-06
9.77123e-06
-9.85165e-06
6.90603e-07
-1.03058e-05
1.1137e-05
1.03394e-05
-1.17267e-05
5.56094e-07
-1.04968e-05
1.29126e-05
1.04044e-05
-1.33289e-05
5.0863e-07
-1.00291e-05
1.42629e-05
9.74585e-06
-1.45147e-05
5.35092e-07
-8.70288e-06
1.49698e-05
8.24339e-06
-1.50339e-05
5.2357e-07
-6.78842e-06
1.46591e-05
-1.45204e-05
3.29407e-07
6.32038e-06
-1.84313e-05
5.15725e-05
9.88414e-06
-4.95268e-05
6.50145e-06
-3.0431e-05
-0.000126209
2.83065e-05
-9.55487e-07
2.27611e-06
-1.02743e-06
1.90074e-06
-3.47834e-05
-9.58824e-05
1.24356e-05
-2.75051e-05
-7.19309e-05
-1.34965e-06
-2.58575e-06
-4.97091e-05
-2.51251e-05
-6.19065e-05
-2.28793e-05
-2.97003e-05
3.28474e-07
-6.7765e-05
3.60374e-05
-1.95832e-05
-5.29608e-05
5.7561e-05
-6.97464e-05
3.41182e-05
8.52432e-05
-0.000110099
3.75202e-05
2.61412e-05
-0.000138833
3.26298e-05
2.71244e-05
2.58405e-05
2.68553e-05
2.72006e-05
2.82878e-05
-3.3586e-05
4.23884e-06
8.4698e-06
-7.42821e-06
7.6511e-06
-9.24901e-06
5.56327e-07
1.0786e-05
-8.61874e-06
9.01758e-06
-1.13983e-05
4.2816e-08
6.26128e-08
2.70911e-08
8.09231e-08
-9.65493e-06
1.21247e-05
9.8052e-06
-1.26339e-05
9.05088e-08
8.29061e-08
4.47249e-08
1.40785e-07
-1.00826e-05
1.35062e-05
1.01177e-05
-1.39327e-05
1.03414e-07
8.74575e-08
4.49577e-08
1.55643e-07
-1.00087e-05
1.46966e-05
9.89193e-06
-1.50039e-05
1.14716e-07
9.17567e-08
5.17078e-08
1.65939e-07
-9.31004e-06
1.5359e-05
8.99588e-06
-1.54927e-05
1.25414e-07
9.43207e-08
5.72119e-08
1.70966e-07
-7.86451e-06
1.51886e-05
7.4195e-06
-1.51266e-05
1.12721e-07
7.36586e-08
4.14691e-08
1.55196e-07
-5.90789e-06
1.40966e-05
-1.39347e-05
5.41399e-06
5.91661e-08
1.15129e-07
1.0679e-07
5.08707e-08
-2.85019e-06
4.7507e-05
1.3977e-06
-4.57318e-05
8.23982e-06
-2.5719e-06
-3.15577e-06
-2.83482e-06
-4.16808e-05
-0.000134636
2.56427e-05
5.51396e-06
7.08818e-06
5.1438e-06
6.71918e-06
-4.26941e-05
-0.000106324
1.14546e-05
-3.2387e-05
-7.96395e-05
-2.5984e-06
-2.15169e-06
-4.99504e-05
-2.9994e-05
-6.37405e-05
-2.87522e-05
-2.85111e-05
-4.26015e-05
-5.08894e-05
4.76641e-05
-4.75255e-05
-4.82329e-05
7.4755e-05
-0.000110517
1.36793e-05
9.85107e-05
-0.000148502
1.46477e-05
2.88664e-05
-0.000171306
1.32849e-05
2.97683e-05
2.90908e-05
2.99733e-05
3.90496e-05
3.10789e-05
-4.27385e-05
1.47642e-06
1.10124e-05
-7.90528e-06
7.99095e-06
-1.14117e-05
3.13573e-07
1.2384e-05
-8.36564e-06
8.73804e-06
-1.26377e-05
-2.2255e-08
-2.82911e-08
1.51157e-08
-8.33087e-08
1.33418e-05
-9.39923e-06
9.52121e-06
-1.34707e-05
1.48881e-08
-1.16396e-08
-6.60645e-08
6.97442e-08
1.44328e-05
-9.67857e-06
9.66443e-06
-1.44814e-05
3.10252e-08
5.72322e-10
-5.73865e-08
8.85483e-08
1.51739e-05
-9.44655e-06
9.30637e-06
-1.51085e-05
3.86133e-08
-7.9092e-10
-5.53226e-08
9.22922e-08
1.527e-05
-8.65686e-06
8.38305e-06
-1.50919e-05
4.26587e-08
4.99695e-09
-4.88226e-08
9.69229e-08
1.45618e-05
-7.4764e-06
7.1454e-06
-1.43037e-05
3.80942e-08
-1.92216e-09
-4.77299e-08
8.4385e-08
-5.7151e-06
1.34055e-05
-1.3196e-05
4.93133e-06
1.17057e-07
1.69122e-07
1.70489e-07
1.17627e-07
-1.34273e-06
4.45307e-05
-4.34521e-06
-4.37764e-05
8.68588e-06
-1.07054e-06
-1.48824e-06
-1.19339e-06
-5.3433e-05
-0.000144944
2.34605e-05
9.42976e-06
1.08358e-05
9.29021e-06
1.07244e-05
-5.11136e-05
-0.000118682
1.00385e-05
-3.74911e-05
-8.93668e-05
-3.89525e-06
-7.68141e-07
-5.1712e-05
-3.49613e-05
-6.5587e-05
-3.56389e-05
-2.95085e-05
-8.53544e-05
-5.11529e-05
5.23239e-05
-7.78003e-05
-5.15576e-05
8.49482e-05
-0.000141756
-1.3847e-06
0.000110435
-0.000172931
-1.05864e-06
3.17016e-05
-0.000191447
9.33787e-07
3.26902e-05
3.21552e-05
3.30952e-05
4.61018e-05
3.40296e-05
-4.83341e-05
-9.56978e-08
1.24052e-05
-8.5286e-06
8.56177e-06
-1.26516e-05
2.13276e-07
1.32182e-05
-8.67347e-06
9.02209e-06
-1.33974e-05
-3.10997e-08
-4.59667e-08
8.62166e-09
-1.00947e-07
1.37959e-05
-9.57751e-06
9.65373e-06
-1.38882e-05
1.89134e-08
-1.106e-08
-6.60941e-08
7.43865e-08
1.45455e-05
-9.64648e-06
9.58507e-06
-1.45456e-05
3.02465e-08
7.53913e-10
-5.88894e-08
8.93851e-08
1.4834e-05
-9.22878e-06
9.02492e-06
-1.47345e-05
4.53711e-08
6.88073e-09
-4.74246e-08
9.95137e-08
1.44981e-05
-8.28169e-06
8.01385e-06
-1.4282e-05
2.76652e-08
-1.58922e-09
-5.78202e-08
8.3509e-08
1.34969e-05
-7.16547e-06
6.84407e-06
-1.32175e-05
3.04411e-08
-9.61346e-09
-5.07972e-08
7.20592e-08
-5.23349e-06
1.23274e-05
-1.20339e-05
4.20473e-06
1.50713e-07
2.1361e-07
2.17869e-07
1.53047e-07
1.13356e-07
4.36701e-05
-9.01472e-06
-4.40238e-05
8.45517e-06
4.06748e-07
5.3133e-08
3.39983e-07
-6.55186e-05
-0.000156365
2.08796e-05
1.33044e-05
1.46419e-05
1.33881e-05
1.47261e-05
-5.96942e-05
-0.000132474
7.96813e-06
-4.22783e-05
-0.000101348
-5.43432e-06
1.46006e-06
-5.59437e-05
-3.95067e-05
-6.85365e-05
-4.26421e-05
-3.22483e-05
-0.000114382
-7.31355e-05
5.91907e-05
-0.000100836
-6.84035e-05
9.56427e-05
-0.00016323
-1.49781e-05
0.000122911
-0.000189781
-1.04176e-05
3.48989e-05
-0.000205004
-6.18582e-06
3.603e-05
3.53657e-05
3.63585e-05
5.05862e-05
3.73638e-05
-5.20568e-05
-9.94292e-07
1.33862e-05
-9.35229e-06
9.37112e-06
-1.35663e-05
1.61325e-07
1.38855e-05
-9.26343e-06
9.5248e-06
-1.40322e-05
-1.93941e-08
-3.30811e-08
3.22144e-08
-9.44191e-08
1.40991e-05
-9.85278e-06
9.846e-06
-1.41448e-05
2.80036e-08
-2.32244e-09
-5.84084e-08
8.51987e-08
1.44751e-05
-9.61069e-06
9.50022e-06
-1.44203e-05
2.64449e-08
1.67414e-09
-6.10552e-08
8.85994e-08
1.45102e-05
-9.02868e-06
8.7616e-06
-1.43462e-05
1.03093e-07
1.35583e-05
-7.84426e-06
7.56643e-06
-1.32871e-05
1.75865e-08
-1.39146e-08
-6.29855e-08
6.58861e-08
1.23527e-05
-6.65671e-06
6.32531e-06
-1.20569e-05
2.73435e-08
-9.85444e-09
-4.65828e-08
6.47288e-08
-4.59175e-06
1.12368e-05
-1.10253e-05
3.33611e-06
2.25961e-07
2.7623e-07
2.97684e-07
2.44301e-07
1.42885e-06
4.4898e-05
-1.34571e-05
-4.57205e-05
8.28474e-06
1.63779e-06
1.35956e-06
1.56873e-06
-7.75842e-05
-0.000167991
1.78333e-05
1.71007e-05
1.83318e-05
1.73712e-05
1.85724e-05
-6.81931e-05
-0.000146877
5.01131e-06
-4.65559e-05
-0.000115485
-7.50069e-06
4.77242e-06
-6.37125e-05
-4.35595e-05
-7.49312e-05
-4.84274e-05
-3.75004e-05
-0.000131497
-0.000102366
6.97869e-05
-0.000117089
-9.10344e-05
0.00011049
-0.000178052
-2.58806e-05
0.000138751
-0.000201738
-1.63035e-05
3.87929e-05
-0.000214261
-1.01412e-05
3.99813e-05
3.91413e-05
4.02341e-05
5.37296e-05
4.12268e-05
-5.45869e-05
-1.57657e-06
1.40706e-05
-1.0263e-05
1.02415e-05
-1.41556e-05
1.06501e-07
1.43042e-05
-9.9135e-06
1.00614e-05
-1.43366e-05
-2.1015e-08
-2.90295e-08
2.34122e-08
-8.88642e-08
1.41876e-05
-1.00633e-05
9.95627e-06
-1.41681e-05
3.48088e-08
8.27115e-09
-5.0856e-08
9.53414e-08
1.41326e-05
-9.47041e-06
9.26644e-06
-1.39956e-05
2.94697e-08
3.80355e-09
-5.46847e-08
8.83824e-08
1.35235e-05
-8.52675e-06
8.23874e-06
-1.32632e-05
2.20132e-08
-8.52628e-09
-5.92621e-08
7.35541e-08
1.23973e-05
-7.28711e-06
6.95418e-06
-1.20754e-05
1.7964e-08
-1.28096e-08
-5.57812e-08
6.16552e-08
1.11366e-05
-5.95704e-06
5.6215e-06
-1.08151e-05
1.9738e-08
-1.30256e-08
-4.55911e-08
5.29675e-08
-3.84793e-06
1.03437e-05
-1.0114e-05
2.44539e-06
2.52376e-07
2.93362e-07
3.33774e-07
2.93263e-07
2.55181e-06
4.6729e-05
-1.75716e-05
-4.7478e-05
7.84568e-06
2.75323e-06
2.49016e-06
2.67964e-06
-8.94594e-05
-0.000178583
1.44173e-05
2.06859e-05
2.17546e-05
2.10912e-05
2.21026e-05
-7.66388e-05
-0.000160352
6.54385e-07
-5.04021e-05
-0.00013141
-1.03118e-05
9.50457e-06
-7.6109e-05
-4.75101e-05
-8.80728e-05
-5.12878e-05
-4.47787e-05
-0.000140344
-0.000134267
8.21544e-05
-0.000128622
-0.0001154
0.000127368
-0.000187925
-3.53416e-05
0.000156018
-0.000209643
-2.07447e-05
4.29709e-05
-0.000220009
-1.29229e-05
4.40691e-05
4.32932e-05
4.43551e-05
5.57792e-05
4.53242e-05
-5.62107e-05
-1.92182e-06
1.44122e-05
-1.1229e-05
1.11422e-05
-1.44355e-05
1.10172e-07
1.43143e-05
-1.04094e-05
1.04494e-05
-1.4253e-05
-1.71136e-08
-3.2794e-08
4.09406e-08
-9.23587e-08
1.39731e-05
-1.01379e-05
9.96075e-06
-1.38339e-05
1.67238e-08
-1.94375e-09
-5.94383e-08
8.26176e-08
1.34224e-05
-9.28346e-06
9.01018e-06
-1.31554e-05
1.2346e-08
-1.17606e-08
-6.38102e-08
6.95546e-08
1.23653e-05
-8.05662e-06
7.70338e-06
-1.20079e-05
1.08171e-08
-1.47276e-08
-5.99457e-08
5.97512e-08
1.10156e-05
-6.58657e-06
6.21289e-06
-1.06239e-05
7.97713e-09
-1.8157e-08
-5.52252e-08
4.73884e-08
9.77581e-06
-5.12189e-06
4.77234e-06
-9.38822e-06
3.32642e-09
-2.32128e-08
-5.13864e-08
3.32314e-08
-2.97755e-06
9.5895e-06
-9.47231e-06
1.43645e-06
3.07387e-07
3.56309e-07
4.0336e-07
3.56846e-07
3.57862e-06
4.83262e-05
-2.12575e-05
-4.87799e-05
7.24904e-06
3.74772e-06
3.49175e-06
3.64411e-06
-0.000101109
-0.000187115
1.10509e-05
2.39566e-05
2.48734e-05
2.44569e-05
2.53032e-05
-8.55231e-05
-0.000172386
-3.5521e-06
-5.45763e-05
-0.000148292
-1.40652e-05
1.54229e-05
-9.3213e-05
-5.28948e-05
-0.000109894
-5.27264e-05
-5.37078e-05
-0.000143072
-0.000167416
9.42795e-05
-0.000136736
-0.000139873
0.00014393
-0.00019332
-4.4255e-05
0.000172325
-0.00021317
-2.48678e-05
4.6834e-05
-0.000221906
-1.54079e-05
4.74632e-05
4.72854e-05
4.80461e-05
5.70591e-05
4.90832e-05
-5.71292e-05
-2.17931e-06
1.46305e-05
-1.22315e-05
1.21346e-05
9.41436e-08
-1.46278e-05
1.39864e-05
-1.13002e-05
1.10564e-05
-1.39558e-05
6.34671e-08
1.246e-08
6.08014e-08
7.63981e-08
1.30546e-05
-1.0419e-05
1.01787e-05
-1.2857e-05
-1.99224e-08
-4.73176e-08
3.79013e-08
7.21333e-08
1.20903e-05
-9.2097e-06
8.82483e-06
-1.18884e-05
1.85472e-08
-7.16222e-09
7.32232e-08
9.83723e-08
1.07818e-05
-7.59224e-06
7.15447e-06
-1.06324e-05
4.78779e-08
2.05852e-08
9.74425e-08
1.22503e-07
9.4519e-06
-5.96075e-06
5.56894e-06
-9.35817e-06
5.17332e-08
3.37581e-08
9.65494e-08
1.16041e-07
8.14021e-06
-4.35297e-06
3.87786e-06
-8.04764e-06
6.6184e-08
5.32957e-08
1.24987e-07
1.38067e-07
9.3938e-06
-1.56941e-06
3.67313e-09
-9.53848e-06
3.97771e-07
4.48749e-07
4.33734e-07
4.30164e-07
4.52559e-06
4.91812e-05
-2.4401e-05
-4.90239e-05
6.28834e-06
4.38852e-06
4.57339e-06
4.46788e-06
-0.000113329
-0.000192128
8.15282e-06
2.69266e-05
2.75293e-05
2.75522e-05
2.81812e-05
-9.60903e-05
-0.000181628
-7.99608e-06
-6.12928e-05
-0.000163843
-1.92464e-05
2.13573e-05
-0.00011294
-6.2923e-05
-0.000132843
-6.53701e-05
-6.42266e-05
-0.000141309
-0.000199862
0.000104294
-0.000142279
-0.000162978
0.000157879
-0.000193247
-5.3658e-05
0.000185123
-0.000210602
-2.98111e-05
4.91609e-05
-0.000217833
-1.80767e-05
4.91165e-05
5.03206e-05
5.05285e-05
5.74232e-05
5.08452e-05
-5.67339e-05
-2.37361e-06
5.90721e-05
-5.05268e-05
4.88201e-05
-5.82367e-05
8.7129e-07
1.42745e-05
-4.65179e-05
4.35711e-05
-5.69956e-05
2.97752e-06
1.41519e-05
1.43304e-05
1.4208e-05
1.34254e-05
-4.04298e-05
3.68206e-05
-5.41076e-05
4.1723e-06
1.33006e-05
1.34703e-05
1.33482e-05
1.243e-05
-3.33245e-05
2.96554e-05
-5.02068e-05
4.34102e-06
1.22892e-05
1.24771e-05
1.23386e-05
1.12188e-05
-2.6554e-05
2.33412e-05
-4.55018e-05
4.01466e-06
1.10692e-05
1.128e-05
1.1132e-05
9.979e-06
-2.07562e-05
1.75904e-05
-4.07603e-05
4.16627e-06
9.84387e-06
1.00346e-05
9.90234e-06
8.70245e-06
-1.46739e-05
9.51837e-06
-3.59187e-05
6.51982e-06
8.61464e-06
8.66483e-06
8.57248e-06
1.02422e-05
-1.24446e-06
-1.03525e-05
-4.12976e-05
1.15214e-05
1.00499e-05
1.06471e-05
1.0434e-05
4.88292e-05
2.06078e-05
-2.62974e-05
-4.81827e-05
5.04307e-06
-0.000125563
-0.000191118
5.55945e-06
2.90909e-05
2.909e-05
3.03476e-05
3.04648e-05
-0.000108802
-0.000185374
-1.30151e-05
-7.13181e-05
-0.000174404
-2.69222e-05
2.76724e-05
-0.000131795
-8.0135e-05
-0.000150655
-9.08433e-05
-7.67355e-05
-0.000134485
-0.000231684
0.000110434
-0.000143221
-0.000186228
0.000167191
-0.000184284
-6.57202e-05
0.000192354
-0.000198598
-3.71681e-05
0.000200404
-0.000204044
-2.18385e-05
0.000192216
-0.000207577
-7.82375e-06
5.50716e-05
5.53569e-05
5.64748e-05
5.6685e-05
0.000170725
-0.000208742
5.12233e-06
5.58227e-05
5.5729e-05
5.68644e-05
5.66955e-05
0.00014116
-0.000203886
1.42774e-05
5.47146e-05
5.41563e-05
5.54405e-05
5.48628e-05
0.000112029
-0.000194019
1.51751e-05
5.20042e-05
5.12816e-05
5.26863e-05
5.20024e-05
8.93393e-05
-0.000178529
8.98386e-06
4.80774e-05
4.72019e-05
4.88797e-05
4.80758e-05
7.18755e-05
-0.000161666
5.0837e-06
4.35698e-05
4.2544e-05
4.44522e-05
4.34802e-05
5.11841e-05
-0.000148027
1.19029e-05
3.92533e-05
3.83901e-05
3.99466e-05
3.92254e-05
9.75145e-07
-0.000131317
4.01018e-05
3.65945e-05
3.43836e-05
3.62935e-05
3.41524e-05
-7.44815e-05
-0.000147217
5.92233e-05
4.00331e-05
4.23732e-05
3.93178e-05
4.17263e-05
-0.00012313
-0.000173367
3.35859e-05
4.61426e-05
4.67526e-05
4.72811e-05
4.82534e-05
-0.000136782
-0.000180119
2.65359e-06
-0.000123036
-0.000180129
-1.89913e-05
-8.34785e-05
-0.000175763
-3.81992e-05
3.55863e-05
-0.000144842
-0.000106018
-0.000159498
-0.000126581
-9.10507e-05
-0.000110303
-0.000271871
0.000110598
-0.000127819
-0.00021705
0.000169187
-0.000159579
-8.32947e-05
0.000191531
-0.000172801
-4.81415e-05
0.000192799
-0.000178058
-2.72541e-05
0.000176399
-0.00018066
-1.0517e-05
0.000147336
-0.000181046
1.36762e-06
0.000113513
-0.000176919
6.85674e-06
8.67401e-05
-0.000167924
6.78696e-07
7.20942e-05
-0.000154995
-8.88794e-06
6.53489e-05
-0.000141671
-1.32501e-05
5.2674e-05
-0.000130621
-4.73068e-06
8.90902e-06
-0.000116692
2.91403e-05
-6.85874e-05
-0.000123935
5.42144e-05
-0.000124475
-0.000149481
3.20009e-05
-0.000144811
-0.000157879
-1.90378e-06
-0.000136147
-0.000162358
-2.6434e-05
-9.56371e-05
-0.000162006
-5.4267e-05
4.56345e-05
-0.000141925
-0.000144189
-0.000147915
-0.000178984
-0.000109488
-6.04342e-05
-0.000315493
0.00010042
-8.41617e-05
-0.000253567
0.000158171
-0.000101794
-0.000115535
0.00017583
-0.000114502
-7.59566e-05
0.000168392
-0.000120206
-5.04143e-05
0.000143375
-0.000122739
-3.29036e-05
0.000108998
-0.000123073
-2.35959e-05
7.70554e-05
-0.000120541
-2.44362e-05
5.85177e-05
-0.000115058
-3.4329e-05
5.6115e-05
-0.00010827
-4.43232e-05
6.02101e-05
-0.000100751
-4.50149e-05
5.54547e-05
-9.2288e-05
-3.3578e-05
2.25445e-05
-8.11434e-05
-2.63853e-06
-4.99302e-05
-8.19249e-05
3.04647e-05
-0.000112332
-0.000101336
1.42567e-05
-0.000140647
-0.000108643
-2.09213e-05
-0.000139382
-0.00011516
-4.84638e-05
-0.000100643
-0.000116974
-8.37701e-05
5.74181e-05
-0.000110729
-0.000189257
-0.00010647
-0.000238449
-0.000102723
0.000126034
-0.000432079
8.35049e-05
0.00010341
-0.000373799
0.000127418
0.000110385
-0.000256092
0.000134717
9.12902e-05
-0.000213091
0.000116396
7.71343e-05
-0.000179019
8.60731e-05
6.61095e-05
-0.000158526
5.38312e-05
5.8558e-05
-0.000149389
3.2616e-05
5.36625e-05
-0.000152988
2.8421e-05
5.04578e-05
-0.000161321
3.66641e-05
4.77423e-05
-0.000164255
4.76264e-05
4.49536e-05
-0.000156667
5.17358e-05
4.21877e-05
-0.000138585
4.0367e-05
4.16446e-05
-0.000111419
-1.05766e-05
4.32454e-05
-7.42268e-05
-7.83559e-05
3.78717e-05
-7.14284e-05
-0.000116609
3.75555e-05
-0.000107945
-0.000125893
4.4726e-05
-0.000150603
-9.84583e-05
5.61199e-05
-0.000200528
5.01358e-05
4.83148e-05
-0.000307638
7.04786e-05
-0.000370254
-0.00012558
-0.000482583
5.84723e-05
-0.000429104
0.000105928
-0.000313649
0.000118651
-0.000264064
0.000103389
-0.000221599
7.63892e-05
-0.000196707
4.89707e-05
-0.000185679
3.37921e-05
-0.000188121
3.42811e-05
-0.00019432
4.49195e-05
-0.000194934
5.65619e-05
-0.000184915
5.9663e-05
-0.000163634
4.42727e-05
-0.000132304
-1.58086e-05
-8.91372e-05
-8.72927e-05
-8.81182e-05
-0.000123315
-0.000130193
-0.00012706
-0.000182027
-9.18987e-05
-0.000244195
7.52715e-05
-0.000367652
-0.000433651
-2.45153e-05
-2.85795e-05
-0.00043742
1.75879e-05
-1.04065e-05
-0.000371642
3.20563e-05
-1.66456e-05
-0.000255803
4.1468e-05
-5.53537e-06
-0.000205644
4.41241e-05
-2.58517e-06
-0.000150251
4.7904e-05
-5.4729e-07
-0.000107538
4.74796e-05
1.33204e-06
-6.71552e-05
4.01699e-05
6.77157e-06
-3.59766e-05
2.61586e-05
1.87759e-05
-1.23697e-05
2.81845e-05
2.31947e-05
4.60147e-06
5.41105e-05
-1.44642e-05
1.26074e-05
7.89592e-05
-6.79093e-05
1.81244e-05
9.69276e-05
-0.000110476
2.18962e-05
0.000106576
-0.000143252
2.59233e-05
0.000106716
-0.000166491
3.13996e-05
9.67739e-05
-0.000171386
3.5212e-05
7.77892e-05
-0.000153576
3.40006e-05
5.40114e-05
-0.000119938
2.63529e-05
3.06234e-05
-8.56759e-05
1.16671e-05
-5.26454e-05
1.29068e-06
-1.05143e-05
1.05769e-05
-0.000372994
2.66819e-05
2.19769e-05
-0.000306176
3.55646e-05
2.41202e-05
-0.000194231
4.2631e-05
2.70477e-05
-0.000156205
4.23507e-05
1.78503e-05
-0.000108634
3.95371e-05
9.66299e-06
-7.21464e-05
3.36511e-05
5.05091e-06
-4.40476e-05
2.63122e-05
3.00134e-06
-2.06666e-05
2.78907e-05
-2.68284e-06
-1.56522e-06
5.14749e-05
-2.71977e-05
1.63311e-05
8.05908e-05
-7.0025e-05
2.83136e-05
0.000100051
-0.000105472
3.21328e-05
0.000112241
-0.000134566
3.36187e-05
0.000115942
-0.000157256
3.57015e-05
0.000110113
-0.000172938
3.99286e-05
9.34132e-05
-0.000168284
4.14558e-05
6.72312e-05
-0.000140278
3.63754e-05
3.66667e-05
-0.000100381
2.3954e-05
1.05246e-05
-6.81839e-05
4.50905e-06
-4.15756e-05
-3.89529e-06
-1.41517e-05
2.15766e-05
-0.000265808
3.65721e-05
2.47043e-05
-0.000204566
5.29517e-05
3.06288e-05
-7.99532e-05
6.62223e-05
3.0587e-05
-5.25531e-05
7.26373e-05
2.08595e-05
-3.30273e-05
7.12616e-05
1.26289e-05
-1.29747e-05
6.59344e-05
2.39432e-06
7.33602e-06
6.61242e-05
-1.29914e-05
2.48402e-05
7.76165e-05
-3.79152e-05
3.92616e-05
9.53332e-05
-6.98089e-05
4.59916e-05
0.000108914
-0.000101463
4.58488e-05
0.000118519
-0.000127408
4.30738e-05
0.000122219
-0.000147944
4.04208e-05
0.000118081
-0.000163798
4.09786e-05
0.00010501
-0.000174625
4.599e-05
8.07566e-05
-0.000159821
4.58665e-05
4.79771e-05
-0.000121415
3.66014e-05
1.56761e-05
-7.87347e-05
1.94965e-05
-2.48397e-06
-5.65776e-05
-3.68698e-06
-3.7759e-05
-7.15158e-06
-7.03962e-06
2.41695e-05
-0.00021519
4.32817e-05
1.62747e-05
-0.00016103
5.98553e-05
2.00316e-05
-3.80787e-05
7.12706e-05
2.01681e-05
-1.02286e-05
7.87059e-05
8.37253e-06
6.29151e-06
8.13846e-05
-1.31256e-06
2.28609e-05
8.49312e-05
-1.91903e-05
3.92828e-05
9.26753e-05
-4.40666e-05
5.30248e-05
0.000104434
-7.31497e-05
6.04792e-05
0.000117232
-0.000101068
6.05045e-05
0.000125306
-0.000123472
5.4614e-05
0.000127448
-0.000139619
4.66945e-05
0.000124079
-0.000152959
4.14249e-05
0.000112712
-0.000164227
4.34079e-05
9.25707e-05
-0.000172766
5.18809e-05
6.09855e-05
-0.000146151
4.93325e-05
2.4359e-05
-9.90288e-05
3.46688e-05
-6.64547e-07
-6.23513e-05
1.33726e-05
-7.83797e-06
-5.28592e-05
-1.12783e-05
-3.82247e-05
-9.97275e-06
-4.0679e-06
1.58787e-05
-0.000169636
4.83374e-05
-5.77344e-06
-0.000117012
6.47797e-05
-1.12237e-05
5.26303e-06
7.37395e-05
-8.99645e-06
3.42836e-05
8.37121e-05
-2.40374e-05
4.90785e-05
9.08216e-05
-5.67295e-06
6.22947e-05
-6.04383e-06
-1.03114e-05
-1.18534e-05
9.78856e-05
-9.14737e-06
7.3019e-05
-1.18728e-05
-1.44526e-05
-1.62808e-05
0.000109814
-1.66758e-05
7.93132e-05
-1.9824e-05
-1.99105e-05
-2.21074e-05
0.000122154
-2.43459e-05
7.64394e-05
-2.66989e-05
-2.57967e-05
-2.73205e-05
0.000129341
-3.0622e-05
6.55827e-05
-3.23224e-05
-3.01444e-05
-3.08566e-05
0.000130166
-3.48328e-05
5.16648e-05
-3.54745e-05
-3.24543e-05
-3.25755e-05
0.000126027
-3.66906e-05
4.01555e-05
-3.69309e-05
-3.36756e-05
-3.4336e-05
0.000117732
-3.79749e-05
3.63383e-05
-3.83581e-05
-3.63178e-05
-3.78119e-05
0.000100182
-3.93313e-05
4.4144e-05
-4.09373e-05
-3.94198e-05
-4.02428e-05
7.31433e-05
-4.35722e-05
5.87718e-05
-4.20564e-05
-4.21226e-05
-4.0733e-05
3.53463e-05
-0.000127597
5.12155e-05
2.34732e-06
-7.92121e-05
3.02727e-05
-9.66225e-06
-5.56803e-05
6.4364e-06
-9.7056e-06
-5.35102e-05
-1.64865e-05
-3.93986e-05
-1.36302e-05
-4.32823e-06
7.92309e-06
-0.000146782
3.88223e-05
-1.79797e-05
-9.44214e-05
4.59976e-05
-3.73603e-05
3.84383e-05
5.62429e-05
-4.03766e-05
6.66091e-05
2.08335e-05
-5.8349e-05
7.76917e-05
1.93831e-05
1.70147e-05
1.57385e-05
-1.60206e-05
2.17591e-05
-9.62232e-06
1.90443e-05
-1.8771e-05
-2.38905e-05
2.55708e-05
-1.36762e-05
2.16196e-05
-1.8431e-05
-2.81477e-05
2.98599e-05
-2.14576e-05
2.15006e-05
-1.44105e-05
-3.1644e-05
3.18898e-05
-2.785e-05
1.76688e-05
-1.00818e-05
-3.26132e-05
3.2407e-05
-3.31892e-05
1.28552e-05
-7.17452e-06
-3.28755e-05
3.25682e-05
-3.61164e-05
8.76542e-06
-6.03102e-06
-3.25678e-05
3.19325e-05
-3.64196e-05
6.39534e-06
-5.98842e-06
-3.14631e-05
3.03743e-05
-3.68827e-05
5.98493e-06
-6.41306e-06
-2.89388e-05
2.56283e-05
-3.74858e-05
7.87813e-06
-9.5575e-06
-2.18128e-05
1.77473e-05
-4.37457e-05
1.37965e-05
8.24292e-06
-0.000110656
5.00958e-05
-1.21864e-05
-9.49589e-06
-1.23982e-05
-1.02558e-05
-1.07e-05
-7.03263e-05
2.40403e-05
-1.12429e-05
-5.77729e-05
2.26261e-06
-1.06225e-05
-5.32326e-05
-2.16463e-05
-4.06225e-05
-1.87559e-05
-1.19874e-05
5.65368e-06
-0.000129831
1.77762e-05
-1.26694e-05
-8.73033e-05
2.3496e-05
-5.31292e-05
5.58833e-05
4.09236e-05
-6.49217e-05
7.14136e-05
1.59362e-05
-8.19833e-05
7.13236e-05
1.5985e-05
1.35008e-05
1.33225e-05
-1.87627e-05
1.41169e-05
1.90504e-05
-1.87659e-05
2.02975e-05
-4.43779e-06
4.54503e-06
-5.83685e-06
6.19053e-06
-5.2198e-06
4.75887e-06
-3.31822e-06
6.67372e-06
-7.53389e-06
7.69379e-06
-7.49441e-06
3.979e-06
-1.62832e-06
-7.03417e-06
7.48905e-06
6.66481e-06
-7.80267e-06
2.3113e-06
-6.35968e-07
-6.45087e-06
8.64713e-06
6.55719e-06
-9.04577e-06
9.28291e-07
-2.42298e-07
-7.12567e-06
9.28081e-06
7.25801e-06
-9.47631e-06
3.05463e-07
-2.41671e-07
-7.48214e-06
8.94616e-06
7.49996e-06
-8.90146e-06
1.79145e-07
-3.76412e-07
-7.34646e-06
8.61051e-06
7.18361e-06
-8.40126e-06
3.30006e-07
-6.10749e-06
-8.62398e-07
8.20614e-06
-7.63887e-06
1.05196e-06
5.35067e-06
-1.23508e-05
4.38862e-05
-3.85709e-06
1.08955e-05
-4.38232e-05
1.70684e-05
-3.66264e-06
-4.1973e-06
-3.95899e-06
-8.00866e-06
-0.000100631
4.51975e-05
-5.16555e-06
-2.72694e-06
-6.54077e-06
-4.47379e-06
-1.52421e-05
-6.97298e-05
1.90725e-05
-1.16283e-05
-6.1475e-05
-1.26136e-06
-1.09711e-05
-5.16438e-05
-2.7371e-05
-4.12984e-05
-2.55803e-05
-1.51101e-05
6.20135e-06
-0.000116702
1.22002e-05
-7.21846e-06
-8.57219e-05
2.22669e-05
-7.16762e-05
4.25985e-05
4.0912e-05
-8.60662e-05
4.00196e-05
1.5094e-05
-9.79084e-05
3.70458e-05
1.43479e-05
1.1811e-05
1.11681e-05
-9.44469e-06
2.25623e-05
1.69796e-05
-2.56081e-05
1.06049e-05
-2.62126e-06
7.25759e-06
-5.19997e-06
5.65274e-06
-7.80401e-06
2.71491e-06
2.66794e-06
-3.16204e-06
2.40581e-06
-2.94798e-06
1.03627e-06
-9.19145e-07
3.24862e-06
8.46181e-07
-2.85029e-06
-3.25366e-07
-1.21102e-06
3.53152e-06
1.21529e-06
-3.03304e-06
-5.02742e-07
-1.52383e-06
3.12566e-06
1.78118e-06
-2.88442e-06
-4.98592e-07
-1.69588e-06
3.08939e-06
1.59177e-06
-2.5249e-06
-4.60381e-07
-1.4253e-06
2.50503e-06
1.38139e-06
-2.09849e-06
-3.62624e-07
-6.63397e-07
7.69553e-08
1.53988e-06
-1.63115e-06
1.13543e-07
5.64178e-07
-2.4863e-06
-1.51293e-05
4.31582e-05
4.14982e-06
-4.22555e-05
1.96686e-05
-2.18848e-06
-2.62539e-06
-2.29177e-06
-1.73508e-05
-9.80378e-05
4.00775e-05
3.57759e-07
2.07823e-06
-1.73512e-06
-3.78374e-07
-1.78614e-05
-7.21353e-05
1.43707e-05
-1.19117e-05
-6.5076e-05
-4.94706e-06
-1.08284e-05
-4.88042e-05
-3.39169e-05
-4.09049e-05
-3.44152e-05
-1.62563e-05
7.25615e-07
-9.54095e-05
1.15683e-05
-1.04292e-05
-7.28468e-05
1.91465e-05
-8.63505e-05
2.07754e-05
3.48528e-05
-9.56084e-05
8.48345e-06
1.28111e-05
-0.000106136
1.18127e-05
1.22898e-05
9.77569e-06
9.67639e-06
-4.64803e-06
2.73522e-05
1.42485e-05
-2.86349e-05
4.4933e-06
-1.83979e-06
8.73971e-06
-4.53741e-06
5.00671e-06
-8.94797e-06
1.57875e-06
3.25699e-06
-3.44512e-06
2.1424e-06
-3.12609e-06
1.17182e-06
2.74559e-06
-6.81449e-07
6.8509e-07
-2.76555e-06
1.63204e-08
2.69204e-06
-1.23278e-06
1.30327e-06
-2.69313e-06
-6.93946e-08
2.32332e-06
-1.57871e-06
1.58482e-06
-2.29258e-06
-3.6843e-08
1.86398e-06
-1.51693e-06
1.49545e-06
-1.82613e-06
-1.63697e-08
1.52343e-06
-1.28864e-06
1.25389e-06
-1.50305e-06
1.43732e-08
-1.05572e-06
3.74764e-07
1.70594e-06
-1.70706e-06
7.65199e-08
6.05557e-07
-9.70031e-07
-1.58425e-05
4.13516e-05
-1.10713e-06
-4.06073e-05
1.96379e-05
-7.02273e-07