/*--------------------------------*- C++ -*----------------------------------*\
| =========                 |                                                 |
| \\      /  F ield         | OpenFOAM: The Open Source CFD Toolbox           |
|  \\    /   O peration     | Version:  2412                                  |
|   \\  /    A nd           | Website:  www.openfoam.com                      |
|    \\/     M anipulation  |                                                 |
\*---------------------------------------------------------------------------*/
FoamFile
{
    version     2.0;
    format      ascii;
    arch        "LSB;label=32;scalar=64";
    class       volVectorField;
    location    "5/air";
    object      U;
}
// * * * * * * * * * * * * * * * * * * * * * * * * * * * * * * * * * * * * * //

dimensions      [0 1 -1 0 0 0 0];

internalField   nonuniform List<vector> 
36920
(
(-7.41734 -7.45915 -10.4179)
(2.55104 -6.07239 -9.06379)
(3.05021 -6.58708 -5.93996)
(3.93649 -5.52989 -4.701)
(4.09812 -4.37791 -3.72129)
(4.02846 -3.29317 -2.92017)
(3.88549 -2.39378 -2.24154)
(3.64377 -1.69231 -1.72602)
(3.32167 -1.10645 -1.3464)
(3.01524 -0.545121 -1.07013)
(2.96701 -0.285227 -0.729232)
(3.19947 -0.787509 -0.240833)
(3.69017 -2.27078 0.149299)
(4.08267 -4.06354 0.415826)
(4.1445 -5.53273 0.577891)
(3.74358 -6.17711 0.646839)
(2.88172 -5.78605 0.581617)
(1.71856 -4.5121 0.324043)
(0.721408 -2.99435 -0.128028)
(0.551671 -2.13582 -0.223812)
(-6.26428 2.19578 -9.07273)
(3.274 3.01614 -7.69564)
(3.26616 3.08425 -4.94162)
(3.94886 3.16669 -3.86494)
(3.85454 2.92033 -3.04981)
(3.4695 2.50473 -2.35548)
(2.95768 2.02514 -1.79768)
(2.43658 1.60833 -1.36633)
(2.03285 1.23219 -1.0528)
(1.87283 0.765366 -0.929301)
(2.31439 -0.206173 -0.628025)
(3.2789 -2.0421 0.00359898)
(4.05618 -3.94942 0.447728)
(4.41696 -5.53027 0.667156)
(4.31297 -6.50287 0.748142)
(3.64381 -6.48946 0.73841)
(2.46996 -5.40753 0.572002)
(1.0329 -3.61922 0.184076)
(0.0490839 -2.10451 -0.335151)
(0.281148 -1.824 -0.322752)
(-6.86936 2.58365 -6.04589)
(3.52424 2.88727 -5.07666)
(3.74852 3.13417 -2.66034)
(4.855 3.2082 -1.85919)
(5.01617 2.92254 -1.43525)
(4.85109 2.53297 -1.10253)
(4.52424 2.11668 -0.843131)
(4.06218 1.59349 -0.604203)
(3.61099 0.982479 -0.435538)
(3.5579 0.0467583 -0.144634)
(4.07686 -1.62849 0.36932)
(4.57617 -3.48111 0.693966)
(4.82392 -5.11587 0.834063)
(4.72511 -6.32585 0.853334)
(4.25147 -6.88783 0.836185)
(3.19965 -6.35108 0.767154)
(1.67699 -4.76532 0.496213)
(0.107038 -2.79079 -0.00666033)
(-0.35467 -1.79743 -0.481753)
(0.346175 -1.87492 -0.424872)
(-6.02166 3.2606 -4.77282)
(3.66976 3.33497 -3.91809)
(3.92183 3.93476 -1.80874)
(5.11652 4.07186 -1.13843)
(5.35829 3.77271 -0.794128)
(5.24993 3.18925 -0.48499)
(4.97116 2.44151 -0.21189)
(4.61244 1.59361 0.0436325)
(4.40589 0.51684 0.390923)
(4.6753 -1.29485 0.823707)
(5.02643 -3.22582 0.990336)
(5.20722 -4.90186 0.999152)
(5.10883 -6.16488 0.956706)
(4.67038 -6.96829 0.881459)
(3.89193 -7.08867 0.847812)
(2.43232 -5.95567 0.749083)
(0.622397 -3.91458 0.358614)
(-0.58482 -2.11069 -0.161171)
(-0.459864 -1.72991 -0.552235)
(0.409886 -1.92275 -0.506095)
(-5.30282 2.90505 -3.74304)
(3.61731 2.59132 -2.89236)
(3.76377 3.46809 -1.17759)
(4.89143 3.52753 -0.597918)
(5.08984 3.00474 -0.226471)
(5.00192 2.49951 0.131597)
(4.79746 1.65237 0.53586)
(4.68656 0.366175 1.03316)
(4.93502 -1.5211 1.30815)
(5.27384 -3.32799 1.23028)
(5.46505 -4.83945 1.07115)
(5.41304 -6.02761 0.965122)
(5.05171 -6.85107 0.897554)
(4.32847 -7.29196 0.807927)
(3.27415 -7.01268 0.822254)
(1.33013 -5.27185 0.691865)
(-0.449971 -3.05616 0.182792)
(-0.73535 -2.09086 -0.209033)
(-0.584808 -1.73044 -0.617677)
(0.494183 -1.97483 -0.59564)
(-4.79634 2.06198 -2.96417)
(3.32241 1.16198 -1.97195)
(3.09727 2.30383 -0.414413)
(3.88688 2.38917 0.302988)
(4.0969 1.83322 0.936932)
(4.37882 1.32833 0.845833)
(4.35593 0.490178 0.822742)
(4.62708 -1.33945 0.831462)
(5.1114 -3.34472 0.688055)
(5.55469 -5.05819 0.55725)
(5.79222 -6.41846 0.5066)
(5.70313 -7.44811 0.512467)
(5.19172 -8.09209 0.507362)
(4.30467 -8.22808 0.412248)
(3.0994 -7.47457 0.443882)
(-0.0444452 -4.44665 0.587454)
(-0.972843 -2.91577 0.0956051)
(-0.879407 -2.18773 -0.278045)
(-0.746251 -1.72689 -0.721898)
(0.606364 -2.0381 -0.703009)
(-4.34365 1.09577 -2.23979)
(2.17964 -0.162285 -1.30818)
(1.40976 0.72953 0.742996)
(2.33156 -0.0923795 1.43575)
(2.73561 -1.99259 1.59321)
(3.12772 -1.96355 1.25973)
(4.01511 -3.01032 0.768034)
(4.6564 -3.88386 0.378929)
(5.3708 -5.16428 0.29361)
(5.7145 -6.25359 0.268565)
(5.78676 -7.17096 0.25293)
(5.48015 -7.86169 0.236359)
(4.70178 -8.17581 0.218)
(3.58653 -7.973 0.144841)
(2.00578 -6.98769 0.507458)
(-0.848354 -4.23408 0.491637)
(-1.27926 -3.15027 0.03735)
(-1.05146 -2.36949 -0.327292)
(-0.908614 -1.71853 -0.850998)
(0.761499 -2.10699 -0.830199)
(-4.1435 0.662436 -1.67319)
(1.70232 -0.299525 -1.34685)
(1.07998 -1.73002 0.34894)
(2.63425 -3.1207 0.533254)
(3.38421 -4.10376 0.450261)
(3.71236 -4.40947 0.40728)
(4.14638 -5.01869 0.291766)
(5.03108 -6.33273 0.279204)
(5.58263 -7.2853 0.461656)
(5.79351 -8.08394 0.453496)
(5.71349 -8.73878 0.441975)
(5.25124 -9.06531 0.381786)
(4.39918 -8.85403 0.353928)
(3.18592 -7.93136 0.297755)
(0.841146 -6.44998 0.694641)
(-1.27 -4.48083 0.417004)
(-1.61606 -3.47296 -0.0164135)
(-1.23618 -2.60175 -0.368326)
(-1.08617 -1.71534 -0.990988)
(0.973663 -2.17302 -0.978406)
(-4.16441 -0.644436 -1.19019)
(1.83837 -1.08706 -1.39774)
(1.76166 -3.173 -0.453747)
(3.11565 -4.56677 -0.196548)
(3.81682 -5.46755 -0.130368)
(4.10086 -5.75823 0.0420538)
(4.38514 -6.26024 0.1353)
(4.99502 -7.1703 0.0357962)
(5.64009 -7.98522 0.227077)
(5.76496 -8.6319 0.238311)
(5.59063 -9.04152 0.181607)
(5.07707 -9.06292 0.110012)
(4.35719 -8.56743 0.157476)
(3.0816 -7.56544 0.322508)
(-0.140965 -6.07844 0.750973)
(-1.72657 -4.81544 0.324405)
(-1.97492 -3.87007 -0.0814017)
(-1.42593 -2.89845 -0.409636)
(-1.28207 -1.74242 -1.1291)
(1.25591 -2.2331 -1.13873)
(-4.20571 -2.37004 -1.68175)
(1.82451 -2.24778 -1.81574)
(2.08923 -4.48128 -0.910991)
(3.49107 -5.6454 -0.551386)
(4.2342 -6.34301 -0.412056)
(4.50039 -6.58914 -0.137569)
(4.73591 -6.99515 0.0626558)
(5.19384 -7.66159 0.0359311)
(5.74692 -8.24523 0.246085)
(5.74149 -8.68423 0.26048)
(5.45085 -8.8234 0.132066)
(4.86433 -8.59068 0.134552)
(4.18471 -7.9285 0.183623)
(2.774 -6.97327 0.366277)
(-0.835666 -6.06689 0.72008)
(-2.20214 -5.20014 0.211116)
(-2.34328 -4.32775 -0.168403)
(-1.6129 -3.27023 -0.469352)
(-1.46244 -1.83568 -1.25463)
(1.60773 -2.29493 -1.29167)
(-4.57895 -3.57765 -2.51871)
(1.98159 -3.16482 -2.44755)
(2.41325 -5.33433 -1.23088)
(3.89519 -6.30136 -0.776661)
(4.66891 -6.87289 -0.57718)
(4.94376 -7.11917 -0.250951)
(5.1654 -7.4885 0.0211439)
(5.50555 -8.02206 0.0357613)
(5.88724 -8.41241 0.285434)
(5.70217 -8.624 0.302069)
(5.2482 -8.5163 0.143901)
(4.60144 -8.01318 0.214643)
(3.87649 -7.24464 0.185664)
(2.35245 -6.34327 0.420326)
(-1.42873 -6.27599 0.668011)
(-2.67719 -5.60567 0.0765128)
(-2.709 -4.82184 -0.284466)
(-1.79563 -3.72109 -0.570267)
(-1.61161 -2.02946 -1.38316)
(2.03456 -2.41181 -1.42518)
(-5.33736 -4.32051 -3.38958)
(2.29308 -3.81177 -3.13014)
(2.86624 -5.9325 -1.53324)
(4.43538 -6.78658 -0.951818)
(5.2114 -7.25651 -0.685928)
(5.4752 -7.495 -0.322834)
(5.65134 -7.82164 -0.000682778)
(5.83597 -8.22131 0.0519529)
(5.98057 -8.4452 0.333085)
(5.59465 -8.39873 0.358738)
(5.00579 -7.99674 0.308703)
(4.25023 -7.30522 0.232746)
(3.45492 -6.51561 0.163313)
(1.89626 -5.80214 0.480905)
(-2.01655 -6.51172 0.602083)
(-3.14246 -5.99516 -0.0783469)
(-3.0674 -5.31497 -0.430097)
(-1.98462 -4.25082 -0.728414)
(-1.71989 -2.37372 -1.55916)
(2.52325 -2.73113 -1.57473)
(-6.36941 -4.73633 -4.29822)
(2.68865 -4.26905 -3.82913)
(3.37804 -6.34319 -1.81385)
(5.04049 -7.1241 -1.09246)
(5.79406 -7.51024 -0.765767)
(6.0335 -7.73156 -0.374181)
(6.14266 -7.99656 -0.0133449)
(6.0762 -8.23456 0.0597554)
(5.96774 -8.29222 0.357794)
(5.43179 -7.94365 0.335515)
(4.679 -7.28336 0.263564)
(3.79827 -6.4634 0.187998)
(2.93577 -5.6945 0.120987)
(1.41172 -5.41958 0.555823)
(-2.54599 -6.71252 0.523997)
(-3.59554 -6.33141 -0.248997)
(-3.42166 -5.76132 -0.595687)
(-2.20957 -4.84162 -0.944684)
(-1.80859 -2.90563 -1.84686)
(3.07192 -3.41639 -1.87589)
(-7.56324 -4.91425 -5.23352)
(3.0929 -4.59571 -4.52235)
(3.87638 -6.60306 -2.08061)
(5.63074 -7.32337 -1.21966)
(6.34612 -7.64377 -0.836554)
(6.56103 -7.86192 -0.412769)
(6.63702 -8.00979 -0.0061139)
(6.15635 -7.69928 -0.0246395)
(5.86038 -7.335 -0.00657279)
(5.12081 -6.78846 0.0392452)
(4.19416 -6.07669 0.0603479)
(3.26346 -5.3109 0.0644496)
(2.34781 -4.57493 0.0939453)
(0.549619 -5.25305 0.661957)
(-3.05746 -6.77868 0.444122)
(-4.05061 -6.57436 -0.428569)
(-3.81649 -6.14132 -0.784532)
(-2.50657 -5.4265 -1.21765)
(-2.01106 -3.57535 -2.30279)
(3.74332 -4.25505 -2.46443)
(-8.83377 -4.9403 -6.16343)
(3.43405 -4.85779 -5.19398)
(4.2927 -6.72378 -2.35467)
(6.12197 -7.36808 -1.3658)
(6.76313 -7.63303 -0.92443)
(6.88189 -7.84022 -0.454351)
(6.8393 -8.03948 -0.0592913)
(6.18095 -7.81132 0.127085)
(5.29528 -7.40278 0.228823)
(4.30254 -6.86706 0.228076)
(3.40129 -6.21203 0.179893)
(2.59675 -5.53926 0.200416)
(1.57485 -4.8586 0.547614)
(-0.88854 -5.67426 1.18465)
(-3.43925 -6.6688 0.37627)
(-4.49113 -6.66918 -0.6192)
(-4.26401 -6.39731 -1.01064)
(-2.88821 -5.91722 -1.55766)
(-2.38074 -4.29383 -2.94572)
(4.64327 -4.99721 -3.30873)
(-10.1232 -4.84121 -7.12361)
(3.63138 -5.03761 -5.91097)
(4.56754 -6.65767 -2.69073)
(6.44068 -7.20724 -1.58674)
(6.9598 -7.41692 -1.08776)
(6.90279 -7.56334 -0.747555)
(6.37583 -7.60725 -0.485844)
(5.42196 -7.42065 -0.311169)
(4.3145 -7.06381 -0.31458)
(3.37288 -6.53417 -0.452529)
(2.77647 -5.92496 -0.524104)
(2.08231 -5.37341 -0.369498)
(1.61256 -4.79282 0.527845)
(-1.52479 -5.47588 1.15508)
(-3.75427 -6.37008 -0.0264286)
(-4.7848 -6.54955 -0.834427)
(-4.7364 -6.46148 -1.29861)
(-3.33772 -6.21463 -1.99341)
(-2.84644 -4.94951 -3.80239)
(5.80291 -5.54369 -4.42101)
(-11.3286 -4.4439 -8.3262)
(3.59416 -4.91334 -6.84478)
(4.62289 -6.16375 -3.20218)
(6.49669 -6.62113 -1.99415)
(6.85364 -6.79129 -1.43615)
(6.52075 -6.8835 -1.06464)
(5.69357 -6.90303 -0.809853)
(4.49616 -6.74354 -0.704971)
(3.33933 -6.43087 -0.832298)
(2.60726 -5.9181 -1.03313)
(2.35598 -5.37724 -1.07832)
(2.06231 -4.98348 -0.859021)
(1.71053 -4.43549 -0.0102778)
(-1.07261 -4.8358 0.914061)
(-3.76265 -5.72846 -0.182248)
(-4.95626 -6.01727 -1.11988)
(-5.13756 -6.10109 -1.70131)
(-3.78145 -6.02068 -2.5924)
(-3.31338 -5.13568 -4.94082)
(7.18583 -5.48857 -5.9266)
(-12.4967 -2.84146 -9.80625)
(3.18922 -3.50684 -8.18446)
(4.28593 -4.34499 -4.34689)
(6.07669 -4.76723 -3.09617)
(6.18181 -4.93858 -2.4393)
(5.53205 -5.01614 -1.97631)
(4.42077 -5.02724 -1.68266)
(3.13856 -4.92465 -1.65821)
(2.17929 -4.65471 -1.91252)
(1.86795 -4.30577 -2.16857)
(2.00111 -3.95132 -2.15329)
(2.06931 -3.59679 -1.80953)
(1.81482 -3.19032 -1.03476)
(-0.199438 -3.24702 0.250089)
(-3.29801 -4.06371 -0.598699)
(-4.64844 -4.36355 -1.69882)
(-5.15723 -4.59049 -2.53463)
(-3.94591 -4.64594 -3.69503)
(-3.54266 -4.23434 -6.51797)
(8.51607 -4.31672 -7.89112)
(-11.5269 -1.54418 -13.8592)
(2.67871 -2.65792 -12.1114)
(3.48471 -3.19312 -8.25959)
(4.8464 -3.71908 -6.75143)
(4.53019 -3.98788 -5.66701)
(3.60213 -4.10767 -4.91026)
(2.40685 -4.12141 -4.50129)
(1.37175 -4.02371 -4.58111)
(0.931558 -3.86385 -4.92785)
(1.07077 -3.69413 -5.09789)
(1.45289 -3.49541 -4.89682)
(1.7661 -3.25051 -4.34618)
(1.70915 -2.89621 -3.4557)
(1.15114 -2.92102 -1.95758)
(-1.9235 -3.50783 -2.16038)
(-3.64804 -3.70343 -3.67942)
(-4.49855 -3.92524 -5.07202)
(-3.7301 -3.98912 -6.74689)
(-3.54317 -3.87175 -10.0501)
(8.0652 -3.35979 -11.9896)
(-12.1248 12.1513 -15.3773)
(1.53854 11.5378 -13.767)
(2.74386 12.5514 -9.75433)
(4.19061 11.4653 -8.09276)
(4.00179 10.5404 -6.75109)
(3.1961 9.74591 -5.85849)
(2.13976 9.14115 -5.41452)
(1.31276 8.64506 -5.48883)
(1.0773 8.21636 -5.77203)
(1.3258 7.80634 -5.868)
(1.75363 7.3498 -5.59834)
(2.06782 6.84076 -4.95905)
(1.95174 6.40307 -3.94495)
(1.10821 6.52422 -2.31854)
(-2.25146 6.69899 -2.61183)
(-3.92747 6.8997 -4.28708)
(-4.6378 7.77005 -5.9411)
(-3.70867 8.87636 -7.97563)
(-2.97793 8.24809 -11.9033)
(9.56997 9.57457 -13.914)
(-2.67611 -2.76349 -13.4254)
(0.606779 -1.93956 -11.4362)
(0.714471 -2.53224 -7.46932)
(1.39392 -1.82522 -6.05888)
(1.45298 -1.25188 -4.48868)
(1.59281 -0.646257 -3.24079)
(1.71773 -0.203726 -2.09791)
(1.61011 0.144524 -1.18537)
(1.18628 0.616512 -0.467473)
(0.665614 1.53844 0.0181587)
(1.23266 1.0009 0.333041)
(2.41906 -1.11033 0.659167)
(3.10635 -2.93008 0.77173)
(3.58025 -4.35239 0.843626)
(3.76757 -5.40405 0.950409)
(3.60129 -5.8602 1.03445)
(3.07918 -5.54933 0.994359)
(2.26801 -4.58875 0.774858)
(1.46471 -3.43548 0.293263)
(0.591328 -2.14669 0.0367158)
(-2.07042 0.389427 -11.4687)
(1.103 0.987595 -9.47962)
(0.885555 1.09691 -5.70113)
(1.46403 1.29754 -4.63984)
(1.47633 0.989491 -3.37614)
(1.47733 0.57812 -2.33396)
(1.2997 0.264443 -1.53379)
(1.0602 0.276408 -0.906461)
(0.735288 0.614227 -0.472715)
(1.19201 0.0045636 0.21625)
(2.37059 -1.92466 0.766712)
(3.17902 -3.34455 0.964978)
(3.72783 -4.45237 1.04701)
(4.0082 -5.32578 1.09991)
(3.9887 -5.94007 1.18668)
(3.59713 -5.92097 1.21158)
(2.82925 -5.11507 1.06472)
(1.77216 -3.80158 0.711572)
(0.784743 -2.5826 0.046506)
(-0.093344 -1.52227 -0.117005)
(-2.70488 0.428971 -7.77413)
(1.44786 0.664954 -6.02052)
(1.28094 0.737127 -1.75615)
(2.21436 0.737818 -0.919637)
(2.43681 0.377032 -0.40916)
(2.54791 0.170701 0.184784)
(2.36583 0.120143 0.77056)
(2.21002 -0.0622209 1.13911)
(2.40986 -0.787808 1.42029)
(2.96867 -1.85172 1.52624)
(3.55894 -2.97796 1.49358)
(3.975 -4.02293 1.38975)
(4.20745 -4.89054 1.28326)
(4.21076 -5.55789 1.25347)
(3.93581 -6.00974 1.34637)
(3.27961 -5.69187 1.3329)
(2.25467 -4.54922 1.07677)
(1.01832 -3.09086 0.602968)
(0.0945632 -2.07102 -0.23533)
(-0.278858 -1.30647 -0.208473)
(-2.27671 0.960293 -6.31834)
(1.61076 0.934153 -4.77281)
(1.58816 1.22843 -0.726666)
(2.39339 1.23126 0.364963)
(2.60822 0.940412 0.834819)
(2.77605 0.612932 1.15963)
(2.86897 0.0155659 1.52678)
(3.03696 -0.872648 1.85191)
(3.37939 -1.87242 2.02327)
(3.84539 -2.94024 1.97647)
(4.22675 -3.92356 1.7595)
(4.40236 -4.67687 1.49818)
(4.38939 -5.25112 1.30735)
(4.15347 -5.69896 1.29838)
(3.63329 -6.00954 1.48952)
(2.70077 -5.31476 1.43163)
(1.45276 -3.82076 1.04038)
(0.211899 -2.35866 0.46231)
(-0.250599 -1.82089 -0.47697)
(-0.301984 -1.30281 -0.293088)
(-2.10824 0.722053 -4.95686)
(1.70097 0.212009 -3.41804)
(1.86151 0.218016 0.356035)
(2.45535 0.225768 1.41656)
(2.73089 -0.320692 1.87743)
(3.01712 -0.680385 2.20736)
(3.24011 -1.26476 2.52531)
(3.57807 -2.04851 2.6858)
(4.02508 -3.02345 2.52935)
(4.37417 -3.908 2.11787)
(4.51617 -4.53715 1.65837)
(4.44978 -4.9433 1.30561)
(4.25726 -5.29567 1.13995)
(3.84195 -5.63368 1.27312)
(3.09317 -5.8957 1.6586)
(1.86736 -4.75106 1.49706)
(0.509205 -3.02763 0.957845)
(-0.334384 -1.90877 0.271513)
(-0.326533 -1.83725 -0.592726)
(-0.318903 -1.33522 -0.413649)
(-2.02835 0.396938 -4.23474)
(1.60929 -0.584668 -2.6493)
(1.25427 -1.0229 1.54198)
(1.80159 -0.851325 2.55866)
(2.22507 -1.2664 2.91238)
(2.9939 -0.969733 2.76769)
(3.39612 -1.34469 3.00852)
(4.01571 -2.45649 2.87433)
(4.39586 -3.53034 2.24271)
(4.47627 -4.37092 1.52135)
(4.51298 -4.89747 0.974713)
(4.45119 -5.05597 0.706882)
(4.27159 -5.14571 0.6644)
(3.8037 -5.26585 0.851007)
(2.74581 -6.02511 1.5824)
(0.834237 -4.07066 1.50091)
(-0.294308 -2.4421 0.820456)
(-0.408014 -1.93594 0.24451)
(-0.390589 -1.8488 -0.743321)
(-0.30381 -1.38452 -0.57653)
(-2.11423 0.178276 -3.68459)
(1.09319 -0.605939 -2.48771)
(0.274699 -1.43301 2.14474)
(1.25694 -1.79385 2.74318)
(1.68482 -2.62819 2.6917)
(2.39709 -2.49136 2.89419)
(3.32016 -2.72313 2.65145)
(4.24893 -3.85009 2.03553)
(3.74435 -4.11616 0.836974)
(3.56072 -4.77226 0.0675942)
(3.95482 -5.11808 -0.2109)
(4.11992 -4.86132 -0.244313)
(4.00665 -4.57679 -0.177232)
(3.14651 -4.22481 0.301941)
(1.86336 -6.07578 2.05281)
(0.076004 -3.56598 1.39031)
(-0.624793 -2.37542 0.773131)
(-0.3892 -2.05365 0.218125)
(-0.443013 -1.81856 -0.92502)
(-0.263853 -1.42204 -0.787983)
(-2.1567 0.213919 -3.24789)
(0.90226 -0.288867 -2.49069)
(0.0694231 -2.27008 1.80264)
(1.34905 -2.81459 1.88313)
(1.58898 -3.20108 1.66527)
(2.23368 -3.4216 1.60209)
(2.98219 -4.21203 1.58034)
(4.64656 -6.0176 2.32401)
(1.82171 -5.77747 0.0342287)
(2.77387 -6.20777 -0.278912)
(3.50096 -5.93294 -0.285607)
(3.6247 -5.25141 -0.280066)
(3.11776 -4.43362 -0.190644)
(1.21166 -2.74274 0.0404046)
(0.941792 -5.90646 2.45469)
(-0.380163 -3.36838 1.26869)
(-0.816872 -2.44719 0.75552)
(-0.370616 -2.19069 0.163449)
(-0.490573 -1.74395 -1.13223)
(-0.194878 -1.43018 -1.06)
(-2.25384 0.21976 -2.52184)
(0.921786 -0.22445 -2.10041)
(0.000529697 -2.76018 1.27923)
(1.20056 -3.19869 1.1046)
(1.32427 -3.57042 0.969916)
(1.88137 -3.8984 0.838787)
(2.62669 -4.88236 1.07526)
(5.06304 -6.80922 3.00737)
(1.47345 -6.07301 0.0839534)
(2.79875 -5.93611 -0.0861046)
(3.49038 -5.08978 -0.0308893)
(3.32181 -4.06738 -0.0211894)
(2.80261 -3.33307 0.0291326)
(1.75744 -2.94835 -0.315208)
(0.101111 -5.6324 2.54186)
(-0.622048 -3.39232 1.20497)
(-0.978125 -2.53693 0.719863)
(-0.35671 -2.31058 0.103607)
(-0.540736 -1.62699 -1.35115)
(-0.0840231 -1.39499 -1.39512)
(-2.21458 -0.180227 -2.0545)
(0.759509 -0.516707 -1.918)
(-0.163205 -3.23374 0.776719)
(1.08937 -3.41256 0.449187)
(1.23905 -3.76986 0.454369)
(1.68596 -4.08641 0.345462)
(2.52685 -5.16693 0.775583)
(5.29024 -7.29393 3.18524)
(1.79427 -6.40626 -0.0305716)
(3.39668 -5.89181 -0.0778373)
(3.5595 -3.90951 -0.257706)
(3.32116 -3.41349 -0.0675081)
(3.09607 -2.96285 0.00792628)
(1.27604 -2.61827 -0.136965)
(-0.428299 -5.55873 2.44879)
(-0.790957 -3.452 1.13096)
(-1.10821 -2.62242 0.662357)
(-0.342316 -2.40735 0.0425241)
(-0.598357 -1.47138 -1.55761)
(0.0879967 -1.28592 -1.75134)
(-2.21177 -0.957343 -2.7915)
(0.653187 -1.06327 -2.49153)
(-0.0927914 -3.51532 0.0666147)
(1.2204 -3.67922 -0.0315992)
(1.43577 -3.98196 0.0982732)
(1.76138 -4.23144 0.0486248)
(2.594 -5.26022 0.606974)
(5.68588 -7.67572 3.50339)
(2.46604 -6.51458 -0.101464)
(3.84961 -5.49114 -0.0114212)
(3.77933 -3.04 -0.157623)
(3.34959 -2.27705 -0.0126138)
(0.553178 -4.17442 0.798912)
(-0.782114 -5.63723 2.35656)
(-0.907828 -3.52337 1.04585)
(-1.18533 -2.70173 0.578476)
(-0.325188 -2.46621 -0.0168358)
(-0.667746 -1.29204 -1.73127)
(0.326803 -1.08136 -2.04708)
(-2.43394 -1.53156 -4.04137)
(0.638985 -1.50521 -3.44792)
(0.0852584 -3.72923 -0.44382)
(1.45078 -3.88752 -0.290072)
(1.70774 -4.12514 -0.0774871)
(2.02045 -4.35191 -0.0976658)
(2.76753 -5.22627 0.517777)
(6.18754 -7.75249 3.60407)
(3.65609 -6.1869 -0.147064)
(5.11574 -4.45734 -0.132704)
(5.29223 -2.7871 -0.0734755)
(4.40944 -1.80641 -0.0948914)
(2.36046 -0.92855 0.0512879)
(-0.15353 -5.24008 2.03813)
(-0.988121 -5.75461 2.26606)
(-0.96757 -3.58875 0.967292)
(-1.18377 -2.78719 0.45469)
(-0.297859 -2.48995 -0.0730094)
(-0.725001 -1.13087 -1.85385)
(0.571871 -0.838672 -2.12266)
(-2.88661 -1.87445 -5.46437)
(0.704178 -1.8056 -4.52885)
(0.319245 -3.84605 -0.879994)
(1.75474 -4.00714 -0.484384)
(2.02422 -4.1745 -0.201686)
(2.31708 -4.35997 -0.192937)
(2.962 -5.03 0.436787)
(6.73669 -7.54283 3.70677)
(5.36853 -4.66258 -0.052753)
(5.46272 -2.52724 0.12892)
(4.52444 -1.70917 0.262941)
(3.06518 -1.07982 0.226849)
(0.776911 -0.0230218 0.140241)
(-0.46184 -5.47648 2.75398)
(-1.00734 -5.81268 2.17768)
(-0.996183 -3.60832 0.915526)
(-1.19646 -2.89427 0.299153)
(-0.265471 -2.51865 -0.141455)
(-0.72289 -1.07914 -1.96955)
(0.785962 -0.790007 -1.94456)
(-3.49505 -2.01206 -6.96381)
(0.79936 -1.97394 -5.63669)
(0.565897 -3.84722 -1.29946)
(2.09573 -4.00848 -0.677226)
(2.36732 -4.10469 -0.320292)
(2.66563 -4.2128 -0.275486)
(3.14834 -4.53642 0.234724)
(4.82593 -6.69266 4.20847)
(5.85845 -7.16047 6.42939)
(5.37116 -6.96178 6.48327)
(4.54598 -6.43564 6.18996)
(3.51621 -5.71412 5.79202)
(2.35899 -4.9105 5.35301)
(1.37331 -5.71132 4.02392)
(-0.854369 -5.60067 2.0987)
(-1.02183 -3.54145 0.905733)
(-1.23015 -2.95716 0.146598)
(-0.268366 -2.58167 -0.264036)
(-0.67107 -1.17692 -2.25058)
(1.02452 -1.11466 -2.28461)
(-4.17252 -1.99576 -8.43082)
(0.882266 -2.05554 -6.6819)
(0.786958 -3.70714 -1.75385)
(2.42845 -3.85666 -0.919134)
(2.71874 -3.894 -0.451646)
(3.06568 -3.96179 -0.247805)
(3.36796 -4.00321 0.21607)
(3.73561 -4.31204 0.878744)
(3.76131 -4.4817 1.26316)
(3.428 -4.27147 1.32523)
(2.90894 -3.77944 1.24945)
(2.30844 -3.33157 1.35952)
(1.53918 -3.34834 1.93651)
(0.645062 -4.59506 3.06588)
(-0.567284 -5.03523 1.995)
(-1.09477 -3.36824 0.92445)
(-1.33537 -2.94042 -0.0141907)
(-0.342669 -2.63609 -0.512109)
(-0.723764 -1.39852 -2.87006)
(1.39977 -1.51874 -3.30338)
(-4.86273 -1.82754 -9.84076)
(0.91052 -1.99865 -7.7128)
(0.964609 -3.37649 -2.34865)
(2.69986 -3.49748 -1.27232)
(2.95382 -3.49302 -0.599441)
(3.13228 -3.48022 0.110451)
(3.159 -3.48181 0.766445)
(3.09748 -3.58677 1.17167)
(2.83246 -3.41776 1.23753)
(2.49197 -2.98835 0.983155)
(2.24367 -2.50004 0.811108)
(1.94245 -2.20809 1.09055)
(1.83159 -2.53182 2.02788)
(0.950414 -3.54391 2.67239)
(-0.0661584 -4.07268 2.12547)
(-1.12946 -3.10254 0.954453)
(-1.54857 -2.79908 -0.189656)
(-0.52637 -2.62168 -0.941845)
(-0.860896 -1.71155 -3.91983)
(1.8977 -1.89955 -4.82264)
(-5.33471 -1.62943 -11.6438)
(0.892383 -1.97796 -9.12104)
(1.09341 -2.95213 -3.20249)
(2.88542 -3.03678 -1.73813)
(3.09089 -3.00828 -0.710704)
(3.13793 -2.97886 0.180773)
(2.92257 -2.95923 0.850916)
(2.58171 -2.92803 1.05806)
(2.16281 -2.58398 0.845829)
(1.91229 -2.23571 0.296759)
(1.85152 -1.95083 0.0214353)
(1.80735 -1.6975 0.44807)
(1.80604 -1.97412 1.78955)
(1.03148 -2.77658 2.52683)
(0.0395884 -3.42431 2.13639)
(-1.22126 -2.78784 0.924499)
(-1.82184 -2.54743 -0.381766)
(-0.848467 -2.48201 -1.59417)
(-1.1102 -1.88588 -5.62221)
(2.48394 -1.97239 -7.19711)
(-5.98643 -0.361749 -13.4563)
(0.540185 -0.711206 -10.6107)
(0.957781 -1.05019 -4.52783)
(2.82065 -1.27014 -2.78847)
(2.88823 -1.34852 -1.51664)
(2.72107 -1.43396 -0.666381)
(2.26657 -1.4639 -0.25301)
(1.76832 -1.30935 -0.329273)
(1.48166 -1.05056 -0.791662)
(1.46312 -0.841734 -1.24765)
(1.57109 -0.697851 -1.29578)
(1.68569 -0.560286 -0.796111)
(1.77424 -0.457056 0.765405)
(1.32623 -1.30006 1.55342)
(0.56495 -2.10336 1.36263)
(-1.02413 -1.88469 -0.0178948)
(-1.85807 -1.57025 -1.26775)
(-0.9543 -1.47193 -2.76846)
(-1.10256 -1.21504 -7.46732)
(3.23776 -1.1795 -9.69703)
(-4.65186 0.206591 -17.8565)
(0.421498 -0.434029 -15.3494)
(0.665055 -0.627091 -10.7118)
(1.8109 -1.07099 -8.93076)
(1.49392 -1.25216 -7.45099)
(1.16114 -1.36484 -6.69028)
(0.767 -1.36516 -6.42459)
(0.563032 -1.28786 -6.58876)
(0.527769 -1.20206 -6.82281)
(0.612568 -1.14925 -6.84284)
(0.739023 -1.11745 -6.47664)
(0.827793 -1.10232 -5.71121)
(0.833296 -1.12151 -4.65598)
(0.804467 -1.36419 -3.5298)
(0.334368 -1.76307 -3.14003)
(-0.668742 -1.68695 -4.24097)
(-1.41024 -1.66121 -5.97613)
(-0.961331 -1.49881 -8.04458)
(-1.08755 -1.27373 -12.3979)
(2.63442 -0.854041 -15.0761)
(-4.83822 4.83086 -19.927)
(-0.262413 4.70042 -17.7285)
(0.232536 6.06179 -13.3685)
(1.33419 5.54805 -11.3119)
(1.16213 5.34397 -9.49596)
(0.940286 5.01379 -8.54242)
(0.67545 4.73527 -8.1611)
(0.569511 4.44152 -8.24696)
(0.589876 4.15406 -8.40115)
(0.687725 3.8736 -8.33624)
(0.799437 3.60225 -7.86266)
(0.844071 3.36344 -6.94328)
(0.6901 3.21182 -5.69218)
(0.506641 3.2837 -4.2342)
(0.058416 3.18057 -3.8854)
(-0.747987 3.00992 -5.24116)
(-1.3427 3.05698 -7.4082)
(-0.772434 3.53036 -10.0188)
(-0.583762 2.77062 -14.9722)
(3.44985 3.38032 -17.7723)
(-1.184 -1.26252 -16.1074)
(0.10507 -0.842888 -13.6287)
(0.141418 -1.46658 -9.66676)
(0.627319 -1.01731 -7.75083)
(0.588247 -0.90953 -5.6001)
(0.873758 -0.740281 -3.97923)
(1.25543 -0.758651 -2.4103)
(1.45203 -0.802619 -1.23719)
(1.62316 -0.970959 -0.361999)
(1.81073 -1.31451 0.288548)
(2.11894 -1.9117 0.58105)
(2.56796 -2.84045 0.673713)
(2.98345 -3.79182 0.797264)
(3.28427 -4.61003 0.967973)
(3.41039 -5.27236 1.20181)
(3.30593 -5.55766 1.36756)
(2.9365 -5.29085 1.32783)
(2.34783 -4.57423 1.0362)
(1.77869 -3.72541 0.517314)
(1.04053 -2.83984 0.0593578)
(-0.941706 -0.0240511 -13.6899)
(0.313805 0.287868 -11.145)
(0.176924 0.121916 -7.22143)
(0.754716 0.283474 -5.78922)
(0.881078 -0.229227 -3.87357)
(1.3537 -0.847996 -2.47716)
(1.62543 -1.35898 -1.40907)
(1.77084 -1.62619 -0.488583)
(1.89878 -1.9847 0.363013)
(2.07084 -2.32384 0.897241)
(2.52518 -3.01582 1.17225)
(2.97594 -3.77358 1.24672)
(3.30855 -4.45515 1.25543)
(3.49125 -5.03452 1.33308)
(3.49367 -5.48654 1.52845)
(3.25367 -5.47284 1.61003)
(2.71471 -4.85259 1.42088)
(1.96485 -3.9158 0.945613)
(1.30904 -3.06516 0.272042)
(0.465194 -2.39758 -0.137475)
(-1.4924 -0.0221753 -10.0499)
(0.382082 0.0564979 -7.61741)
(0.110523 -0.413635 -3.34345)
(1.52545 -0.574928 -2.41267)
(1.82717 -1.21886 -1.65926)
(2.12801 -1.60626 -0.959184)
(2.23415 -1.78527 -0.182097)
(2.27991 -1.92636 0.695994)
(2.44574 -2.29554 1.38485)
(2.79472 -2.88339 1.71392)
(3.15939 -3.51504 1.72734)
(3.3895 -4.09232 1.60281)
(3.50267 -4.62442 1.48506)
(3.50561 -5.10595 1.5343)
(3.35735 -5.48319 1.77856)
(2.96338 -5.25773 1.79192)
(2.24821 -4.39916 1.43431)
(1.42929 -3.44104 0.765803)
(0.827924 -2.74637 -0.0150536)
(0.117317 -2.18269 -0.270152)
(-1.33797 0.353637 -8.14242)
(0.328245 0.292879 -5.98851)
(0.0147819 -0.197469 -1.62943)
(1.45596 -0.512312 -0.951756)
(1.72913 -1.05181 -0.308936)
(2.11773 -1.40509 0.571336)
(2.31284 -1.75427 1.35474)
(2.57747 -2.26922 1.96432)
(2.95387 -2.88299 2.26865)
(3.31198 -3.45671 2.25933)
(3.50489 -3.92309 2.02222)
(3.50411 -4.30713 1.709)
(3.43128 -4.73325 1.52072)
(3.30136 -5.16815 1.65296)
(3.03039 -5.47588 2.0364)
(2.49678 -4.96549 1.93625)
(1.64191 -3.86999 1.35676)
(0.919702 -3.03972 0.498488)
(0.462149 -2.53751 -0.304321)
(-0.0577073 -1.98748 -0.378606)
(-1.37456 0.247047 -6.45053)
(0.302294 -0.0631304 -4.39677)
(0.105943 -1.43082 0.1011)
(1.37557 -1.27094 1.13139)
(1.65016 -1.67195 1.71642)
(2.11558 -2.06343 2.29705)
(2.48353 -2.43619 2.7055)
(2.91897 -2.91876 2.92336)
(3.34124 -3.41936 2.80057)
(3.5569 -3.78898 2.39692)
(3.48857 -4.01473 1.8866)
(3.25299 -4.26416 1.46651)
(3.08532 -4.7359 1.3687)
(2.90255 -5.21439 1.74645)
(2.54511 -5.43997 2.34214)
(1.90144 -4.58496 2.01147)
(1.00652 -3.37814 1.16367)
(0.598273 -2.89288 0.198718)
(0.282663 -2.48528 -0.530384)
(-0.110861 -1.86608 -0.502989)
(-1.32009 0.200604 -5.65714)
(0.353611 -0.313847 -3.67109)
(0.0296588 -1.91183 1.33199)
(1.02045 -1.75024 2.27626)
(1.31678 -2.12259 2.67966)
(1.86889 -2.52371 3.09049)
(2.42417 -2.68005 3.23811)
(3.06753 -3.18852 3.20375)
(3.55025 -3.67645 2.71447)
(3.66414 -3.90074 2.00436)
(3.40466 -3.94973 1.31611)
(3.04985 -4.14085 0.898525)
(2.90704 -4.76215 0.982659)
(2.76706 -5.29181 1.52445)
(1.97557 -5.38774 2.72928)
(1.28362 -4.18488 1.96791)
(0.526326 -3.10633 0.880584)
(0.491703 -2.95714 -0.0734525)
(0.203051 -2.45277 -0.731054)
(-0.12563 -1.76355 -0.684765)
(-1.38776 0.149019 -5.09466)
(0.30815 -0.375238 -3.38577)
(-0.363815 -2.22928 1.90922)
(0.836042 -2.08255 2.31891)
(1.01928 -2.52335 2.33555)
(1.60078 -2.65838 2.73946)
(2.19186 -2.96511 2.59153)
(2.72131 -3.41843 2.17134)
(3.06988 -3.67153 1.47208)
(2.908 -3.65297 0.813253)
(2.6103 -3.7962 0.405265)
(2.54323 -4.38399 0.422358)
(2.58772 -5.23523 0.914867)
(2.19866 -5.4411 1.77935)
(1.68271 -5.61328 2.97685)
(0.805728 -3.88743 1.76975)
(0.31624 -3.11621 0.58179)
(0.496919 -3.06959 -0.293448)
(0.173512 -2.38537 -0.940451)
(-0.124418 -1.64527 -0.934562)
(-1.42987 0.133249 -4.64479)
(0.349843 -0.265368 -3.26647)
(-0.497859 -2.47247 1.28235)
(0.836202 -2.18222 0.97269)
(0.815337 -2.47661 0.978622)
(1.31057 -2.69804 1.37323)
(1.72388 -3.01628 1.29244)
(2.31812 -3.56269 0.961182)
(2.55968 -3.74393 0.434351)
(2.44006 -3.861 0.129456)
(2.42063 -4.28763 0.0447064)
(2.52895 -5.02136 0.343064)
(2.45453 -5.69577 1.00131)
(1.4974 -5.41073 2.16571)
(1.16504 -5.57157 3.18765)
(0.588889 -3.84413 1.55692)
(0.275063 -3.25216 0.278665)
(0.538064 -3.15222 -0.47861)
(0.165649 -2.26051 -1.17766)
(-0.105478 -1.50117 -1.26212)
(-1.55852 0.0347216 -3.91412)
(0.309298 -0.263507 -2.75756)
(-0.652979 -2.46299 0.260721)
(0.684895 -1.76446 -0.459237)
(0.680538 -2.40986 -0.0929923)
(1.15201 -2.62956 0.395501)
(1.52339 -3.10858 0.527918)
(2.13279 -3.74599 0.40535)
(2.37262 -3.97189 0.0899501)
(2.34259 -4.21806 -0.0902287)
(2.45236 -4.77146 -0.0262536)
(2.63129 -5.5042 0.458786)
(2.30418 -5.83766 1.24306)
(0.946018 -5.35026 2.77037)
(0.87213 -5.49581 3.1044)
(0.526566 -3.92616 1.36255)
(0.29786 -3.40058 -0.0224921)
(0.592514 -3.18488 -0.658018)
(0.16131 -2.07247 -1.44447)
(-0.050869 -1.33981 -1.6839)
(-1.64526 -0.0570124 -3.36983)
(0.188225 -0.312366 -2.38437)
(-0.764402 -2.28912 -0.615107)
(0.687865 -1.81341 -1.11025)
(0.700801 -2.46928 -0.63018)
(1.18076 -2.73302 -0.15239)
(1.51171 -3.33006 0.153333)
(2.0962 -3.94566 0.179646)
(2.30472 -4.20479 -0.039592)
(2.3573 -4.46946 -0.181569)
(2.62429 -5.08803 -0.00299421)
(2.87887 -5.80339 0.550668)
(2.10153 -5.65789 1.52095)
(0.770775 -5.3957 3.32203)
(0.776927 -5.47243 2.94324)
(0.556342 -4.02757 1.16924)
(0.341094 -3.50373 -0.305887)
(0.642119 -3.14343 -0.838028)
(0.142366 -1.824 -1.73289)
(0.0711356 -1.16453 -2.19107)
(-1.57968 -0.329122 -3.85212)
(0.0951895 -0.567606 -2.86698)
(-0.71236 -2.33778 -1.23372)
(0.755204 -2.10974 -1.42829)
(0.820052 -2.68343 -0.871381)
(1.2729 -2.99839 -0.426159)
(1.57185 -3.58094 -0.0325071)
(2.09552 -4.1132 0.062204)
(2.26205 -4.43812 -0.0771937)
(2.40048 -4.82765 -0.0944735)
(2.8506 -5.50412 0.260574)
(2.89029 -5.90554 0.759293)
(1.96624 -5.3244 1.79535)
(0.946736 -5.2927 3.51429)
(0.856319 -5.46913 2.81027)
(0.639862 -4.08658 0.977766)
(0.384033 -3.51868 -0.546222)
(0.678847 -3.01717 -1.00378)
(0.0935948 -1.52963 -2.02253)
(0.277805 -0.941022 -2.72643)
(-1.59 -0.672586 -5.22212)
(0.0491701 -0.839231 -4.00685)
(-0.592778 -2.47072 -1.8516)
(0.890155 -2.36245 -1.74162)
(0.963712 -2.86217 -1.09063)
(1.38037 -3.21553 -0.614178)
(1.63063 -3.77621 -0.143891)
(2.05521 -4.27104 -0.00302061)
(2.2345 -4.75721 -0.00252993)
(2.52325 -5.23994 0.178297)
(2.89538 -5.66174 0.575478)
(2.75363 -5.69049 1.06152)