/*--------------------------------*- C++ -*----------------------------------*\
| =========                 |                                                 |
| \\      /  F ield         | OpenFOAM: The Open Source CFD Toolbox           |
|  \\    /   O peration     | Version:  2412                                  |
|   \\  /    A nd           | Website:  www.openfoam.com                      |
|    \\/     M anipulation  |                                                 |
\*---------------------------------------------------------------------------*/
FoamFile
{
    version     2.0;
    format      ascii;
    arch        "LSB;label=32;scalar=64";
    class       volVectorField;
    location    "2.4";
    object      flux;
}
// * * * * * * * * * * * * * * * * * * * * * * * * * * * * * * * * * * * * * //

dimensions      [0 1 -1 1 0 0 0];

internalField   nonuniform List<vector> 
5712
(
(-0.312948 0.509023 0.287901)
(-0.382283 0.279666 0.874986)
(-0.715617 0.887126 0.218286)
(-1.1172 0.580576 0.957523)
(-1.08031 0.85407 0.119668)
(-2.10799 0.725847 1.01482)
(-0.747474 1.26008 0.204392)
(-2.24912 1.55978 1.609)
(-0.771359 1.91736 0.334167)
(-1.80386 2.42613 2.02083)
(-0.948323 1.01527 0.342307)
(-1.55878 0.891526 1.43274)
(-0.725781 0.625221 0.365211)
(-0.959097 0.430544 1.2729)
(-0.390337 0.412384 0.359845)
(-0.395951 0.234756 1.09311)
(-0.506825 0.848294 0.169236)
(-0.572414 0.76738 0.0916044)
(-0.696475 0.766076 0.51005)
(-0.63078 0.759803 0.240281)
(-0.484669 0.974037 0.157903)
(-0.729656 0.936319 0.0723807)
(-0.72338 1.12397 0.550362)
(-0.724393 0.968868 0.22129)
(-0.204459 0.299987 0.219995)
(-0.147752 0.210814 0.16172)
(-0.277332 0.156145 0.64967)
(-0.197993 0.108016 0.473837)
(-0.463432 0.437182 0.147449)
(-0.299454 0.282825 0.115612)
(-0.858161 0.242213 0.653541)
(-0.5972 0.156936 0.493667)
(-0.714764 0.859828 0.331046)
(-0.723592 0.91167 0.120206)
(-0.724279 0.772785 0.250197)
(-0.729796 0.632269 0.0904855)
(-0.165256 0.625789 0.11403)
(-0.148688 0.487628 0.306541)
(-1.66604 0.529149 1.57246)
(-2.06067 0.505013 0.480662)
(-0.885813 0.707998 0.471659)
(-1.18276 0.695077 0.21816)
(-2.15024 1.43883 1.9105)
(-2.64613 1.58398 0.59918)
(-0.995959 1.03249 0.44068)
(-1.22559 1.09087 0.207394)
(-1.24659 0.742252 1.03999)
(-1.63024 0.5842 0.346769)
(-0.992708 0.759152 0.529828)
(-1.3759 0.533341 0.241622)
(-0.569898 0.322454 0.845554)
(-0.72239 0.278077 0.268961)
(-0.116021 0.239962 0.193754)
(-0.036675 0.353727 0.105128)
(-0.151048 0.119286 0.344096)
(-0.0522616 0.161372 0.138952)
(-0.259463 0.318269 0.171823)
(-0.106599 0.472566 0.108889)
(-0.451001 0.199763 0.361382)
(-0.165325 0.27236 0.136089)
(-0.294865 0.325149 0.230732)
(-0.097907 0.566749 0.14667)
(-0.299193 0.247722 0.226542)
(-0.0846403 0.404885 0.0948269)
(-0.58913 0.0776361 0.404486)
(-0.171435 0.272283 0.145894)
(-0.772729 0.0136833 0.159309)
(-0.242053 0.195058 0.0587834)
(-0.998116 0.729128 0.493574)
(-0.569528 0.877552 0.37083)
(-0.844919 0.763616 0.299693)
(-0.583509 0.867745 0.268414)
(-1.0255 0.921702 0.554065)
(-0.660305 0.939869 0.485316)
(-0.814094 0.937823 0.300652)
(-0.659222 0.915949 0.320693)
(-0.652928 0.678782 0.277148)
(-0.470416 0.820492 0.237351)
(-0.715176 0.679736 0.360385)
(-0.451329 0.809536 0.307881)
(-0.82135 0.764394 0.223419)
(-0.606468 0.860491 0.191994)
(-0.849034 0.749731 0.129946)
(-0.623021 0.854268 0.111566)
(-0.798238 0.943843 0.223218)
(-0.675734 0.901895 0.222634)
(-0.829503 0.943379 0.1279)
(-0.689948 0.893876 0.128003)
(-0.67497 0.636938 0.213587)
(-0.499979 0.821498 0.167158)
(-0.728191 0.580842 0.124964)
(-0.519389 0.817551 0.0879756)
(-0.71869 0.696928 0.237577)
(-0.294186 0.743274 0.133651)
(-0.408626 0.87794 0.238073)
(-0.465207 1.22404 0.263181)
(-0.772072 0.729232 0.314961)
(-0.338493 0.855476 0.239938)
(-0.403629 0.872612 0.340063)
(-0.484758 1.33409 0.44954)
(-0.72165 0.659805 0.173909)
(-0.275064 0.659626 0.0743385)
(-0.429274 0.873635 0.153149)
(-0.459895 1.16397 0.158369)
(-0.746563 0.634328 0.0986247)
(-0.277135 0.606329 0.0344157)
(-0.452174 0.872532 0.0702826)
(-0.464793 1.13453 0.0608175)
(-0.112103 0.174396 0.220495)
(-0.125804 0.219449 0.447149)
(-0.0393521 0.474673 0.161279)
(-0.0774346 0.770345 0.50629)
(-0.323401 0.209784 0.238395)
(-0.37911 0.234262 0.453229)
(-0.132302 0.588349 0.192334)
(-0.250338 0.866471 0.539297)
(-0.525462 0.25075 0.315049)
(-0.623715 0.260993 0.450682)
(-0.235113 0.72074 0.267083)
(-0.420365 0.980184 0.549555)
(-0.697445 0.994 0.351799)
(-0.368599 1.10957 0.42506)
(-0.702229 0.831649 0.269361)
(-0.838407 0.756576 0.270085)
(-0.419448 1.02067 0.331307)
(-0.271224 1.13149 0.280331)
(-0.433825 0.974276 0.307035)
(-0.491015 0.833079 0.422107)
(-0.85149 0.700153 0.491978)
(-0.536354 1.15166 0.722255)
(-0.395981 1.03715 0.378705)
(-0.51731 0.95159 0.304185)
(-0.570903 0.793997 0.288988)
(-0.549975 0.80828 0.366469)
(-0.683652 1.50137 0.585011)
(-0.124416 0.0632826 0.557866)
(-0.127814 0.0833051 0.540528)
(-0.0766967 0.168737 0.652315)
(-0.0819629 0.344998 0.657251)
(-0.369005 0.0898842 0.544841)
(-0.353545 0.124393 0.546158)
(-0.236012 0.224855 0.654635)
(-0.240184 0.404672 0.651922)
(-0.553457 0.135885 0.503029)
(-0.50943 0.131276 0.522681)
(-0.348675 0.302466 0.628267)
(-0.351243 0.484002 0.635051)
(-0.387031 1.10735 0.353093)
(-0.433289 1.11224 0.374939)
(-0.611904 0.915059 0.343157)
(-0.649131 0.881975 0.362533)
(-0.676425 0.765799 0.416385)
(-0.636964 0.686695 0.416806)
(-0.800064 0.556449 0.486612)
(-0.736062 0.495914 0.473741)
(-0.547226 0.425454 0.614125)
(-0.54602 0.629698 0.621561)
(-0.519227 0.978787 0.322311)
(-0.567667 0.890182 0.353752)
(-0.668969 0.899938 0.363183)
(-0.617148 0.850065 0.387307)
(-0.627656 0.755346 0.404574)
(-0.530543 0.702871 0.436441)
(-0.559478 0.645545 0.46567)
(-0.452809 0.574175 0.510709)
(-0.617454 0.507339 0.612839)
(-0.494198 0.692044 0.665928)
(-0.567346 0.92202 0.376714)
(-0.310457 0.98346 0.256985)
(-0.444782 0.952905 0.305046)
(-0.435705 1.04755 0.308154)
(-0.62606 0.93404 0.423252)
(-0.732407 0.865061 0.482745)
(-0.639272 0.945913 0.344225)
(-0.83571 0.908601 0.456283)
(-0.374271 0.828723 0.279298)
(-0.371719 0.839135 0.28459)
(-0.513091 0.817817 0.355112)
(-0.239563 0.814419 0.254742)
(-0.428587 0.968439 0.12836)
(-0.678676 1.07253 0.222518)
(-0.442186 0.96018 0.0525491)
(-0.722967 1.06094 0.0828529)
(-0.648171 0.956855 0.213173)
(-1.02319 0.945556 0.338433)
(-0.668953 0.944546 0.0836483)
(-1.04507 0.937258 0.126821)
(-0.361422 0.820843 0.107283)
(-0.59416 0.832643 0.194732)
(-0.372793 0.830495 0.0399966)
(-0.642423 0.838212 0.0708945)
(-0.444473 0.707821 0.265315)
(-0.334032 0.700535 0.226748)
(-0.566567 0.484662 0.270884)
(-0.258407 0.578028 0.169377)
(-0.482885 0.713828 0.373393)
(-0.187848 0.690021 0.266203)
(-0.536543 0.498243 0.424451)
(-0.137483 0.596933 0.283245)
(-0.460195 0.688498 0.12354)
(-0.475389 0.690638 0.144555)
(-0.592499 0.478954 0.154087)
(-0.307065 0.57903 0.0874367)
(-0.414102 0.694528 0.0955225)
(-0.546852 0.68289 0.104445)
(-0.543507 0.474417 0.106564)
(-0.389729 0.565269 0.080918)
(-0.120232 0.0725279 0.469242)
(-0.112443 0.0597147 0.308615)
(-0.0979358 0.0444096 0.100774)
(-0.0775612 0.0406827 0.508306)
(-0.0761973 0.0353174 0.319497)
(-0.0670908 0.0348676 0.110388)
(-0.326691 0.108314 0.462288)
(-0.284013 0.0778873 0.301851)
(-0.249972 0.0614127 0.102466)
(-0.212097 0.0945633 0.50791)
(-0.178918 0.0851496 0.318656)
(-0.152264 0.0743581 0.107868)
(-0.429025 0.116075 0.441947)
(-0.36701 0.113852 0.284155)
(-0.337685 0.121856 0.0951796)
(-0.305146 0.170867 0.499593)
(-0.248185 0.150014 0.313882)
(-0.226225 0.138285 0.107865)
(-0.391408 1.06973 0.267712)
(-0.321284 0.961383 0.152362)
(-0.307012 0.884281 0.0395171)
(-0.607729 0.887607 0.316177)
(-0.458022 0.839342 0.215759)
(-0.37531 0.797582 0.0700934)
(-0.543739 0.604735 0.362265)
(-0.403165 0.583344 0.255193)
(-0.315795 0.572353 0.0860472)
(-0.603112 0.426356 0.400213)
(-0.477389 0.407471 0.260299)
(-0.405312 0.399926 0.0852202)
(-0.462034 0.277656 0.484078)
(-0.317349 0.207449 0.303937)
(-0.238982 0.170859 0.10747)
(-0.731854 0.845489 0.295829)
(-0.600821 0.786602 0.161861)
(-0.537392 0.743039 0.0529018)
(-0.534306 0.840691 0.284283)
(-0.427432 0.790147 0.183647)
(-0.357512 0.760409 0.0636295)
(-0.468607 0.62428 0.318836)
(-0.355905 0.560377 0.209925)
(-0.282754 0.525021 0.0716547)
(-0.415865 0.447526 0.378622)
(-0.31398 0.398347 0.242869)
(-0.25178 0.376339 0.0828371)
(-0.444488 0.294111 0.45909)
(-0.268816 0.219728 0.267302)
(-0.169522 0.180994 0.0924312)
(-0.4547 1.12768 -0.0197481)
(-0.742863 1.1718 0.0396197)
(-0.384774 1.19857 0.0179127)
(-0.552732 1.10313 0.105583)
(-0.367731 1.09974 0.0706139)
(-0.759089 1.10186 0.0715433)
(-0.30733 1.31025 0.182226)
(-0.621893 1.13108 0.15985)
(-0.00795595 0.720389 0.0240348)
(-0.0692979 0.794296 0.0389987)
(0.00936394 0.717445 0.025471)
(-0.04055 0.707984 0.0409149)
(-0.142587 0.956011 0.0135455)
(-0.268424 0.84254 0.0377794)
(-0.0893294 0.934051 0.0250546)
(-0.161625 0.738725 0.0553959)
(-0.0741401 1.02951 0.0758707)
(-0.15799 1.07596 0.0454257)
(-0.438123 0.882797 0.152971)
(-0.654645 0.993291 0.10817)
(-0.348155 1.15928 0.0701238)
(-0.257254 1.01597 0.115425)
(-0.462253 1.14592 0.117065)
(-0.404019 1.18844 0.0336467)
(-0.6183 1.21226 0.233787)
(-0.661574 1.29794 0.0744869)
(0.0217472 0.98515 -0.163787)
(0.217615 1.00971 -0.0231128)
(-0.333824 0.856942 0.0276082)
(-0.23485 0.843864 0.0288247)
(-0.259372 0.979225 0.00183676)
(-0.149605 0.944695 0.00833907)
(-0.0637384 0.663305 0.413507)
(-0.0408505 0.375649 0.183111)
(-0.0508734 0.619077 0.10984)
(-0.0309945 0.41577 0.0657157)
(-0.156359 0.643683 0.407464)
(-0.0510664 0.367635 0.185863)
(-0.0771831 0.595753 0.119827)
(-0.00923429 0.402357 0.0776987)
(-0.39859 0.58851 0.39466)
(-0.12128 0.340015 0.204043)
(-0.298076 0.553104 0.161852)
(-0.0928134 0.382231 0.115909)
(-0.338215 0.542867 0.124085)
(-0.102132 0.397154 0.0817947)
(-0.383125 0.520969 0.0701698)
(-0.127036 0.396551 0.0637642)
(-0.488391 0.904072 0.52401)
(-0.485497 0.7169 0.458319)
(-0.380908 0.883075 0.229904)
(-0.482676 0.71952 0.29383)
(-0.735934 1.00971 0.585)
(-0.665503 0.90685 0.546424)
(-0.603469 1.00945 0.284853)
(-0.634308 0.889349 0.341748)
(-0.285187 0.814487 0.21027)
(-0.377074 0.566975 0.253724)
(-0.332519 0.849055 0.446644)
(-0.347517 0.549741 0.369098)
(-0.357169 0.89795 0.146527)
(-0.4811 0.720437 0.191855)
(-0.375868 0.920789 0.0847722)
(-0.486457 0.718154 0.111819)
(-0.576643 1.03122 0.190604)
(-0.623487 0.882027 0.222828)
(-0.597911 1.04734 0.110354)
(-0.628845 0.877148 0.127877)
(-0.252652 0.790843 0.119959)
(-0.383501 0.57298 0.167514)
(-0.245203 0.784221 0.0677527)
(-0.389147 0.57238 0.102083)
(-0.0373699 0.483853 0.188456)
(-0.0638618 0.331757 0.13558)
(-0.307693 0.429344 0.214214)
(-0.178654 0.269275 0.146327)
(-0.0365792 0.447862 0.323365)
(-0.0549427 0.29641 0.195679)
(-0.269296 0.402663 0.28801)
(-0.151552 0.246053 0.192425)
(-0.0368252 0.494226 0.112479)
(-0.0575244 0.352064 0.0927644)
(-0.325587 0.440871 0.148747)
(-0.196669 0.282337 0.100524)
(-0.0492249 0.496777 0.0636303)
(-0.0624324 0.365653 0.0586628)
(-0.329601 0.443668 0.0942076)
(-0.207649 0.290147 0.06206)
(0.0063739 0.106465 0.483972)
(0.0118879 0.0573792 0.326608)
(-0.0197755 0.196621 0.239803)
(-0.0142601 0.108311 0.252424)
(0.0320142 0.110107 0.47985)
(0.0527491 0.0663841 0.325144)
(-0.0331218 0.19911 0.237376)
(-0.0236881 0.119784 0.247679)
(-0.0510972 0.120016 0.485158)
(-0.00990461 0.089026 0.311538)
(-0.107714 0.196949 0.242192)
(-0.0963276 0.138554 0.23029)
(0.307321 0.544072 0.528287)
(0.156413 0.909186 0.508491)
(0.17874 0.351318 0.494762)
(0.115093 0.317074 0.382445)
(-0.00709643 0.222082 0.223789)
(0.283104 0.931233 0.309938)
(0.415654 0.60071 0.375249)
(0.196523 0.335887 0.398767)
(0.195365 0.29788 0.376454)
(-0.0063413 0.171392 0.267937)
(-0.37223 0.897826 0.440032)
(-0.274947 0.651497 0.396035)
(-0.229972 0.477351 0.330045)
(-0.240486 0.347728 0.26888)
(-0.14721 0.208811 0.178545)
(0.0206556 0.0411071 0.283324)
(0.0164483 0.0403209 0.284325)
(-0.00865698 0.0732519 0.286566)
(-0.0137495 0.0691241 0.350858)
(0.0576772 0.0513313 0.281306)
(0.0651838 0.0401072 0.274349)
(-0.0247498 0.0896247 0.279681)
(-0.034375 0.082033 0.342726)
(0.0474684 0.0727893 0.266905)
(0.0732343 0.0646862 0.257548)
(-0.063737 0.109518 0.26527)
(-0.0789421 0.0983887 0.327151)
(0.125731 0.947251 0.348371)
(0.0676472 0.91074 0.329433)
(0.323899 0.605725 0.326367)
(0.231992 0.557329 0.281396)
(0.171548 0.380067 0.24626)
(0.124374 0.368521 0.247827)
(0.152672 0.29031 0.240028)
(0.127773 0.280887 0.252059)
(-0.0197957 0.157231 0.231611)
(-0.0535953 0.142282 0.307722)
(-0.195928 0.825973 0.25534)
(-0.135152 0.713358 0.289475)
(0.0196235 0.603959 0.214738)
(0.09059 0.523525 0.244654)
(0.0242389 0.451571 0.192821)
(0.0778012 0.414725 0.221202)
(-0.0221034 0.318158 0.191214)
(0.0227137 0.308858 0.230843)
(-0.0433577 0.193306 0.176615)
(-0.0614626 0.219877 0.28239)
(-0.163598 0.570347 0.189374)
(-0.181614 0.455036 0.151867)
(-0.390555 0.574808 0.129575)
(-0.248379 0.428356 0.0686902)
(-0.344278 0.726109 0.28959)
(-0.337036 0.540635 0.220178)
(-0.518823 0.735232 0.234012)
(-0.406694 0.530112 0.147473)
(-0.303598 0.468855 0.0997452)
(-0.188334 0.381323 0.0572699)
(-0.104772 0.464352 0.147696)
(-0.133158 0.407507 0.133517)
(-0.462432 0.592589 0.169121)
(-0.195539 0.407716 0.0731946)
(-0.495785 0.596705 0.0790149)
(-0.179956 0.411461 0.0434619)
(-0.596126 0.769623 0.219138)
(-0.391323 0.543003 0.125048)
(-0.634101 0.766639 0.0903179)
(-0.375149 0.546266 0.0621983)
(-0.365318 0.471524 0.138135)
(-0.138107 0.357453 0.059102)
(-0.396823 0.478529 0.0705209)
(-0.119583 0.37162 0.0354533)
(-0.235786 0.333171 0.0857333)
(-0.195691 0.308437 0.10299)
(-0.187213 0.214703 0.107494)
(-0.326678 0.293999 0.182239)
(-0.119557 0.338189 0.129283)
(-0.158602 0.323862 0.158462)
(-0.126117 0.218619 0.130075)
(-0.275826 0.290471 0.237221)
(-0.259206 0.331755 0.102292)
(-0.184165 0.299442 0.0752211)
(-0.225595 0.20836 0.0786521)
(-0.374429 0.307338 0.130238)
(-0.31094 0.34885 0.0466266)
(-0.175427 0.301684 0.0189307)
(-0.263554 0.217107 0.017841)
(-0.372023 0.303756 0.0334084)
(0.0230432 0.099593 0.225616)
(0.0311788 0.0799297 0.10348)
(0.0368338 0.0627241 0.0297606)
(-0.00883225 0.37594 0.244328)
(0.00581499 0.184402 0.0651207)
(0.008226 0.14137 0.0171889)
(0.0843095 0.0913776 0.218827)
(0.10413 0.0858374 0.107333)
(0.113047 0.0731443 0.0334706)
(-0.0134603 0.392469 0.24222)
(0.0246602 0.214083 0.0668958)
(0.0304039 0.172693 0.0185009)
(0.101676 0.112518 0.198243)
(0.148426 0.119849 0.0978964)
(0.168639 0.120372 0.02524)
(-0.0427575 0.410954 0.229977)
(0.043339 0.26284 0.0617957)
(0.0614197 0.230481 0.0139462)
(0.0387643 0.824375 0.222485)
(0.0610092 0.751025 0.121324)
(0.0552898 0.698149 0.0318622)
(0.182835 0.528756 0.188345)
(0.197689 0.499613 0.100885)
(0.1842 0.479655 0.0280375)
(0.142934 0.383762 0.185961)
(0.169899 0.370484 0.0932731)
(0.165193 0.363034 0.026558)
(0.150786 0.337327 0.184643)
(0.193455 0.32028 0.0873553)
(0.201464 0.312908 0.0202179)
(-0.0265977 0.470191 0.217563)
(0.0631368 0.342178 0.0543811)
(0.0610585 0.30678 0.00921922)
(-0.158445 0.61146 0.247077)
(-0.0764259 0.551989 0.129739)
(-0.0430431 0.511802 0.0400895)
(0.0589754 0.466513 0.21429)
(0.109423 0.428064 0.116756)
(0.125643 0.405366 0.0384228)
(0.0675282 0.411058 0.194917)
(0.123394 0.372228 0.102204)
(0.137677 0.343982 0.0335442)
(0.0392976 0.394025 0.188959)
(0.108352 0.352973 0.0774147)
(0.12306 0.330812 0.020918)
(-0.0789349 0.605128 0.225776)
(0.0428046 0.425631 0.0559696)
(0.051658 0.388864 0.0177753)
(-0.00312928 0.20037 0.0712877)
(0.000317048 0.120073 0.0274328)
(0.00161132 0.088346 0.0130986)
(0.00339866 0.0833638 0.00045223)
(0.004417 0.225369 0.0289009)
(0.00434164 0.129906 0.0117473)
(0.00509556 0.0920574 0.0060915)
(0.00522011 0.0855106 0.00120528)
(-0.00854156 0.19427 0.0737608)
(0.000363188 0.118112 0.0294302)
(0.00433521 0.0880234 0.0156022)
(0.00898936 0.0843501 0.00302026)
(0.0101184 0.223671 0.0350625)
(0.00997302 0.13023 0.0158227)
(0.0110984 0.0929788 0.0101825)
(0.0118789 0.0860754 0.00476493)
(-0.01731 0.183403 0.08474)
(-0.00207622 0.115264 0.035233)
(0.00467895 0.0886634 0.020414)
(0.0138157 0.0829917 0.00638199)
(0.00164596 0.217349 0.0605431)
(0.00830988 0.13138 0.031317)
(0.00995663 0.0953559 0.0178875)
(0.0135722 0.0844551 0.00833412)
(0.00187788 0.228305 0.0448995)
(0.0054366 0.136972 0.0281333)
(0.00406287 0.0962416 0.013825)
(0.00452301 0.0896947 0.00455284)
(-0.00669757 0.234907 0.0469159)
(-0.000382341 0.142909 0.0320977)
(0.00208699 0.100352 0.0189101)
(0.00484612 0.0932681 0.0105825)
(-0.0437813 0.195552 0.0710969)
(-0.0130274 0.122317 0.0339212)
(-0.00457863 0.0919733 0.0177166)
(0.00801961 0.0840674 0.00188808)
(-0.065826 0.155848 0.0678633)
(-0.0207831 0.106177 0.0313133)
(-0.0120201 0.0853123 0.0184166)
(0.0111988 0.0791118 -0.00154007)
(-0.0368988 0.168339 0.0893443)
(-0.0098465 0.110016 0.037706)
(-0.00142552 0.0874161 0.0221214)
(0.0133911 0.0770336 0.00494521)
(-0.0536819 0.138775 0.0802937)
(-0.0165996 0.0980876 0.0333115)
(-0.0103283 0.0814163 0.0204264)
(0.0112931 0.0752025 -0.00263671)
(-0.0404389 0.211666 0.0541089)
(-0.0125616 0.131303 0.029709)
(-0.00447313 0.0956613 0.015597)
(0.00676087 0.0884699 0.00208217)
(-0.0725733 0.16642 0.0528847)
(-0.0230486 0.112519 0.0277192)
(-0.0127927 0.0882345 0.0169939)
(0.0138604 0.0816819 0.00277806)
(-0.0429695 0.220874 0.0403898)
(-0.014738 0.137684 0.0259253)
(-0.0044261 0.0990366 0.0164481)
(0.00898438 0.0906001 0.00957198)
(-0.0761128 0.172445 0.0369462)
(-0.0243966 0.117213 0.0232299)
(-0.0134765 0.0908763 0.0160332)
(0.0152018 0.0826895 0.00921264)
(-0.00315459 0.149891 0.0914328)
(-0.000174821 0.103477 0.0334602)
(0.000646002 0.0824396 0.0160093)
(0.00306126 0.0786138 -0.00321269)
(-0.00279189 0.0958566 0.0959986)
(-8.53052e-05 0.0835671 0.0326363)
(0.000101439 0.0747236 0.0176434)
(0.00320992 0.0724618 -0.0102249)
(-0.00865622 0.144926 0.0912092)
(-0.000711112 0.101703 0.0339623)
(0.00182972 0.0822395 0.0173807)
(0.00811028 0.0785701 -0.00192013)
(-0.00493711 0.094986 0.0921807)
(0.000722641 0.0832496 0.0315158)
(0.000862519 0.0745854 0.0176001)
(0.0087584 0.0728464 -0.00950216)
(-0.030027 0.137252 0.091925)
(-0.00755838 0.0989734 0.0349587)
(-0.00124565 0.0821214 0.0201025)
(0.0124766 0.0779986 0.000153897)
(-0.0235407 0.0975986 0.0826334)
(-0.00481686 0.0843711 0.0285605)
(-0.0011737 0.0746901 0.0174823)
(0.013959 0.0742535 -0.0068671)
(-0.0155378 0.128785 0.0854575)
(-0.00146502 0.0946716 0.033741)
(0.00242187 0.0802303 0.0221847)
(0.0137178 0.0776019 0.00575023)
(-0.0104983 0.0982087 0.0911137)
(-0.000339296 0.0844573 0.0323749)
(0.000342043 0.0758588 0.022544)
(0.0135649 0.074308 -0.00669944)
(-0.045683 0.116348 0.0666956)
(-0.0128725 0.090096 0.0262526)
(-0.00738529 0.0766263 0.0175131)
(0.0155403 0.0724249 0.00182311)
(0.00136601 0.0358502 0.0797524)
(0.00123904 0.0646146 0.0239924)
(0.000934641 0.0591285 0.01309)
(0.00253265 0.0184848 -0.00961139)
(0.00525002 -0.0353161 0.03144)
(0.00235221 0.0540219 0.00852941)
(0.00142102 0.051287 0.00399331)
(0.00154919 0.0177469 -0.00229619)
(0.000584903 0.0427244 0.0786719)
(0.00238582 0.067173 0.0243537)
(0.00180391 0.0602005 0.0135277)
(0.00667613 0.0195431 -0.00859677)
(0.0127178 -0.0247281 0.0320079)
(0.00606761 0.0570325 0.00898993)
(0.00354875 0.0521693 0.00444447)
(0.00410693 0.0180557 -0.00174157)
(-0.00424911 0.0537276 0.0737826)
(0.00168413 0.070998 0.0237613)
(0.0019256 0.0612299 0.0141484)
(0.0104501 0.0194521 -0.00670415)
(0.016867 -0.00842421 0.0307773)
(0.00868604 0.0618314 0.00909179)
(0.00531897 0.0532544 0.0050005)
(0.00630294 0.0181419 -0.000938242)
(-0.00583156 0.0687649 0.0621211)
(0.00216212 0.0756715 0.0204056)
(0.00243836 0.0626876 0.0136345)
(0.0138573 0.0206958 -0.00460716)
(0.0168701 0.0100441 0.0271119)
(0.0101484 0.0676399 0.00806766)
(0.00606792 0.0550045 0.00537711)
(0.00747327 0.0187976 0.000100735)
(-0.0151261 0.0894694 0.0544923)
(0.00026155 0.0818838 0.0191078)
(-0.000465595 0.0653594 0.0133493)
(0.0135503 0.0231439 -0.00176616)
(0.00827983 0.0275435 0.0243816)
(0.00903631 0.0729972 0.00818912)
(0.0047509 0.0567158 0.00609309)
(0.00695304 0.0193352 0.00159215)
(-0.0472423 0.103225 0.0429198)
(-0.00573931 0.0890975 0.0185883)
(-0.00464596 0.0670882 0.0111844)
(0.0128836 0.0215748 0.000700274)
(-0.0144897 0.0223225 0.0223917)
(0.00292841 0.0787854 0.0114291)
(0.00160936 0.0603248 0.00712537)
(0.00510623 0.0201341 0.003802)
(-0.0315523 0.101461 0.0457503)
(-0.00180778 0.085924 0.0168664)
(-0.00289575 0.0655641 0.0112216)
(0.0130582 0.0216848 -0.00052321)
(-0.00580324 0.0251391 0.0221772)
(0.00605014 0.076607 0.00916885)
(0.00311148 0.0583702 0.00643149)
(0.00609861 0.0196099 0.00281536)
(-0.0605298 0.102105 0.0381374)
(-0.0111954 0.0914463 0.019977)
(-0.00713656 0.0686694 0.0121295)
(0.0138733 0.0203032 0.00297957)
(-0.0203432 0.0173781 0.0227554)
(-0.000426391 0.0808255 0.013564)
(2.44728e-05 0.0619073 0.00835124)
(0.00456908 0.0201922 0.0052133)
(-0.0699194 0.101517 0.029736)
(-0.0171149 0.0945584 0.0193212)
(-0.0100831 0.0715589 0.0130476)
(0.0137199 0.020984 0.00785314)
(-0.0259358 0.0238507 0.0211057)
(-0.00469161 0.0840075 0.0146566)
(-0.00199651 0.0641141 0.00992996)
(0.0038599 0.0207809 0.00741095)
(0.00136968 0.0803404 0.000616302)
(0.00065597 0.0622072 0.00048366)
(0.000350135 0.0437236 0.000317624)
(0.000209336 0.0258344 0.000207839)
(0.000153036 0.0085348 0.000157078)
(0.00186787 0.0805144 0.000355449)
(0.000992687 0.0622735 0.000250214)
(0.00055577 0.0437746 0.000161585)
(0.000340149 0.0258634 0.000106168)
(0.00025062 0.00854392 8.0843e-05)
(0.00293434 0.0817733 0.00148421)
(0.00139509 0.0627171 0.00101109)
(0.000741313 0.0439583 0.000630849)
(0.000444541 0.0259411 0.000405741)
(0.000327543 0.0085656 0.000304515)
(0.00492508 0.0817148 0.00157333)
(0.00270079 0.0628665 0.000992894)
(0.00153715 0.0440741 0.000599438)
(0.000952158 0.0260045 0.000380979)
(0.000706092 0.00858543 0.000284915)
(0.00417108 0.0826502 0.00352907)
(0.00200796 0.0632702 0.00230662)
(0.00108632 0.0442195 0.00141168)
(0.000659787 0.0260599 0.0009055)
(0.000489463 0.00859993 0.000680159)
(0.00707236 0.0820974 0.00700419)
(0.0038387 0.0637011 0.00426904)
(0.00220577 0.0445254 0.00257183)
(0.00137824 0.0262234 0.00163823)
(0.00102667 0.00865083 0.00122624)
(0.00239775 0.084901 0.00720351)
(0.00126153 0.0648338 0.00450116)
(0.000726305 0.0451646 0.00274655)
(0.000455997 0.0265474 0.00176021)
(0.000340338 0.00874971 0.00132244)
(0.00136234 0.0864328 0.00782725)
(0.000687266 0.0659018 0.00474165)
(0.000385566 0.0458082 0.00286059)
(0.000240236 0.0268794 0.00182645)
(0.00017854 0.00885156 0.00137218)
(0.00368636 0.0848855 0.00468296)
(0.00167118 0.0644033 0.0030853)
(0.000908619 0.0448112 0.00190919)
(0.000556906 0.0263495 0.00122925)
(0.000411804 0.00868729 0.000920906)
(0.00086137 0.0872895 0.00369339)
(0.000251084 0.0647548 0.00242648)
(0.000107403 0.0448736 0.00150397)
(5.84946e-05 0.0263624 0.000971746)
(4.13456e-05 0.00868939 0.000729307)
(0.0054094 0.0834136 0.00486381)
(0.00274948 0.0638682 0.00308203)
(0.00155363 0.0444949 0.00187486)
(0.000966418 0.0261862 0.00120413)
(0.000719331 0.00863665 0.000903595)
(0.00151568 0.0866895 0.00377444)
(0.000615054 0.0644176 0.00218122)
(0.000320524 0.0446804 0.00130412)
(0.000192399 0.0262633 0.000835566)
(0.000140419 0.00865861 0.000624613)
(0.00132403 0.0859969 0.00524531)
(0.000363012 0.0650366 0.00361033)
(0.000144478 0.0451953 0.00225884)
(7.65451e-05 0.0265495 0.00146016)
(5.38335e-05 0.0087491 0.00109853)
(0.000895475 0.0883149 0.00508354)
(0.00028089 0.0653781 0.00333917)
(0.000128353 0.045246 0.00206724)
(7.36949e-05 0.0265559 0.00133376)
(5.34479e-05 0.00874929 0.00100251)
(0.00127226 0.0870252 0.00697842)
(0.000332032 0.0661534 0.00433043)
(0.000125888 0.0458926 0.00262516)
(6.55046e-05 0.0269118 0.00167839)
(4.4592e-05 0.00886063 0.00126061)
(0.000652254 0.0895209 0.00670045)
(9.97735e-05 0.0664617 0.00417566)
(1.5922e-05 0.0459242 0.00253539)
(1.57144e-06 0.0269101 0.0016216)
(-1.52482e-06 0.00885887 0.0012164)
(0.00111487 0.0802386 0.000259816)
(0.000495291 0.0621652 0.000383057)
(0.000253041 0.0436719 0.000263702)
(0.000147064 0.0258033 0.000174039)
(0.00010617 0.00852487 0.00013197)
(0.0010346 0.0814918 -9.9136e-06)
(0.000465623 0.0622132 0.000143122)
(0.000239283 0.0436457 0.000103675)
(0.000139225 0.0257849 6.98149e-05)
(0.00010053 0.00851896 5.38081e-05)
(0.00256134 0.0812006 0.000775483)
(0.00112233 0.0625767 0.000672435)
(0.000575188 0.0438516 0.000434965)
(0.000335928 0.0258818 0.000283131)
(0.000244081 0.00854705 0.000214445)
(0.0024021 0.0823713 0.00010044)
(0.001057 0.062583 0.000209566)
(0.000545188 0.0438041 0.000143424)
(0.000318577 0.0258535 9.51249e-05)
(0.000230465 0.00853829 7.3368e-05)
(0.00333808 0.0826661 0.00130104)
(0.00137264 0.0631296 0.00103553)
(0.000697752 0.0440855 0.000655279)
(0.000406482 0.0259843 0.000426311)
(0.000295645 0.008576 0.000324213)
(0.00289064 0.084194 0.000751704)
(0.00129862 0.0631139 0.000542643)
(0.000685709 0.0440217 0.000328493)
(0.000404809 0.025948 0.000208405)
(0.000296103 0.00856491 0.000158367)
(0.00389266 0.0848412 0.00407197)
(0.00194454 0.0637381 0.00254691)
(0.00108983 0.0443445 0.00153186)
(0.000672625 0.0261008 0.000985426)
(0.000500788 0.00860932 0.000744299)
(0.00192019 0.0860426 0.0020316)
(0.000948792 0.0636142 0.00126623)
(0.000521113 0.0442534 0.000753095)
(0.000313548 0.0260539 0.000482129)
(0.000232845 0.00859475 0.000364994)
(0.00224312 0.0861776 0.0051936)
(0.00117141 0.0641242 0.002806)
(0.000670002 0.0445274 0.00163349)
(0.000419381 0.0261872 0.00103587)
(0.000312867 0.00863496 0.000774637)
(-0.0203713 0.33339 0.0953796)
(-0.0244705 0.515266 0.165472)
(-0.0560817 0.351867 0.0897914)
(-0.0694431 0.530263 0.160471)
(-0.0857552 0.382574 0.0834023)
(-0.110983 0.554773 0.149188)
(-0.104293 0.419263 0.0811179)
(-0.146966 0.597225 0.143312)
(-0.104427 0.460178 0.0888696)
(-0.146967 0.66992 0.164254)
(-0.0942101 0.426484 0.0517636)
(-0.123951 0.526389 0.0765042)
(-0.0881944 0.437392 0.0723858)
(-0.10608 0.563137 0.114965)
(-0.106117 0.424618 0.0340252)
(-0.143377 0.520449 0.0456716)
(-0.109476 0.419805 0.0130499)
(-0.149271 0.519237 0.0181402)
(-0.0194757 0.267246 0.282199)
(-0.00425821 0.0478109 0.0678825)
(-0.000925421 0.0105072 0.01555)
(-0.000196068 0.00235906 0.00344037)
(-4.7526e-05 0.000415477 0.000860356)
(-0.0084433 0.317941 0.0751209)
(-0.00301241 0.0877422 0.0198998)
(-0.000335529 0.0213457 0.00532428)
(-9.43578e-05 0.00483701 0.00119115)
(-3.74465e-05 0.000844495 0.000265076)
(-0.062887 0.273791 0.280272)
(-0.0138512 0.0472408 0.0664757)
(-0.00302783 0.0101892 0.0151142)
(-0.000646441 0.00226657 0.00331927)
(-0.000157838 0.0003969 0.000826209)
(-0.0219322 0.324851 0.0776013)
(-0.00466922 0.0883299 0.022576)
(-0.000946049 0.02121 0.00554403)
(-0.000184372 0.0047436 0.00128383)
(-3.94537e-05 0.000825233 0.000321072)
(-0.110845 0.285726 0.270831)
(-0.0245566 0.04746 0.0631251)
(-0.00539931 0.00997999 0.0141948)
(-0.0011632 0.00219049 0.00309291)
(-0.000286508 0.000380973 0.000765449)
(-0.0382802 0.33817 0.0753352)
(-0.00906199 0.0899455 0.0218479)
(-0.00199556 0.0212046 0.00532424)
(-0.000433549 0.00468576 0.00122037)
(-0.000104463 0.000809298 0.000302301)
(-0.159189 0.300184 0.254617)
(-0.0354651 0.0475138 0.0581689)
(-0.00787411 0.00973946 0.0129583)
(-0.00171585 0.00211665 0.00281227)
(-0.000427899 0.000367016 0.000695336)
(-0.0536659 0.355333 0.0725331)
(-0.0138542 0.0919912 0.0205638)
(-0.00326201 0.0213499 0.00491065)
(-0.000745581 0.00468296 0.00110741)
(-0.000188499 0.000806355 0.000270433)
(-0.222291 0.312458 0.223831)
(-0.0509403 0.0475145 0.0503425)
(-0.0115519 0.0096747 0.0112007)
(-0.00256347 0.00211303 0.00243971)
(-0.000650398 0.000368647 0.00060718)
(-0.0713752 0.371296 0.067663)
(-0.0208363 0.0937809 0.0183055)
(-0.00520339 0.0217301 0.00427168)
(-0.00122892 0.00479129 0.000951158)
(-0.000319148 0.000829643 0.000230124)
(-0.300423 0.305017 0.12612)
(-0.0751466 0.0551048 0.0302711)
(-0.0179887 0.0124462 0.00697157)
(-0.0041548 0.00288746 0.0015532)
(-0.00108694 0.000521621 0.000393152)
(-0.0826569 0.343637 0.034432)
(-0.0256276 0.097791 0.00874444)
(-0.00661461 0.024461 0.00189836)
(-0.00159136 0.00570161 0.000391235)
(-0.000420301 0.00102466 8.90736e-05)
(-0.273398 0.309648 0.175807)
(-0.0662714 0.0521277 0.0410216)
(-0.015482 0.0112205 0.0092807)
(-0.00350647 0.00252421 0.00204251)
(-0.000903174 0.000447656 0.000512906)
(-0.0801119 0.355483 0.048075)
(-0.025057 0.0964349 0.0125706)
(-0.0064562 0.0232093 0.00287195)
(-0.00154947 0.00524942 0.000631595)
(-0.000405745 0.00092451 0.00015199)
(-0.313335 0.302665 0.0791118)
(-0.0794433 0.0570851 0.019474)
(-0.0192551 0.0132645 0.0045494)
(-0.00449661 0.00314003 0.00102335)
(-0.00118669 0.000574723 0.000260471)
(-0.0843437 0.340219 0.0219885)
(-0.0254317 0.0986804 0.00571025)
(-0.00646409 0.0252103 0.00121803)
(-0.00153782 0.00599048 0.000238677)
(-0.000404984 0.0010922 5.173e-05)
(-0.322924 0.300965 0.0290369)
(-0.0816433 0.0563205 0.00723098)
(-0.0198763 0.0131444 0.00170214)
(-0.00466767 0.0031371 0.000385454)
(-0.00123823 0.000577999 9.86237e-05)
(-0.0842694 0.338264 0.0106636)
(-0.0254866 0.0979912 0.00251101)
(-0.00647373 0.0252087 0.000502322)
(-0.00142978 0.00603725 0.000136144)
(-0.000399203 0.00110682 1.9282e-05)
(-0.010187 1.40983 -0.0488603)
(-0.25907 1.95999 0.0252115)
(-0.254682 1.75518 0.165784)
(-0.144352 1.32654 -0.141423)
(0.146578 0.74285 0.0387884)
(0.201675 0.779478 0.0413707)
(0.406608 1.18356 0.103634)
(0.534456 1.18601 0.126388)
(0.230408 0.797629 0.0854808)
(0.465774 0.850994 0.138042)
(0.0899992 1.27043 0.113924)
(0.282044 1.69003 0.172155)
(0.228301 1.87642 0.108579)
(0.378752 2.54453 0.141873)
(0.415409 0.957165 0.0519278)
(0.572775 1.05034 0.0757324)
(0.500985 0.774461 0.0566727)
(0.569739 0.754535 0.0659927)
(0.286114 0.537233 0.0396177)
(0.323641 0.551953 0.0410492)
(-0.754595 0.166519 0.114622)
(-0.564959 0.119131 0.0905959)
(-0.179917 0.0338042 -0.0150224)
(-0.140953 0.0268931 -0.0374217)