/*--------------------------------*- C++ -*----------------------------------*\
| =========                 |                                                 |
| \\      /  F ield         | OpenFOAM: The Open Source CFD Toolbox           |
|  \\    /   O peration     | Version:  2412                                  |
|   \\  /    A nd           | Website:  www.openfoam.com                      |
|    \\/     M anipulation  |                                                 |
\*---------------------------------------------------------------------------*/
FoamFile
{
    version     2.0;
    format      ascii;
    arch        "LSB;label=32;scalar=64";
    class       volScalarField;
    location    "2.4";
    object      gradTz;
}
// * * * * * * * * * * * * * * * * * * * * * * * * * * * * * * * * * * * * * //

dimensions      [0 -1 0 1 0 0 0];

internalField   nonuniform List<scalar> 
5712
(
7197.54
21874.7
5457.14
23938.1
2991.7
25370.4
5109.81
40225
8354.16
50520.8
8557.67
35818.4
9130.27
31822.4
8996.13
27327.9
4230.89
2290.11
12751.2
6007.03
3947.58
1809.52
13759
5532.25
5499.88
4042.99
16241.8
11845.9
3686.21
2890.29
16338.5
12341.7
8276.15
3005.14
6254.92
2262.14
2850.75
7663.54
39311.5
12016.6
11791.5
5453.99
47762.4
14979.5
11017
5184.85
25999.7
8669.23
13245.7
6040.54
21138.9
6724.02
4843.85
2628.19
8602.39
3473.79
4295.58
2722.22
9034.56
3402.21
5768.31
3666.75
5663.55
2370.67
10112.2
3647.36
3982.72
1469.58
12339.4
9270.74
7492.33
6710.34
13851.6
12132.9
7516.29
8017.33
6928.69
5933.77
9009.64
7697.03
5585.48
4799.84
3248.64
2789.14
5580.44
5565.86
3197.5
3200.08
5339.67
4178.96
3124.1
2199.39
5939.43
3341.27
5951.82
6579.53
7874.02
5998.45
8501.58
11238.5
4347.72
1858.46
3828.73
3959.22
2465.62
860.392
1757.07
1520.44
5512.39
11178.7
4031.97
12657.2
5959.89
11330.7
4808.34
13482.4
7876.22
11267.1
6677.09
13738.9
8794.97
10626.5
6734.04
6752.13
8282.67
7008.28
7675.86
10552.7
12299.4
18056.4
9467.64
7604.64
7224.71
9161.73
14625.3
13946.7
13513.2
16307.9
16431.3
13621
13654
16365.9
16298
12575.7
13067
15706.7
15876.3
8827.32
9373.48
8578.91
9063.33
10409.6
10420.1
12165.3
11843.5
15353.1
15539
8057.78
8843.81
9079.58
9682.67
10114.3
10911
11641.7
12767.7
15321
16648.2
9417.84
6424.63
7626.16
7703.85
10581.3
12068.6
8605.61
11407.1
6982.45
7114.76
8877.79
6368.54
3209
5562.95
1313.73
2071.32
5329.33
8460.83
2091.21
3170.54
2682.07
4868.3
999.916
1772.36
6632.88
5668.7
6772.11
4234.41
9334.82
6655.08
10611.3
7081.12
3088.49
3613.88
3852.17
2185.92
2388.06
2611.13
2664.1
2022.95
11731
7715.39
2519.34
12707.6
7987.43
2759.71
11557.2
7546.27
2561.65
12697.7
7966.39
2696.69
11048.7
7103.87
2379.49
12489.8
7847.04
2696.63
6692.81
3809.06
987.927
7904.42
5393.99
1752.33
9056.62
6379.82
2151.18
10005.3
6507.48
2130.5
12102
7598.42
2686.75
7395.72
4046.52
1322.54
7107.07
4591.18
1590.74
7970.91
5248.13
1791.37
9465.55
6071.73
2070.93
11477.3
6682.55
2310.78
-493.702
990.492
447.817
2639.59
1765.35
1788.58
4555.64
3996.26
600.87
974.968
636.775
1022.87
338.637
944.485
626.366
1384.9
1896.77
1135.64
3824.29
2704.24
1753.1
2885.63
2926.62
841.167
5844.68
1862.17
-4094.68
-577.82
690.205
720.618
45.919
208.477
10337.7
4577.77
2746
1642.89
10186.6
4646.58
2995.68
1942.47
9866.51
5101.07
4046.3
2897.72
3102.12
2044.87
1754.25
1594.11
13100.2
11458
5747.6
7345.75
14625
13660.6
7121.33
8543.71
5256.76
6343.09
11166.1
9227.46
3663.17
4796.37
2119.31
2795.48
4765.09
5570.69
2758.86
3196.92
2998.98
4187.86
1693.82
2552.07
4711.4
3389.5
5355.34
3658.17
8084.12
4891.98
7200.26
4810.62
2811.97
2319.11
3718.68
2513.09
1590.76
1466.57
2355.19
1551.5
12099.3
8165.19
5995.06
6310.6
11996.2
8128.6
5934.4
6191.98
12128.9
7788.44
6054.79
5757.24
13207.2
12712.3
12369.1
9561.12
5594.72
7748.44
9381.23
9969.17
9411.35
6698.43
11000.8
9900.88
8251.13
6722.01
4463.62
7083.11
7108.12
7164.16
8771.45
7032.64
6858.74
6992.01
8568.14
6672.62
6438.69
6631.74
8178.79
8709.27
8235.82
8159.19
7034.91
6156.51
6195.68
6000.71
6301.48
5790.28
7693.05
6383.49
7236.87
5368.45
6116.35
4820.52
5530.04
4780.35
5771.08
4415.37
7059.75
4734.36
3796.68
3239.37
1717.25
7239.75
5504.44
5850.29
3686.82
2493.63
1431.75
3692.4
3337.94
4228.02
1829.87
1975.37
1086.55
5478.44
3126.2
2257.95
1554.96
3453.39
1477.55
1763.02
886.332
2143.33
2574.76
2687.36
4555.98
3232.07
3961.55
3251.86
5930.51
2557.3
1880.53
1966.3
3255.94
1165.66
473.269
446.024
835.211
5640.4
2587
744.015
6108.2
1628.02
429.723
5470.68
2683.32
836.765
6055.49
1672.4
462.522
4956.06
2447.41
631
5749.43
1544.89
348.655
5562.12
3033.11
796.554
4708.64
2522.14
700.937
4649.02
2331.83
663.949
4616.08
2183.88
505.447
5439.07
1359.53
230.481
6176.92
3243.47
1002.24
5357.25
2918.91
960.569
4872.91
2555.11
838.605
4723.99
1935.37
522.949
5644.39
1399.24
444.383
1782.19
685.819
327.466
11.3057
722.522
293.683
152.288
30.1321
1844.02
735.755
390.054
75.5065
876.562
395.568
254.562
119.123
2118.5
880.825
510.351
159.55
1513.58
782.925
447.187
208.353
1122.49
703.334
345.625
113.821
1172.9
802.442
472.752
264.563
1777.42
848.03
442.914
47.202
1696.58
782.832
460.415
-38.5017
2233.61
942.65
553.036
123.63
2007.34
832.787
510.66
-65.9177
1352.72
742.726
389.926
52.0542
1322.12
692.979
424.847
69.4514
1009.75
648.131
411.203
239.3
923.654
580.747
400.829
230.316
2285.82
836.505
400.233
-80.3174
2399.96
815.906
441.085
-255.622
2280.23
849.058
434.516
-48.0033
2304.52
787.894
440.003
-237.554
2298.12
873.968
502.563
3.84742
2065.84
714.014
437.057
-171.677
2136.44
843.525
554.619
143.756
2277.84
809.371
563.601
-167.486
1667.39
656.316
437.828
45.5777
1993.81
599.811
327.249
-240.285
786.001
213.235
99.8328
-57.4048
1966.8
608.843
338.192
-214.919
800.197
224.748
111.112
-43.5393
1844.56
594.033
353.711
-167.604
769.433
227.295
125.013
-23.456
1553.03
510.14
340.863
-115.179
677.799
201.691
134.428
2.51838
1362.31
477.695
333.733
-44.1541
609.541
204.728
152.327
39.8036
1073
464.707
279.611
17.5069
559.794
285.728
178.134
95.0499
1143.76
421.661
280.541
-13.0802
554.429
229.221
160.787
70.384
953.436
499.426
303.236
74.4894
568.884
339.101
208.781
130.333
743.401
483.03
326.189
196.329
527.643
366.414
248.249
185.274
15.4076
12.0915
7.94061
5.19597
3.92696
8.88623
6.25536
4.03963
2.6542
2.02107
37.1053
25.2773
15.7712
10.1435
7.61287
39.3334
24.8224
14.9859
9.52446
7.12287
88.2267
57.6654
35.2919
22.6375
17.004
175.105
106.726
64.2958
40.9558
30.6559
180.088
112.529
68.6637
44.0051
33.061
195.681
118.541
71.5149
45.6613
34.3046
117.074
77.1325
47.7296
30.7313
23.0226
92.3347
60.662
37.5994
24.2937
18.2327
121.595
77.0508
46.8715
30.1032
22.5899
94.3609
54.5305
32.6029
20.8892
15.6153
131.133
90.2582
56.471
36.504
27.4631
127.089
83.4793
51.6809
33.344
25.0626
174.46
108.261
65.629
41.9598
31.5152
167.511
104.392
63.3847
40.54
30.41
6.4954
9.57643
6.59256
4.35098
3.29925
-0.24784
3.57805
2.59187
1.74537
1.3452
19.3871
16.8109
10.8741
7.07827
5.36112
2.511
5.23916
3.58559
2.37812
1.8342
32.526
25.8883
16.382
10.6578
8.10532
18.7926
13.5661
8.21234
5.21013
3.95916
101.799
63.6729
38.2966
24.6357
18.6075
50.7899
31.6558
18.8274
12.0532
9.12486
129.84
70.15
40.8372
25.8967
19.3659
2384.49
4136.79
2244.79
4011.78
2085.06
3729.7
2027.95
3582.8
2221.74
4106.35
1294.09
1912.6
1809.65
2874.12
850.631
1141.79
326.248
453.505
7054.99
1697.06
388.749
86.0092
21.5089
1878.02
497.496
133.107
29.7788
6.6269
7006.8
1661.89
377.855
82.9818
20.6552
1940.03
564.399
138.601
32.0957
8.0268
6770.76
1578.13
354.87
77.3228
19.1362
1883.38
546.197
133.106
30.5094
7.55752
6365.41
1454.22
323.957
70.3066
17.3834
1813.33
514.094
122.766
27.6852
6.76083
5595.78
1258.56
280.018
60.9928
15.1795
1691.58
457.638
106.792
23.779
5.75309
3153
756.778
174.289
38.8301
9.8288
860.801
218.611
47.4589
9.78087
2.22684
4395.18
1025.54
232.018
51.0628
12.8226
1201.88
314.265
71.7986
15.7899
3.79975
1977.79
486.849
113.735
25.5838
6.51178
549.712
142.756
30.4509
5.96694
1.29325
725.923
180.774
42.5535
9.63635
2.46559
266.589
62.7752
12.558
3.40361
0.482051
-1221.51
630.288
4144.61
-3535.58
969.711
1034.27
2590.86
3159.7
2137.02
3451.06
2848.11
4303.88
2714.46
3546.83
1298.2
1893.31
1416.82
1649.82
990.444
1026.23
2865.55
2264.9
-375.56
-935.543
-1016.4
-1358.99
-722.399
11885.7
3075.35
4025.82
3281.39
340.644
-59.5603
3289.17
-1024.13
-462.264
-851.498
-295.064
5870.38
3009.88
1332.81
742.188
3281.8
1497.01
206.889
373.226
-1149.41
-1141.66
843.359
716.705
9278.73
4586.23
4477.94
2584.8
3434.62
3156.19
-44.0081
-1118.73
275.871
2021.97
1802.82
1603.4
1520.85
1184.33
1824.84
1490.99
1224.54
916.456
368.449
-337.282
-280.946
-206.378
-123.511
-40.7473
-835.877
-699.04
-524.49
-324.562
-109.798
-908.16
-759.113
-568.538
-350.92
-118.556
-1215.49
-1017.55
-763.718
-472.435
-159.812
-639.064
-526.972
-387.978
-235.552
-78.8619
8919.58
8308.05
7232.31
6929.82
6628.17
2906.05
2421.34
2249.08
1935.67
901.358
3316.42
2686.47
2299.33
1863.15
884.546
2564.17
2042.67
1718.64
1314.9
508
293.556
211.486
229.843
191.794
103.441
19.1885
83.9656
116.395
103.264
41.3889
2748.81
2221.22
1751.2
1232.21
474.584
-652.267
-350.46
-179.003
-81.6339
-26.3646
-370.977
-265.487
-161.162
-77.0228
-20.6993
-620.806
-404.294
-239.012
-122.192
-37.8564
-274.803
-233.54
-170.563
-99.523
-31.6356
4096.53
4085.85
3622.46
3656.1
3765.58
2506.51
1997.24
1695.63
1323.41
533.414
1232.12
1090.17
905.079
634.554
234.276
658.582
562.277
457.314
317.473
116.372
2758.94
2215.65
1706.16
1147.81
421.176
1348.18
1141.85
899.703
590.821
195.96
179.168
152.496
129.272
94.4306
34.7315
341.035
298.654
244.502
166.805
59.1083
-998.239
-807.427
-585.575
-352.312
-117.365
-1006.29
-826.354
-605.949
-366.524
-122.318
751.023
638.404
504.578
336.348
120.417
637.287
540.939
427.783
285.141
101.6
6182.73
5054.78
4549.7
4493
3832.98
3609.62
2885.52
2344.9
1761.89
743.321
3587.69
3075.21
2632.97
2205.06
954.895
2074.36
1726.87
1405.19
1036.43
471.516
2957.14
2423.31
1870.03
1235.96
438.077
2656.36
1929.49
1606.58
1206.53
228.078
-33.6655
-16.1356
8.42653
21.2486
9.74146
-993.633
-822.949
-608.153
-369.962
-123.868
262.153
240.407
213.121
156.357
55.31
-28337.9
-44395.1
-21431.4
-37744.4
-22832.7
-53115
-30050.2
-64570.5
-16012.5
-10712.6
-17817.2
-9557.12
-14961.3
-9812.73
-17974.3
-8514.93
-23279.1
-16341.1
-32302.8
-23265.8
-18315.4
-13388.1
-27824.2
-20819
-14076.5
-14268.8
-9834.03
-9449.22
-11923.6
-12648.5
-42519.1
-13071
-13557.6
-6452.03
-50067.4
-15892.8
-12312.2
-5920.6
-29706.6
-9793.22
-15070.4
-7034.51
-24923.2
-7609.17
-11145.3
-4737.31
-15298.3
-5749.58
-9694.65
-4329.88
-14156.2
-5046.82
-10096
-4870.79
-8647.34
-3300.29
-12262.3
-4355.01
-4808.23
-1780
-10049.7
-7217.74
-8207.35
-6102.34
-8735.53
-7442.44
-7306.57
-6397.67
-8193.22
-5973.09
-9453.79
-7406.86
-6167.39
-4517.13
-3665.66
-2595.24
-5586.16
-4692.87
-3202.88
-2561.65
-6216.94
-4259.99
-3731.68
-2274.88
-7309.19
-3868.68
-6228.38
-6712.4
-9481.22
-6653.85
-8830.85
-11400.6
-5216.56
-2190.24
-4029.18
-4053.97
-3045.65
-1088.37
-1914.63
-1593.02
-9768.35
-12442.6
-5583.39
-14019.6
-9680.26
-12140.6
-6098.19
-14502.7
-10717.5
-11732.9
-7582.05
-14212.7
-5977.69
-3680.84
-7663.22
-8896.02
-9135.11
-5507.81
-7620.56
-11417
-13045.5
-18465.1
-4935.56
-5617.69
-6843.16
-9320.93
-14777.4
-13152.2
-10836.5
-16297.2
-13518.3
-12775.1
-11128.3
-16314.9
-13628
-11683.7
-10348.8
-15425.6
-13542.5
-8122.6
-7623.98
-8063.12
-7287.32
-9250.24
-8222.15
-10623.3
-9395.5
-14816
-13596.3
-6712
-7363.04
-7446.24
-7261.86
-8511.82
-8266.12
-10319.5
-10232.5
-14784
-14527.6
-7912.53
-5390.08
-6631.37
-6784.97
-8310.49
-10478.1
-6995.17
-9924.49
-6486.24
-6559.04
-8051.81
-5680.72
-2524.38
-4856.99
-712.404
-1478.66
-4141.63
-7360.73
-1099.94
-2268.85
-2347.96
-4447.26
-686.753
-1409.53
-6438.59
-5379.85
-6717.96
-4111
-8937.17
-6206.64
-10473.3
-6771.87
-2956.55
-3400.94
-3800.62
-2094.82
-2242.29
-2409.35
-2595.87
-1921.93
-7902.52
-3053.83
-8411.15
-2927.39
-8093.29
-3031.7
-8826.37
-3252.06
-7743.58
-2854.18
-9558.49
-3778.68
-4282.32
-1006.63
-5082.23
-1821.68
-5872.01
-2290.04
-7108.21
-2695.61
-9524.23
-3693.43
-5229.82
-845.439
-4471.68
-1496.64
-5136.41
-1891.36
-6677.89
-2476.42
-8631.09
-2821.84
-6130.67
-5974.65
-3912.72
-3807.68
-9728.48
-7727.92
-7493.84
-5936.02
-5361.44
-5001.04
-2050.5
-1697.17
-5013.53
-4893.04
-1743.99
-1671.1
-2401.13
-5688.41
-3651.62
-6876.3
-4729.91
-1955.79
-3026.02
-635.508
-6484.24
-2187.47
4099.25
1326.67
-137.398
65.4913
1116.96
1315.29
-2668.85
-1494.09
-1052.05
-438.069
-2655.79
-1643.14
-1132.73
-412.599
-2911.61
-1971.4
-1210.2
-241.342
-980.647
354.624
396.104
1062.68
-5032.42
-4965.85
-3683.49
-4221.84
-7208.47
-6965.49
-5855.69
-5877.67
-2509.96
-3233.22
-4104.83
-3948.93
-2474.3
-2829.96
-1150.37
-1210.85
-4141.48
-4042.72
-2286.35
-2036.84
-1257.11
-2012.53
-242.446
-692.201
-1629.55
-1015.23
-2615.93
-1585.72
-2784.02
-2129.85
-3261.87
-2446.11
-641.959
-202.346
-1582.6
-636.978
274.86
561.766
-408.059
256.734
-3048.19
-3151.59
-2628.19
-4222.02
-3138.08
-3303.9
-2771.62
-4328.02
-3705.66
-3427.62
-3146.08
-4240.47
-2174.59
-2578.47
-2815.95
-2808.94
-2668.66
-4324.05
-3495.49
-3375.77
-4246.98
-4672
-4416.11
-3407.71
-2963.44
-2830.73
-2279.75
-4252.8
-5431.24
-7336.62
-12699.7
-4055.77
-4600.62
-6894.57
-11809.2
-4092.44
-5001.31
-6329.24
-10568.3
-7469.82
-6458.5
-6056.79
-5339.31
-4342.14
-4821.81
-4675.63
-5708.4
-5445
-9464.46
-5059.91
-5886.9
-3728.7
-4826.75
-3155.7
-4418.17
-3466.09
-5160.31
-3304.65
-7550.29
-2302.9
-2460.77
-1225.59
-264.231
-4650.75
-4111.8
-3866.8
-2225.18
-624.053
-93.5753
-1641.71
-2176.15
-2516.36
-601.216
-459.801
17.6729
-3885.85
-1900
-924.315
-482.064
-1794.83
-349.32
-206.075
165.025
-617.628
-1591.9
-1582.91
-4114.67
-1685.37
-3219.03
-2326.03
-5953.46
-1107.14
-955.627
-684.039
-2573.11
310.447
482.753
892.663
-22.8182
-4573.45
-1501.04
-9343.97
-1328.3
-3940.29
-1625.84
-8825.98
-1317.41
-3518.07
-1046.8
-7346.29
-698.051
-3496.62
-757.486
-3099.96
-736.927
-3575.77
-1076.83
-3463.99
-578.446
-6588.59
-594.253
-4285.61
-540.32
-3851.24
-580.161
-3932.09
-779.423
-4105.14
-429.403
-6521.27
-671.703
-690.976
-201.387
-66.4937
174.743
-214.42
-51.9283
-21.4722
49.961
-664.361
-162.406
-58.1503
171.514
-88.0791
35.2744
8.4112
59.9125
-717.116
-130.644
-27.7846
252.147
193.786
280.415
324.679
428.25
715.058
537.724
544.471
545.705
1038.15
748.995
606.264
443.082
-289.23
96.285
231.846
492.459
-287.734
141.083
177.355
547.217
-827.762
-125.533
10.8345
408.567
-656.513
-13.0876
25.8061
551.899
204.057
319.246
364.737
510.665
95.6146
295.606
288.676
482.331
616.74
503.696
432.847
379.826
499.284
443.223
359.426
359.939
-1139.2
-341.683
-152.439
304.586
-1561.81
-421.228
-288.539
496.407
-1111.08
-310.131
-153.786
301.204
-1514.22
-398.286
-282.917
478.464
-1105.2
-272.075
-178.63
287.982
-1365.69
-345.007
-275.036
417.823
-756.566
-93.4257
-99.6501
319.748
-1286.47
-261.93
-287.717
525.806
-562.405
-22.6203
-6.39497
473.642
-1546.19
-328.209
-230.858
430.298
-678.395
-120.937
-58.2902
119.827
-1387.78
-278.488
-212.056
413.468
-629.155
-105.581
-54.9288
115.084
-1125.25
-189.486
-191.877
366.283
-523.579
-72.4847
-47.7355
109.019
-874.932
-121.68
-165.942
313.423
-440.605
-53.879
-47.9089
96.6103
-585.974
-34.2992
-84.6957
301.527
-243.626
5.72913
-15.0173
100.053
-213.369
119.096
143.346
375.396
152.07
193.611
161.406
203.124
-497.027
-14.9293
1.80229
316.74
-25.9786
94.4305
63.642
141.477
120.5
274.785
255.009
393.166
277.611
281.773
236.81
242.871
434.545
398.617
307.885
314.317
390.97
341.937
260.093
230.737
52.5205
18.9328
8.91817
5.20473
3.81492
22.612
8.77836
4.25737
2.48757
1.81065
74.2237
31.6275
16.5685
10.0937
7.50998
55.3085
27.176
15.2817
9.54861
7.15626
136.179
63.9402
35.2598
21.7916
16.2546
203.932
110.913
64.0853
40.2689
30.2224
212.706
118.323
68.5385
42.9945
32.1823
208.088
120.604
71.3809
45.1796
33.8781
173.837
86.2119
48.1917
29.9124
22.4324
141.994
67.8793
37.6005
23.2235
17.3879
169.184
81.4366
45.4716
28.1401
21.0324
108.05
54.4652
30.8182
19.1062
14.3427
197.523
101.563
57.3466
35.658
26.6672
175.995
91.5339
52.0085
32.4054
24.287
194.547
111.364
65.6529
41.4875
31.0949
188.367
107.937
63.5327
40.1101
30.0765
56.7039
17.0307
7.55495
4.32765
3.15155
26.3966
6.69886
2.79492
1.54867
1.1013
65.5656
23.351
11.4588
6.81438
5.0043
28.5016
8.19491
3.72971
2.14858
1.53856
81.7848
31.4875
16.2101
9.74877
7.14704
38.0251
15.4293
8.34442
5.16904
3.79965
138.413
63.783
35.394
21.7316
16.092
66.3339
30.6879
17.2298
10.6298
7.84736
119.624
65.3503
37.9437
23.7448
17.7982
-2797.37
-4225.39
-2670.37
-4135.25
-2459.74
-3846.42
-2323.18
-3662.23
-2334.35
-3996.77
-1316.62
-1881
-1856.04
-2815.75
-837.315
-1103.82
-288.193
-404.818
-7798.15
-1849.87
-419.379
-92.0159
-22.8384
-2055.55
-541.873
-143.987
-31.9554
-7.04995
-7653.94
-1795.36
-404.834
-88.301
-21.8392
-2132.03
-615.659
-149.838
-34.4183
-8.54462
-7237
-1677
-375.358
-81.4401
-20.0668
-2062.05
-592.062
-143.066
-32.5547
-8.01284
-6636.62
-1514.99
-337.17
-73.0619
-18.0253
-1950.46
-549.08
-130.43
-29.2698
-7.11689
-5707.45
-1287.42
-286.873
-62.5089
-15.5495
-1767.36
-478.712
-111.637
-24.8122
-5.99158
-3159.16
-760.258
-175.509
-39.1715
-9.92792
-869.651
-223.033
-48.7958
-10.1157
-2.31546
-4426.34
-1036.19
-234.992
-51.7913
-13.0149
-1229.46
-323.862
-74.2467
-16.3448
-3.93507
-1974.49
-487.351
-114.147
-25.7337
-6.56219
-545.951
-143.548
-30.9698
-6.14099
-1.34854
-718.952
-180.064
-42.6093
-9.69637
-2.49215
-255.487
-61.476
-12.5759
-3.47489
-0.515376
748.548
-1463.64
-5321.87
1847.71
-6550.04
-2872.67
-6418.29
-2906
-10854.4
-5905.35
-12723.2
-6951.1
-124.857
-506.962
-786.452
-907.157
-797.55
-431.244
-198.78
-769.443
-1168.29
-1291.64
-1052.29
-393.577
-98.6621
-96.6024
-369.216
-346.522
-475.357
-457.783
-335.237
-343.335
-217.893
-254.008
-373.179
-282.354
479.6
1763.48
3432.38
2737.1
2487.47
1205.49
748.752
2248.51
3730.67
4125.39
3513.59
1619.82
-112.609
-95.2056
-72.1566
-44.9705
-15.271
-457.879
-387.809
-294.484
-183.821
-62.4757
-710.236
-601.47
-456.683
-285.057
-96.8843
-818.891
-693.142
-526.037
-328.231
-111.537
-719.535
-608.575
-461.44
-287.687
-97.7098
-389.462
-329.388
-249.256
-154.882
-52.4618
-179.2
-151.425
-114.714
-71.4737
-24.2683
-694.642
-588.047
-446.346
-278.544
-94.66
-1054.49
-892.483
-677.338
-422.691
-143.653
-1165.11
-985.496
-747.575
-466.416
-158.504
-948.47
-801.594
-607.681
-379.008
-128.787
-355.345
-300.633
-227.824
-141.87
-48.1373
-89.0389
-75.338
-57.1439
-35.6349
-12.1039
-87.2326
-73.8614
-56.0644
-34.9822
-11.8863
-333.573
-282.635
-214.696
-134.048
-45.5629
-313.132
-265.371
-201.624
-125.906
-42.7994
-429.41
-363.781
-276.295
-172.489
-58.6256
-413.55
-350.352
-266.103
-166.132
-56.4668
-302.833
-256.537
-194.804
-121.578
-41.3104
-310.002
-262.471
-199.231
-124.32
-42.2424
-196.685
-166.382
-126.054
-78.4673
-26.6139
-228.922
-193.379
-146.429
-91.1874
-30.9486
-335.896
-283.042
-213.472
-132.343
-44.7784
-253.906
-213.828
-161.32
-100.119
-33.9111
427.168
358.182
271.995
171.369
58.7885
1565.17
1308.16
992.021
625.564
214.888
3013.58
2502.85
1906.88
1219.93
424.628
2390.98
2008
1550.95
1013.22
371.491
2185.94
1839.22
1422.05
923.736
324.06
1090.64
933.794
726.212
466.531
159.403
667.989
559.973
423.716
265.43
90.657
2000.96
1674.61
1267.62
795.929
272.493
3302.69
2756.12
2090.4
1320.98
455.223
3638.33
3035.74
2311.24
1471.83
512.557
3095.38
2584.03
1973.78
1262.87
439.994
1440.59
1213.59
933.512
599.072
208.476
291.517
670.071
942.11
1051.89
929.757
572.566
428.18
991.589
1373.17
1465.36
1181.78
479.398
225.592
198.517
487.351
442.209
573.608
538.199
400.172
393.955
267.516
242.035
500.188
312.351
-317.605
-1531.13
-3014.01
-2186.98
-1807.08
-444.791
-685.713
-2145.86
-3490.03
-3692.48
-2876.71
-850.441
263.731
223.834
170.335
106.51
36.2339
605.885
513.873
390.776
244.218
83.06
851.621
722.06
548.931
342.988
116.64
950.612
805.761
612.409
382.588
130.097
840.215
712.134
541.174
338.031
114.931
518.729
440.591
335.104
209.208
71.0713
387.302
328.643
250.052
156.342
53.1851
896.31
759.921
577.715
360.987
122.766
1240.69
1051.42
799.016
499.155
169.74
1323.3
1120.84
851.454
531.833
180.848
1066.67
903.022
685.777
428.32
145.655
433.744
367.965
279.71
174.655
59.3575
204.105
173.241
131.841
82.4402
28.0452
179.608
152.443
116.007
72.5357
24.6748
440.732
373.873
284.359
177.727
60.4457
399.925
339.266
258.042
161.28
54.8522
518.626
439.846
334.46
209.004
71.0753
486.594
412.654
313.763
196.062
66.6736
361.9
307.008
233.487
145.909
49.6155
356.1
301.916
229.51
143.389
48.7558
242.182
205.638
156.453
97.7501
33.2271
218.734
185.401
140.887
87.9891
29.9109
452.521
383.863
291.72
182.083
61.8614
282.226
239.116
181.584
113.326
38.5091
-279.243
-231.141
-174.096
-109.522
-37.6302
-1353.63
-1127.16
-853.179
-538.275
-185.108
-2630.72
-2173.12
-1652.5
-1059.55
-369.823
-1875.11
-1552.05
-1189.01
-778.876
-291.252
-1540.59
-1263.18
-958.599
-617.581
-215.747
-366.134
-283.561
-199.347
-115.372
-34.5059
-610.947
-511.569
-386.906
-242.445
-82.8441
-1908.74
-1597.05
-1209.26
-759.873
-260.323
-3084.1
-2569.65
-1947.91
-1231.79
-424.908
-3239.22
-2689.33
-2041.34
-1299.78
-453.551
-2503.17
-2065.06
-1564.87
-998.942
-348.393
-722.272
-581.01
-432.212
-273.579
-95.0465
-1929.82
-1398.18
774.626
1273.45
1339.65
1856.51
1214.47
-9962.62
-1543.12
-3014.26
-1327.55
681.747
-4049.73
999.73
2417.09
854.565
-4894.4
-1977.92
-515.365
-251.364
-2919.7
-723.797
226.068
188.322
1897.13
1845.55
-456.868
-258.196
-8298.85
-3816.59
-3530.7
-1799.77
-2902.26
-2173.13
713.291
1867.95
355.522
-1038.44
-872.801
-789.499
-914.61
-932.208
-975.306
-711.362
-575.588
-468.435
-203.981
705.394
600.908
456.063
282.934
95.6427
1147.17
969.244
735.119
458.971
156.057
1207.63
1020.72
773.73
482.509
163.986
1672.72
1413.34
1071.49
668.52
227.266
1095.9
926.987
702.545
437.77
148.798
-7232.24
-7010.57
-6408.19
-6734.45
-7266.68
-1075.05
-694.698
-817.147
-958.745
-488.388
-2293.08
-1751.24
-1545.17
-1379.89
-723.425
-899.225
-632.474
-622.865
-581.293
-203.776
604.997
499.958
368.601
223.341
75.4412
-3367.36
-2712.68
-2133.34
-1498.23
-575.35
894.372
748.509
560.356
345.103
116.045
2102.48
1723.78
1298.76
826.123
289.445
771.214
651.009
490.025
302.068
101.299
-3176.27
-3273.6
-3008.9
-3361.61
-3928.11
-1470.42
-1030.26
-899.547
-795.384
-346.262
-411.693
-327.747
-277.632
-217.064
-86.0541
-186.556
-136.045
-114.427
-93.9788
-38.4636
-2443.67
-1956.94
-1521.37
-1044.91
-390.871
-605.652
-469.923
-355.506
-231.573
-68.0293
224.987
203.583
152.092
86.9032
28.1411
186.881
169.417
127.521
74.2686
24.7596
1695.83
1421.91
1072.92
668.949
227.841
1660.05
1399.45
1057.84
658.165
223.513
-383.073
-308.384
-240.041
-163.966
-60.3338
-205.6
-158.006
-123.826
-88.7327
-33.4998
-5266.61
-4250.07
-3919.85
-4138.21
-3831.03
-2882.19
-2235.89
-1824.55
-1424.07
-627.947
-2638.27
-2226.88
-1933.55
-1743.92
-775.972
-1329.83
-1060.71
-871.07
-690.009
-357.208
-2459.78
-1986.1
-1525.85
-1015.32
-360.927
-1715.76
-1055.61
-896.795
-740.415
-42.5978
660.85
570.739
431.423
263.255
89.1115
1684.12
1422.96
1076.99
670.146
227.495
343.333
306.826
229.222
134.254
46.9281
-93.2316
-193.831
-230.47
-280.506
-410.355
-574.353
-19893.7
-16372.3
-15409.1
-18455.6
-14009.8
-10733.6
-12894.8
-9799.07
-17500.7
-13912
-14711.1
-12516.4
-12643.2
-9605
-11969
-16766
-14690.5
-13079.2
-14853.6
-12461.1
-9666.05
-11112.5
-8350.59
-16211.3
-13667.1
-14602.6
-12792
-12625.1
-10540.1
-12243.2
-13076.7
-11981.6
-10502.6
-11431.3
-10432
-8626.44
-9344
-8014.38
-13486.6
-12327.6
-12800.5
-11891.1
-11678.4
-10126.7
-11370.2
-8994.69
-8627.7
-7481.68
-7779.03
-7990.32
-7487.53
-7140.87
-7130.01
-9737.96
-10784.7
-9426.75
-10341.7
-8998.02
-8199.87
-9802.86
-5793.29
-5704.51
-4818.09
-4894.46
-5632.17
-5705.49
-4761.58
-4931.64
-6820.28
-8319.55
-6703.08
-7749.39
-6594.36
-6392.67
-7368.2
-2117.71
-2104.48
-1734.32
-1750.54
-2120.02
-2225.35
-1709.54
-1703.08
-2793.6
-3498.27
-2727.68
-3079.43
-2708.49
-2682.58
-2931.08
-7492.32
-7546.59
-10531.9
-11600.4
-7573.03
-7178.03
-9801.73
-8170.65
-7135.56
-4643.32
-7274.09
-4565.53
-7371.87
-7397.57
-4660.81
-7129.39
-6976.65
-9717.84
-10496.1
-6746.2
-5951.17
-8845.21
-7263.64
-5036.8
-1943.08
-4993.04
-2181.66
-4262.03
-4060.62
-2532.42
-6001.38
-5902.93
-8194.24
-8637.72
-5943.02
-5492.05
-7685.64
-6909.15
-2679.31
-1872.15
-2658.73
-2485.03
-2605.94
-2868.2
-3181.41
-4428.1
-4450.86
-6020.63
-6155.47
-4594.62
-4547.98
-5928.98
-5841.62
-2767.76
-1742.28
-2988.06
-2721.34
-3281.17
-3844.41
-3678.96
-2750.75
-2772.83
-3838.11
-3871.59
-2721.29
-2739.27
-3817.32
-3775.5
-1543.68
-1287.06
-1754.57
-2154.51
-2248.56
-2749.41
-2892.77
-926.677
-937.57
-1357.67
-1364.6
-936.089
-986.419
-1344.57
-1306.16
-266.867
-531.222
-439.69
-972.919
-767.61
-997.175
-1209.41
7112.96
21423.7
5447.32
23950.1
2987.55
25375.3
5107.71
40223.5
8350.66
50516.4
8550.04
35815.9
9116.98
31818.8
8876.08
26688.8
4229.03
2289.73
12752.5
6007.29
3946.3
1809.1
13758.1
5531.89
5432.5
3993.05
15938.2
11625.1
3677.48
2886.48
16352.7
12358.5
8281.28
3003.5
6256.08
2261.93
2850.63
7670.86
39314.3
12016.8
11792.1
5453.87
47761.9
14979
11016.9
5184.51
26006.4
8670.49
13247.3
6040.88
21148.5
6725.64
4805.83
2594.73
8429.63
3398.38
4298.95
2722.16
9049.96
3405.77
5770.5
3667.12
5668.52
2372.21
10117.8
3649.22
3984.1
1470.09
12339.2
9270.75
7492.41
6710.37
13851.7
12133
7516.17
8017.3
6929.17
5933.91
9009.65
7697.1
5585.66
4799.88
3248.48
2789.05
5580.35
5565.82
3197.31
3200
5340.25
4179.1
3124.12
2199.35
5940.51
3341.72
5952.05
6579.64
7874.67
5998.64
8501.77
11238.5
4348.74
1858.87
3828.93
3959.34
2465.86
860.51
1757.08
1520.46
5519.69
11204.6
4015.64
12681.1
5964.94
11323.1
4810.37
13474.7
7876.88
11264.2
6676.84
13736.1
8794.99
10626.7
6734.11
6752.95
8282.5
7008.32
7675.73
10552.2
12298.5
18054.9
9467.74
7604.64
7224.69
9161.75
14625.1
13968.7
13522.9
16335.2
16411.1
13614.7
13651.1
16359.4
16300.6
12573.1
13065.4
15704.5
15876.5
8827.25
9373.32
8578.64
9063.01
10408.9
10419.5
12163.7
11842.6
15352.1
15538.8
8057.7
8843.67
9079.35
9682.41
10113.9
10910.6
11641.2
12767.3
15320.8
16648
9417.71
6424.56
7626.1
7703.81
10581.2
12068.5
8605.57
11407
6982.43
7114.75
8877.65
6368.5
3209
5562.92
1313.7
2071.3
5329.32
8460.77
2091.19
3170.52
2682.09
4868.31
999.891
1772.35
6632.91
5668.72
6772.14
4234.42
9334.73
6655.07
10611.3
7081.1
3088.53
3613.89
3852.21
2185.92
2388.06
2611.13
2664.1
2022.94
11728.5
7707.26
2521.09
12693.9
7974.76
2754.34
11553.8
7543.97
2560.36
12698
7965.39
2695.84
11047.3
7102.84
2379.03
12489.8
7846.53
2696.28
6692.64
3808.92
987.877
7904.12
5393.75
1752.25
9056.13
6379.45
2151.03
10004.7
6506.99
2130.31
12101.8
7598.09
2686.55
7395.57
4046.41
1322.5
7106.84
4590.99
1590.66
7970.6
5247.89
1791.26
9465.25
6071.48
2070.81
11477
6682.27
2310.63
-495.606
989.843
443.143
2638.68
1763.96
1787.98
4552.84
3995.45
590.826
971.299
624.798
1015.1
341.13
946.527
629.078
1386.69
1899.73
1137.19
3824.68
2704.48
1754.9
2888.7
2926.2
841.376
5844.26
1862
-4093.42
-576.542
690.506
721.342
48.0175
210.068
10322.3
4573.25
2740.13
1637.17
10185.3
4648.19
2995.39
1944.35
9865.67
5101.39
4046.88
2898.99
3103.23
2045.97
1755.58
1595.03
13100.4
11458
5747.42
7345.72
14625.2
13660.7
7121.11
8543.65
5256.82
6343.07
11165.8
9227.24
3663.12
4796.41
2119.54
2795.63
4764.93
5570.65
2758.83
3196.94
2999.25
4187.98
1694.3
2552.33
4711.54
3389.82
5355.32
3658.19
8083.6
4891.73
7199.9
4810.28
2812.43
2319.59
3718.85
2513.27
1591.39
1467.07
2355.49
1551.77
12100.1
8179.82
6000.24
6320.75
11994.1
8124.72
5932.88
6185.03
12126.9
7786.22
6053.34
5754.2
13207.4
12712.7
12368.5
9559.97
5593.83
7748.55
9381.18
9968.47
9409.81
6696.65
11000.9
9900.88
8250.81
6721.46
4463.05
7093.62
7112.44
7169.66
8765.41
7029.41
6855.36
6984.85
8564.72
6670.76
6437.34
6628.73
8177.37
8709.29
8235.72
8159.07
7034.74
6156.09
6195.32
5999.84
6300.83
5788.86
7692.37
6383.5
7236.78
5368.41
6116.24
4820.33
5529.86
4779.98
5770.81
4414.72
7059.41
4734.39
3796.67
3239.38
1717.24
7239.82
5504.42
5850.3
3686.8
2493.59
1431.71
3692.29
3337.87
4228.04
1829.88
1975.44
1086.58
5478.43
3126.19
2257.96
1554.97
3453.42
1477.57
1763.13
886.38
2143.27
2574.71
2687.29
4555.95
3231.86
3961.44
3251.61
5930.41
2557.34
1880.55
1966.36
3255.98
1165.78
473.327
446.159
835.289
5639.07
2585.49
745.194
6107.82
1631.17
430.354
5468.32
2684.88
837.535
6054.25
1674.08
463.348
4955.36
2447.83
631.266
5748.92
1545.19
348.863
5562
3033.03
796.521
4708.51
2522.08
700.916
4648.83
2331.83
663.962
4615.68
2183.87
505.433
5438.85
1359.6
230.522
6176.82
3243.4
1002.21
5357.15
2918.84
960.538
4872.8
2555.05
838.578
4723.82
1935.26
522.888
5644.28
1399.25
444.406
1776.27
681.91
323.653
8.47339
716.134
290.114
149.515
28.4164
1844.85
736.085
390.313
75.68
877.418
395.935
254.859
119.31
2118.66
880.903
510.458
159.659
1513.95
783.106
447.378
208.459
1122.82
703.506
345.776
113.897
1173.33
802.675
472.894
264.624
1777.58
848.122
443.005
47.2739
1696.61
782.879
460.476
-38.4386
2233.5
942.635
553.093
123.727
2007.18
832.75
510.693
-65.8433
1352.95
742.859
390.021
52.1126
1322.25
693.076
424.925
69.5118
1010.03
648.297
411.307
239.356
923.849
580.878
400.918
230.374
2287.69
836.352
398.632
-82.5018
2404.91
817.212
440.913
-257.142
2279.49
848.76
434.411
-48.0146
2301.33
786.809
439.533
-237.408
2297.44
873.724
502.509
3.92499
2064.41
713.504
436.885
-171.579
2136
843.379
554.636
143.869
2277.03
809.081
563.543
-167.392
1667.13
656.234
437.855
45.6838
2001.46
602.454
328.411
-241.623
790.845
214.765
100.391
-57.8509
1963.24
607.725
337.766
-214.731
799.79
224.683
111.143
-43.5052
1842.95
593.51
353.588
-167.481
768.908
227.144
125.003
-23.3947
1552.31
509.895
340.819
-115.115
677.489
201.591
134.417
2.56015
1361.97
477.583
333.729
-44.1003
609.377
204.675
152.328
39.839
1072.98
464.721
279.645
17.5565
559.77
285.737
178.162
95.0893
1143.63
421.624
280.552
-13.033
554.342
229.199
160.8
70.4206
953.501
499.488
303.293
74.5414
568.925
339.147
208.825
130.375
743.535
483.134
326.261
196.381
527.74
366.495
248.306
185.318
14.482
11.5321
7.57768
4.94116
3.71896
8.33336
5.90139
3.79542
2.47183
1.8669
37.1894
25.3324
15.7978
10.1544