/*--------------------------------*- C++ -*----------------------------------*\
| =========                 |                                                 |
| \\      /  F ield         | OpenFOAM: The Open Source CFD Toolbox           |
|  \\    /   O peration     | Version:  2412                                  |
|   \\  /    A nd           | Website:  www.openfoam.com                      |
|    \\/     M anipulation  |                                                 |
\*---------------------------------------------------------------------------*/
FoamFile
{
    version     2.0;
    format      ascii;
    arch        "LSB;label=32;scalar=64";
    class       volScalarField;
    location    "2.4";
    object      gradTx;
}
// * * * * * * * * * * * * * * * * * * * * * * * * * * * * * * * * * * * * * //

dimensions      [0 -1 0 1 0 0 0];

internalField   nonuniform List<scalar> 
5712
(
-7823.7
-9557.08
-17890.4
-27930.1
-27007.7
-52699.7
-18686.9
-56228
-19284
-45096.6
-23708.1
-38969.4
-18144.5
-23977.4
-9758.43
-9898.76
-12670.6
-14310.4
-17411.9
-15769.5
-12116.7
-18241.4
-18084.5
-18109.8
-5111.48
-3693.79
-6933.31
-4949.83
-11585.8
-7486.34
-21454
-14930
-17869.1
-18089.8
-18107
-18244.9
-4131.39
-3717.19
-41651.1
-51516.7
-22145.3
-29568.9
-53755.9
-66153.3
-24899
-30639.7
-31164.8
-40755.9
-24817.7
-34397.4
-14247.4
-18059.7
-2900.51
-916.876
-3776.2
-1306.54
-6486.59
-2664.98
-11275
-4133.12
-7371.63
-2447.67
-7479.84
-2116.01
-14728.2
-4285.86
-19318.2
-6051.31
-24952.9
-14238.2
-21123
-14587.7
-25637.6
-16507.6
-20352.4
-16480.6
-16323.2
-11760.4
-17879.4
-11283.2
-20533.7
-15161.7
-21225.9
-15575.5
-19956
-16893.3
-20737.6
-17248.7
-16874.3
-12499.5
-18204.8
-12984.7
-17967.2
-7354.64
-10215.7
-11630.2
-19301.8
-8462.33
-10090.7
-12119
-18041.2
-6876.61
-10731.8
-11497.4
-18664.1
-6928.37
-11304.3
-11619.8
-2802.58
-3145.09
-983.804
-1935.86
-8085.04
-9477.75
-3307.54
-6258.45
-13136.5
-15592.9
-5877.81
-10509.1
-17436.1
-9214.97
-17555.7
-20960.2
-10486.2
-6780.59
-10845.6
-12275.4
-21287.2
-13408.8
-9899.53
-12932.7
-14272.6
-13749.4
-17091.3
-3110.4
-3195.36
-1917.42
-2049.07
-9225.11
-8838.61
-5900.3
-6004.59
-13836.4
-12735.8
-8716.88
-8781.08
-9675.78
-10832.2
-15297.6
-16228.3
-16910.6
-15924.1
-20001.6
-18401.5
-13680.7
-13650.5
-12980.7
-14191.7
-16724.2
-15428.7
-15691.4
-13263.6
-13987
-11320.2
-15436.3
-12354.9
-14183.7
-7761.43
-11119.6
-10892.6
-15651.5
-18310.2
-15981.8
-20892.7
-9356.78
-9292.98
-12827.3
-5989.06
-10714.7
-16966.9
-11054.6
-18074.2
-16204.3
-25579.6
-16723.8
-26126.8
-9035.55
-14854
-9319.82
-16060.6
-11111.8
-8350.8
-14164.2
-6460.17
-12072.1
-4696.19
-13413.6
-3437.08
-11504.9
-11884.7
-14812.5
-7676.62
-10352.5
-13671.3
-13587.7
-9743.23
-3005.79
-2811.08
-2448.4
-1939.03
-1904.93
-1677.27
-8167.27
-7100.32
-6249.3
-5302.43
-4472.95
-3806.61
-10725.6
-9175.25
-8442.12
-7628.64
-6204.63
-5655.62
-9785.2
-8032.09
-7675.3
-15193.2
-11450.5
-9382.75
-13593.5
-10079.1
-7894.89
-15077.8
-11934.7
-10132.8
-11550.9
-7933.72
-5974.55
-18296.4
-15020.5
-13434.8
-13357.7
-10685.8
-8937.79
-11715.2
-8897.62
-7068.85
-10396.6
-7849.5
-6294.49
-11112.2
-6720.41
-4238.04
-11367.5
-18571.6
-9619.36
-13818.3
-9193.27
-18977.2
-7683.25
-15547.3
-198.899
-1732.45
234.098
-1013.75
-3564.66
-6710.59
-2233.23
-4040.63
-1853.5
-3949.75
-10953.1
-16366.1
-8703.88
-6431.35
-11556.3
-10100.5
-15457.5
-16539.4
543.681
5440.38
-8345.61
-5871.25
-6484.3
-3740.13
-1593.46
-1021.26
-1271.84
-774.863
-3908.99
-1276.66
-1929.58
-230.857
-9964.76
-3032.01
-7451.89
-2320.34
-8455.38
-2553.31
-9578.13
-3175.9
-12209.8
-12137.4
-9522.7
-12066.9
-18398.3
-16637.6
-15086.7
-15857.7
-7129.67
-9426.86
-8312.98
-8687.94
-8929.23
-12027.5
-9396.7
-12161.4
-14416.1
-15587.2
-14947.8
-15721.1
-6316.29
-9587.53
-6130.07
-9728.67
-934.246
-1596.55
-7692.33
-4466.35
-914.48
-1373.57
-6732.41
-3788.8
-920.63
-1438.11
-8139.67
-4916.72
-1230.62
-1560.81
-8240.04
-5191.22
159.347
297.197
-494.386
-356.503
800.354
1318.73
-828.045
-592.204
-1277.43
-247.615
-2692.85
-2408.19
7683.02
3910.33
4468.5
2877.32
-177.411
7077.59
10391.4
4913.08
4884.12
-158.532
-9305.74
-6873.68
-5749.3
-6012.14
-3680.26
516.391
411.208
-216.425
-343.739
1441.93
1629.59
-618.746
-859.376
1186.71
1830.86
-1593.43
-1973.55
3143.28
1691.18
8097.48
5799.8
4288.71
3109.36
3816.8
3194.32
-494.892
-1339.88
-4898.2
-3378.8
490.586
2264.75
605.971
1945.03
-552.586
567.842
-1083.94
-1536.56
-4089.96
-4540.35
-9763.88
-6209.47
-8606.96
-8425.91
-12970.6
-10167.4
-7589.95
-4708.36
-2619.31
-3328.94
-11560.8
-4888.47
-12394.6
-4498.9
-14903.1
-9783.08
-15852.5
-9378.73
-9132.96
-3452.67
-9920.57
-2989.58
-5894.65
-4892.26
-4680.32
-8166.95
-2988.94
-3965.06
-3152.93
-6895.64
-6480.15
-4604.12
-5639.88
-9360.73
-7773.5
-4385.68
-6588.86
-9300.58
576.079
779.47
920.844
-220.806
145.375
205.65
2107.74
2603.26
2826.18
-336.506
616.505
760.097
2541.89
3710.64
4215.97
-1068.94
1083.47
1535.49
969.107
1525.23
1382.24
4570.88
4942.22
4605
3573.34
4247.46
4129.81
3769.64
4836.36
5036.6
-664.941
1578.42
1526.46
-3961.13
-1910.65
-1076.08
1474.38
2735.58
3141.07
1688.2
3084.86
3441.94
982.441
2708.8
3076.49
-1973.37
1070.11
1291.45
-78.2319
7.92619
40.283
84.9665
110.425
108.541
127.389
130.503
-213.539
9.0797
108.38
224.734
252.961
249.326
277.461
296.973
-432.749
-51.9055
116.974
345.392
41.149
207.747
248.916
339.305
46.947
135.915
101.572
113.075
-167.439
-9.55853
52.1748
121.153
-1094.53
-325.686
-114.466
200.49
-1645.65
-519.579
-300.502
279.969
-922.471
-246.163
-35.638
334.779
-1342.05
-414.99
-258.208
282.328
-1010.97
-314.04
-111.828
169.022
-1814.33
-576.215
-319.819
346.511
-1074.24
-368.449
-110.652
224.61
-1902.82
-609.915
-336.912
380.045
-78.8648
-4.37053
16.15
76.5316
-69.7973
-2.13263
2.53598
80.248
-216.405
-17.7778
45.7429
202.757
-123.428
18.066
21.563
218.96
-750.674
-188.959
-31.1412
311.916
-588.517
-120.422
-29.3424
348.976
-388.444
-36.6254
60.5467
342.944
-262.459
-8.48241
8.55108
339.123
-1142.08
-321.812
-184.632
388.507
34.1503
30.9761
23.366
63.3162
131.251
58.8053
35.5254
38.7298
14.6226
59.6456
45.0978
166.903
317.944
151.69
88.7188
102.673
-106.228
42.1033
48.1399
261.251
421.675
217.151
132.974
157.574
-145.789
54.053
60.9589
346.432
421.753
253.71
151.698
186.832
-378.152
6.53875
-11.6399
338.758
206.996
225.908
118.773
173.826
-1181.06
-143.483
-116.149
322.09
-362.242
73.2103
40.2339
127.656
-788.807
-45.1946
-72.3938
326.455
-145.081
151.254
77.787
152.465
-1513.25
-279.885
-178.414
346.833
-508.579
-10.6598
0.611821
114.227
-1747.98
-427.872
-252.078
342.996
-648.394
-117.29
-49.9127
96.4974
34.2419
16.3992
8.75337
5.2334
3.8259
46.6967
24.8172
13.8942
8.50373
6.2655
73.3584
34.8773
18.5328
11.1135
8.18858
123.127
67.5198
38.4288
23.8039
17.6523
104.277
50.1991
27.1581
16.4947
12.2366
176.809
95.9674
55.1442
34.4561
25.6668
59.9437
31.5383
18.1576
11.3999
8.50845
34.0585
17.1816
9.63915
6.0059
4.4635
92.159
41.7795
22.7155
13.9227
10.2951
21.5343
6.27711
2.68509
1.46236
1.03364
135.235
68.7371
38.8406
24.1604
17.9833
37.8921
15.3764
8.0131
4.80997
3.51048
33.1007
9.07531
3.61196
1.91363
1.34584
22.3869
7.02225
3.20883
1.84237
1.3362
31.8066
8.30079
3.14719
1.63762
1.1148
16.3064
2.49434
0.39805
0.0392861
-0.0381204
27.8717
12.3823
6.32602
3.67661
2.65424
25.865
11.6406
5.98209
3.48063
2.51324
64.0335
28.0583
14.3797
8.3982
6.10202
60.0526
26.425
13.6297
7.96443
5.76163
83.452
34.316
17.4438
10.162
7.39113
72.2661
32.4654
17.1427
10.1202
7.40256
97.3166
48.6134
27.2458
16.8156
12.5197
48.0048
23.7198
13.0278
7.8387
5.82111
56.0779
29.2851
16.7501
10.4845
7.82166
-509.283
-611.763
-1402.04
-1736.08
-2143.88
-2774.58
-2607.33
-3674.14
-2610.69
-3674.17
-2355.25
-3098.78
-2204.86
-2652.01
-2652.93
-3584.44
-2736.9
-3731.78
-486.893
-106.455
-23.1355
-4.90169
-1.18815
-211.082
-75.3103
-8.38824
-2.35895
-0.936162
-1572.17
-346.279
-75.6956
-16.161
-3.94594
-548.305
-116.73
-23.6512
-4.60931
-0.986343
-2771.12
-613.914
-134.983
-29.08
-7.16271
-957.004
-226.55
-49.8889
-10.8387
-2.61157
-3979.73
-886.629
-196.853
-42.8964
-10.6975
-1341.65
-346.356
-81.5503
-18.6395
-4.71248
-5557.28
-1273.51
-288.797
-64.0869
-16.2599
-1784.38
-520.907
-130.085
-30.723
-7.9787
-7510.58
-1878.66
-449.718
-103.87
-27.1736
-2066.42
-640.69
-165.365
-39.7841
-10.5075
-6834.96
-1656.79
-387.049
-87.6618
-22.5794
-2002.8
-626.426
-161.405
-38.7367
-10.1436
-7833.36
-1986.08
-481.379
-112.415
-29.6672
-2108.59
-635.793
-161.602
-38.4456
-10.1246
-8073.09
-2041.08
-496.907
-116.692
-30.9558
-2106.74
-637.165
-161.843
-35.7446
-9.98008
-254.675
-6476.75
-6367.06
-3608.79
3664.46
5041.87
10165.2
13361.4
5760.21
11644.4
2249.98
7051.11
5707.52
9468.79
10385.2
14319.4
12524.6
14243.5
7152.85
8091.02
-18864.9
-14124
-4497.92
-3523.83
-2751.21
-4429.05
-3088.59
-12382.1
-12226.8
-10470.5
-11115.3
-9181.25
-6363.84
-8715.27
-5379.2
-4131.77
-5125.97
-3283.58
-20423.7
-10217
-3084.62
-5147.79
-7735.17
-5275.71
-6267.68
-4741.49
-2322.31
-3935.58
-3425.14
-3989.85
-18955.7
-11832.8
-11897.5
-7589.11
-8088.64
-8102.28
-4099.04
-5237.09
-5372.54
-12866.5
-12373.6
-10730.9
-10812.3
-10031.4
-10131.7
-7598.78
-6385.73
-5386.56
-2505.9
-3985.96
-3314.98
-2492.56
-1555.9
-529.858
-3152.82
-2644.82
-1994.77
-1241.82
-421.85
-2444.94
-2034.71
-1522.37
-941.885
-319.01
-3963.74
-3323.87
-2502.98
-1554.61
-527.306
-2746.3
-2288.49
-1716.51
-1065.23
-361.5
-8278.27
-7100.19
-5759.34
-5476.3
-6055.32
-6729.18
-5368.05
-3851.28
-3184.04
-2706.56
-7277.66
-4995.11
-3815.7
-2897.51
-1302.13
-6026.87
-4538.39
-3168.08
-2505.29
-1777.56
-4664
-3263.7
-2178.12
-1801.15
-1083.6
-5077.13
-3828.65
-2730.99
-1706.45
-606.716
-6255.17
-4341.04
-3099.46
-2059.11
-830.51
-3775.59
-2486.95
-1687.59
-1069.91
-409.002
-3419.68
-2656.79
-1906.69
-1171.1
-402.704
-4137.92
-3128.73
-2202.33
-1339.17
-460.207
-2748.34
-2153.97
-1547.38
-943.675
-321.012
-13985.4
-11657.7
-9811.3
-9273.52
-8847.3
-7886.28
-5916.94
-4553.63
-3302.68
-1420.12
-2572.43
-2018.7
-1467.34
-913.875
-317.348
-4374.7
-3505.4
-2599.72
-1645.79
-575.848
-6403.58
-5041.11
-3788.33
-2500.49
-916.57
-4520.14
-3652.3
-2733.98
-1741.99
-606.333
-5465.54
-4477.89
-3356.15
-2111.92
-721.625
-4141.66
-3396.27
-2530.84
-1577.39
-539.106
-2005.98
-1621.39
-1187.25
-727.48
-246.208
-3466.14
-2859.53
-2128.09
-1315.46
-446.125
-2918.83
-2332.93
-1704.09
-1051.4
-359.358
-3459.23
-2815.45
-2086.34
-1297.46
-444.063
-12834.2
-11596.4
-10053.5
-9849.24
-8903.33
-8818.79
-6647.21
-5439.9
-4346.55
-1991.54
-9612.11
-7875.79
-6337.75
-5034.35
-2280.51
-6232.47
-4746.15
-3663.11
-2540.62
-819.561
-6839.42
-5437.55
-4110.4
-2686.73
-915.032
-6626.16
-5011.74
-3852.05
-2665.1
-836.432
-3545.99
-2883.07
-2146.47
-1346.88
-462.874
-4618.78
-3820.44
-2856.79
-1776.01
-604.315
-4641.23
-3773.19
-2816.31
-1774.82
-611.997
-6205.42
-13608.6
-10920.4
-35468.3
-10313.3
-46356.4
-6899.4
-18226.5
-9007.69
-7575.34
-17654
-13787.1
-9186.68
-11061.3
-19338.3
-16079.9
-3892.04
-2649.92
-8948.12
-6278.07
-6831.18
-3566.1
-24666.5
-17363.7
-14968.3
-10424.7
-15511.5
-10097.7
1674.29
-1478.64
-42615.1
-51878.8
-21500.6
-29467.4
-54389.6
-66399.8
-24117
-30451.2
-31828.8
-41135.7
-24193.3
-34376.7
-15302.3
-18481.3
-2088.58
-398.463
-4552.06
-1464.76
-3954.08
-1859.92
-12751.9
-4550.83
-1994.84
-940.848
-5605.63
-1549.97
-14790.2
-4253.98
-19496.9
-6094.13
-18285.8
-11194.4
-18864.6
-13051.1
-17819.6
-12692
-17750.9
-14634
-14807.7
-10623.3
-13583.2
-9126.85
-19629
-14445.4
-21001.3
-15369.6
-18890.8
-16066.5
-20443
-17009
-16319
-11956
-18079.4
-12827
-17114.8
-7160.62
-9419.97
-11332.8
-16673.9
-7809.7
-8519.11
-11563
-17794.2
-6817.69
-10356.1
-11345.4
-18633.7
-6922.36
-11193.9
-11574.9
-644.531
-480.676
107.62
-649.963
-2388.91
-2943.7
-1675.31
-4344.68
-3546.85
-4731.82
-3680.44
-7983.28
-16615.8
-15959.4
-13205.5
-15476.5
-9301.08
-10755.4
-8578.64
-7328.86
-15308.1
-12465.1
-12425.6
-11750
-11137
-10463.8
-15919.7
-683.323
-869.221
-434.311
-652.295
-2942.13
-2633.56
-3323.21
-3298.16
-2813.07
-1458.04
-5515.99
-5270.36
-11722.6
-12616.4
-10962.2
-10930.8
-9837.3
-8196.53
-13226.3
-11395.1
-11706.4
-11094
-15092.2
-15608.3
-14186.9
-12816.7
-11596.2
-9622.89
-10389.3
-8206.3
-13873.7
-10349.5
-13092.7
-7879.99
-10729.3
-10894.6
-16114
-19114.2
-16082.9
-21156.1
-8725.39
-9089.44
-11188.1
-5692.29
-10576.2
-16892.3
-11013.2
-18041.6
-16289.7
-25801.3
-16732.8
-26135.1
-8784.66
-14680.3
-9249.95
-16007.5
-10534.3
-8138.7
-13851.9
-6351.62
-10686.4
-4433.34
-12795.4
-3399.96
-11263.1
-11735.6
-14667.3
-7614.88
-10285.3
-13623.1
-13551.3
-9716.62
-1061.12
-807.565
-594.451
-733.983
-2003.51
-943.321
-2767.11
-2756.62
-384.4
-230.073
-4918.14
-4785.29
-13626.1
-11748.8
-10721.8
-8308.62
-6895.06
-4703.5
-9131.93
-6967.31
-9639.93
-6482.93
-19883.5
-16979.5
-10386.1
-8447.24
-8013.65
-5939.37
-6933.62
-4832.83
-7757.95
-3985.78
-5869.63
-11168.3
-5416.9
-10883.9
-7300.97
-11919.1
-8578.07
-13320.6
-1655.52
-1574.99
-1487.1
-1506.54
-4635.42
-4875.83
-4350.29
-4532.69
-2006.5
-2346.87
-9154.04
-10063.7
-5603.11
-6326.69
-10491.3
-9869.18
-14444.1
-16262.4
541.271
5275.91
-7799.64
-5823.94
-6272.92
-3772.78
-1410.12
-1343.91
-1536.58
-1316.77
-3167.64
-2160.67
-2518.34
-1575.95
-8347.23
-4187.95
-7811.12
-3818.16
-8592.86
-3406.21
-9663.55
-3525.09
-6730.67
-9709.94
-7580.64
-10738.5
-11347.7
-12872.1
-12615.4
-14000.8
-6054.29
-8821.98
-5290.7
-7849.43
-8136.9
-11461.3
-9161.22
-11998.6
-13369.1
-14785.2
-14639.2
-15489.3
-5898.39
-9339.15
-6009.16
-9659.66
-1112.67
-2102.06
-7731.9
-4761.15
-1283.37
-2231.64
-6978.48
-4229
-1135.69
-1840.92
-8181.49
-5127.63
-1323.04
-1728.04
-8239.1
-5284.96
-1296.39
-1479.53
-1362.56
-1561.05
-3173
-3544.04
-2427.22
-2817.78
-7687.85
-8348.92
-4539.32
-5023.52
-4248.63
-9438.82
-2923.73
-719.836
-1777.97
-4181.01
-1238
-2020.72
1614.26
-1242.16
-13679
-10103.5
-7936.14
-7859.09
-4598
-1787
-1970.48
-1834.47
-2271.4
-4209.32
-4539.22
-3354.17
-4233.21
-8889.77
-10052.5
-5087.45
-6512
-6182.2
-7502.47
-2232.21
-4251.53
-3573.89
-4886.48
-1227.07
-2100.9
-2311.34
-3577.4
-11296.8
-8828.2
-6311.37
-4349.15
-4848.66
-3330.27
-4772.48
-3324.02
-2952.89
-3673.96
-7574.84
-8086.53
-11386.6
-7776.06
-11230.9
-11232.3
-13988.1
-11409.1
-9530.51
-6326.56
-6036.36
-6743.61
-12354.8
-5786.39
-12613.5
-4710.72
-15371.4
-10519.7
-15964.6
-9531.76
-10134.3
-4378.8
-10211.8
-3230.12
-7804.16
-6434.74
-6397.26
-9984.59
-5991.52
-6983.86
-5343.16
-9763.77
-7513.72
-5530.75
-6683.72
-10460
-8094.59
-4668.6
-6925.3
-9591.27
-1662.7
-1730.18
-1627.79
-1291.98
-4933.07
-5561.76
-2629.35
-1486.35
-10870.4
-8998.1
-3940.61
-488.773
-9368.02
-8107.94
-6067.26
-5028.81
-5166.36
-4079.63
-2038.38
-924.038
-2538.42
624.619
-8445.34
-6993.18
-4184.78
-2893.01
-2865.27
-1372.44
-2378.22
-651.717
-4259.7
431.682
-318.849
-135.131
-44.8337
37.2614
-339.985
-172.664
-49.1177
19.8045
-821.891
-352.213
-97.1373
125.041
-777.54
-403.569
-151.542
-4.64703
-1239.16
-534.498
-182.608
176.86
-1214.42
-609.528
-343.388
-127.463
-723.915
-382.897
-247.687
-91.086
-502.47
-241.827
-105.181
24.5982
-1545.3
-616.584
-337.163
26.821
-1795.41
-584.097
-360.862
285.042
-1561.41
-618.643
-325.479
61.3546
-1534.82
-499.584
-335.951
287.653
-1357.57
-544.233
-256.837
115.45
-1928.99
-628.306
-376.332
318.888
-1223.37
-470.106
-177.816
191.456
-1953.09
-634.942
-359.342
373.23
-300.245
-114.823
-43.5519
54.3097
-301.371
-100.432
-55.2919
61.0793
-778.942
-302.505
-109.631
145.89
-766.086
-265.669
-139.873
172.088
-1379.43
-520.792
-228.079
259.932
-1334.33
-467.802
-246.338
290.342
-1380.21
-561.624
-281.546
117.068
-1013.11
-376.327
-201.816
292.759
-1557.05
-522.014
-351.293
339.372
-219.949
-73.1798
-29.6644
38.2552
-127.634
-51.8207
-18.1822
4.24847
-609.599
-204.082
-96.95
99.9845
-359.198
-148.092
-62.4847
6.49002
-860.944
-298.966
-150.062
160.514
-517.273
-233.28
-99.4087
10.5747
-1029.71
-381.08
-200.704
205.302
-690.614
-318.152
-142.547
7.03612
-1238.3
-429.397
-287.996
177.05
-938.111
-372.426
-202.45
-28.3061
-2131.1
-698.44
-465.549
121.917
-1141.56
-401.396
-236.081
-43.4398
-1839.92
-606.103
-425.53
122.388
-1188.37
-418.573
-243.609
-51.4392
-2132.68
-666.965
-423.048
210.923
-985.069
-327.371
-186.299
4.58063
-1955.95
-563.212
-337.742
296.525
-801.847
-224.944
-114.002
59.5819
-6.91576
-11.0628
-8.12998
-5.56579
-4.28796
-26.8516
-20.5081
-13.4324
-8.88776
-6.78648
-15.0262
-23.2739
-17.0392
-11.5994
-8.86699
-85.3173
-58.7234
-37.2162
-24.2527
-18.3982
-37.1923
-37.4247
-25.5339
-16.9912
-12.8797
-131.274
-86.1089
-53.1699
-34.2215
-25.8307
-43.4543
-28.4205
-17.442
-11.1765
-8.42596
-19.6443
-14.1823
-9.0621
-5.88649
-4.47949
-34.749
-32.1821
-21.1392
-13.859
-10.533
8.13602
-1.92132
-2.23443
-1.66148
-1.3096
-89.3017
-60.1603
-37.1265
-23.8727
-18.0057
-6.64541
-10.8521
-7.49132
-4.99502
-3.83508
13.381
-1.37619
-2.54676
-1.99525
-1.59292
4.29164
-2.93552
-2.65044
-1.86899
-1.45137
15.6884
-0.588742
-2.14581
-1.76162
-1.48455
14.8291
1.95593
0.0872245
-0.178068
-0.23054
-0.0487469
-7.33073
-5.92771
-4.18008
-3.2514
-2.95166
-7.46589
-5.71748
-3.98988
-3.09592
-3.80186
-17.8785
-13.8017
-9.59714
-7.4091
-9.11758
-18.1645
-13.4049
-9.24333
-7.14744
-3.36231
-23.0254
-17.3215
-11.9569
-9.20047
-24.6204
-26.3314
-17.8482
-12.039
-9.20075
-64.8643
-43.5327
-26.7665
-17.273
-13.006
-32.4631
-22.2652
-13.9007
-9.14524
-6.89254
-46.7926
-27.1412
-16.0936
-10.2134
-7.67303
-182.73
-302.713
-614.611
-971.776
-1202.24
-1826.41
-1776.05
-2783.93
-2020.62
-3047.53
-2259.69
-3027.62
-1943.47
-2466.8
-2625.42
-3557.11
-2733.52
-3726.26
-484.43
-108.116
-23.6537
-5.02097
-1.21748
-147.523
-68.3913
-6.64797
-2.12562
-0.926168
-1582.54
-353.858
-77.7149
-16.6095
-4.05428
-387.667
-89.6957
-19.1221
-3.84889
-0.839412
-2791.65
-625.755
-138.151
-29.7991
-7.33947
-761.999
-193.703
-44.4033
-9.94056
-2.44365
-3989.69
-897.079
-199.961
-43.6458
-10.8903
-1166.1
-316.154
-76.4213
-17.7932
-4.55539
-5550.26
-1280.26
-291.28
-64.7484
-16.4428
-1669.64
-499.699
-126.37
-30.1106
-7.8688
-7490.74
-1877.11
-450.008
-104.059
-27.2488
-2047.43
-635.718
-164.297
-39.5837
-10.4678
-6818.03
-1658.77
-388.433
-88.1132
-22.7204
-1950.02
-614.668
-159.169
-38.3537
-10.0745
-7818.18
-1983.98
-481.253
-112.467
-29.699
-2103.14
-634.227
-161.231
-38.3713
-10.1086
-8067.93
-2040.29
-496.835
-116.702
-30.9651
-2106.15
-636.96
-161.787
-35.7328
-9.97723
-163.149
-6351.38
-5910.64
-2892.7
-1483.56
-876.64
-3177.64
-2497.01
-5426.39
-5906.7
-3089.15
-2905.86
-415.665
-630.083
-1057.11
-1631.28
-2298.5
-2953.3
-286.244
-594.599
-1204.47
-2037.41
-2988.52
-3934.55
-324.126
-141.01
-570.182
-354.114
-1053.25
-786.52
-1677.69
-1446.76
-2291.15
-2269.74
-2801.97
-3070.6
-3625.25
-4328.46
-5180.1
-7214.92
-7539.98
-9071.72
-4764.78
-5320.67
-5424.8
-5164.55
-4242.3
-3777.08
-375.689
-318.459
-242.026
-151.177
-51.4
-569.174
-482.168
-366.223
-228.654
-77.7241
-954.318
-807.868
-613.219
-382.709
-130.067
-1471.34
-1244.36
-943.805
-588.763
-200.062
-2070.31
-1748.51
-1324.84
-826.088
-280.679
-2654.03
-2236.59
-1692.36
-1054.94
-358.497
-258.607
-219.131
-166.478
-103.957
-35.3376
-536.893
-454.62
-345.163
-215.445
-73.223
-1086.94
-919.798
-697.982
-435.545
-148.015
-1836.96
-1553.07
-1177.74
-734.688
-249.661
-2690.73
-2271.8
-1721.25
-1073.48
-364.815
-3534.77
-2978.48
-2254.33
-1406.05
-478.051
-293.044
-248.453
-188.855
-117.983
-40.1215
-127.492
-108.094
-82.1654
-51.3306
-17.4558
-515.222
-436.582
-331.677
-207.119
-70.4137
-320.016
-271.206
-206.061
-128.685
-43.7497
-951.15
-805.445
-611.532
-381.709
-129.737
-710.393
-601.676
-456.885
-285.201
-96.9372
-1513.64
-1280.45
-971.303
-605.91
-205.879
-1305.37
-1104.3
-837.648
-522.486
-177.519
-2064.04
-1743.34
-1320.76
-823.32
-279.674
-2044.4
-1726.22
-1307.21
-814.485
-276.587
-2517.34
-2120.38
-1603.36
-998.783
-339.254
-2757.22
-2320.39
-1752.37
-1090.14
-369.977
-3245.06
-2724.95
-2058.47
-1283.78
-436.693
-3846.63
-3210.64
-2421.69
-1515
-517.057
-4540.2
-3748.81
-2828.04
-1788.18
-616.041
-6167.46
-4999.41
-3799.94
-2476.9
-872.342
-6132.64
-4856.58
-3787.04
-2656.72
-1032.98
-7087.62
-5523.9
-4417.26
-3292.75
-1349.52
-4266.32
-3584.74
-2710.49
-1692.15
-576.074
-4739.85
-3966.89
-2997.73
-1876.74
-640.87
-4793.95
-3989.07
-3016.07
-1900.65
-653.277
-4499.02
-3707.59
-2812.62
-1800
-627.676
-3594.79
-2918.7
-2239.76
-1487.41
-541.692
-3095.13
-2470.72
-1927.71
-1341.56
-511.279
-439.889
-703.612
-1181.69
-1805.7
-2520.42
-3203.99
-317.894
-690.562
-1365.47
-2258.61
-3252.73
-4205.39
-349.621
-160.846
-648.062
-415.668
-1187.62
-896.195
-1871.65
-1617.61
-2551.28
-2562.65
-3105.59
-3576.53
-3890.02
-4597.75
-5447.04
-7397.47
-7663.18
-9118.58
-4993.64
-5460.78
-5454.74
-5096.36
-4152.34
-3737.7
-397.688
-337.218
-256.372
-160.184
-54.4708
-635.995
-539.19
-409.866
-256.073
-87.0774
-1067.68
-904.76
-687.509
-429.451
-146.024
-1630.39
-1380.68
-1048.63
-654.874
-222.663
-2273.34
-1923.23
-1459.78
-911.504
-309.94
-2884.76
-2436.58
-1847.99
-1154.08
-392.584
-287.352
-243.635
-185.212
-115.716
-39.3473
-624.077
-528.998
-402.072
-251.19
-85.4141
-1233.41
-1044.97
-793.936
-495.908
-168.621
-2038.65
-1725.91
-1310.63
-818.502
-278.313
-2932.5
-2479.9
-1882.01
-1175.26
-399.686
-3784.11
-3194.71
-2422.69
-1513.35
-514.951
-316.172
-268.157
-203.909
-127.427
-43.3401
-145.482
-123.41
-93.8583
-58.6619
-19.9542
-585.95
-496.891
-377.798
-236.076
-80.2878
-375.886
-318.812
-242.439
-151.51
-51.5303
-1073.36
-909.854
-691.542
-432.027
-146.911
-810.113
-686.835
-522.116
-326.21
-110.931
-1690.51
-1432.05
-1087.87
-679.431
-231.014
-1461.28
-1238.07
-940.613
-587.481
-199.749
-2302.02
-1948.12
-1478.9
-923.421
-313.966
-2312.67
-1957.4
-1486.01
-927.814
-315.441
-2796.77
-2362.61
-1791.88
-1118.88
-380.543
-3222.09
-2722.64
-2064.91
-1289.04
-438.324
-3491.4
-2941.22
-2229.01
-1393.63
-474.7
-4102.05
-3439.75
-2606.32
-1636.15
-559.398
-4802.19
-3991.96
-3030.73
-1925.18
-664.673
-6367.18
-5201.7
-3983.13
-2610.45
-921.183
-6280.84
-5013.32
-3936.74
-2775.04
-1081.21
-7149.27
-5591.89
-4485.58
-3350.77
-1373.58
-4479.59
-3772.37
-2858.76
-1787.85
-609.22
-4874.68
-4089.79
-3098.38
-1943.64
-664.427
-4830.46
-4029.76
-3055.34
-1930.05
-664.273
-4447.78
-3674.34
-2796.41
-1795.69
-627.428
-3522.22
-2865
-2206.52
-1472.51
-538.348
-3063.55
-2447.41
-1913.6
-1335.88
-510.23
-18783.5
-14181.3
-4897.05
-3932.7
-3305.29
-5117.77
-3596.85
-13125
-14244.3
-11880.3
-13659.8
-7374.36
-11495
-5389.05
-5655.31
-3989.99
-21142.8
-11074.2
-3601.76
-5768
-8368.98
-5658.51
-6929.24
-5290.52
-2586.47
-4642.48
-4050.21
-4497.8
-18837.9
-12056.1
-12420.4
-7978.08
-8453.24
-8553.93
-4759.92
-5924.32
-5817.15
-12847.8
-12417.8
-10829.7
-10988.7
-10211.3
-10226.8
-7707.34
-6502.42
-5499.53
-2555.93
-4366.84
-3658.66
-2771.04
-1739.39
-594.129
-3532.46
-2977.36
-2256.37
-1409.99
-479.963
-2964.4
-2494.82
-1888.66
-1179.85
-401.816
-4603.13
-3883.89
-2943.54
-1837.84
-625.203
-3223.23
-2711.15
-2052.92
-1283.64
-437.446
-9798.25
-8948.48
-7707.49
-7325.42
-7626.38
-10144.8
-9426.94
-7874.26
-6733.13
-5204.95
-9233.44
-7027.35
-5715.11
-4411.46
-1971.73
-10066.6
-8784.91
-7103.13
-5849.17
-3700.02
-6287.36
-5076.37
-3852.75
-2518.53
-917.395
-9347.94
-7220.72
-5580.53
-3885.09
-1583.86
-4688.81
-3848.99
-2908.19
-1856.69
-651.938
-4902.54
-4012.41
-3032.33
-1942.48
-685.317
-3494.45
-2883.54
-2176.78
-1380.3
-480.057
-15332.2
-13274.7
-11522.1
-10906
-10154.1
-8952.57
-7041.62
-5608.69
-4123
-1765.51
-3128.94
-2567.73
-1945.68
-1249.23
-440.855
-5023.81
-4138.68
-3149.42
-2030.46
-716.92
-7115.46
-5767.7
-4447.88
-2985.79
-1103.17
-4925.51
-4052.41
-3085.85
-1991.1
-697.932
-6111.64
-5073.61
-3849.33
-2443.22
-838.79
-4687.52
-3908.43
-2960.29
-1868.08
-642.772
-2292.86
-1910.87
-1443.2
-906.744
-311.32
-4144.06
-3474.27
-2628.29
-1646.17
-562.42
-3560.74
-2948.98
-2229.5
-1412.41
-489.809
-3974.75
-3307.44
-2504.49
-1583.52
-546.862
-12929.1
-11858
-10439.6
-10365.6
-9467.69
-9125.84
-6975.25
-5765.78
-4628.92
-2121.69
-10368.9
-8719.87
-7190.98
-5768.24
-2626.96
-6672
-5190.84
-4069.03
-2844.06
-921.117
-7252.8
-5860.41
-4497.64
-2972.02
-1019.2
-7161.88
-5557.03
-4359.05
-3049.17
-971.992
-4193.04
-3480.96
-2641.82
-1679.87
-581.241
-5279.02
-4420.26
-3345.63
-2099.5
-718.057
-5101.68
-4220.47
-3203.48
-2044.33
-709.839
-473.636
-1290.99
-1962.42
-2580.65
-3206.32
-3776.93
-2337.09
-6036.61
-5684.46
-2350.48
-6890.89
-6182.59
-7412.96
-9897.8
-1319.62
-174.891
-2498.72
1194.96
-9770.38
-8100.87
1884.66
-1709.58
-4788.35
-4612.01
-1813.76
-5265.28
-2933.5
-5921.04
-6093.58
-586.536
880.356
-1083.38
3292.78
-6908.88
-4415.7
3684.97
-1064.08
-3282.9
-3392.58
-1255.76
-3314.17
-520.588
-4443.93
-4472.76
-172.609
1071.53
63.7823
3469.41
-4281.23
-465.365
4209.69
-718.802
-2364.37
-2757.7
-973.218
-1815.12
780.906
-3773.09
-4240.11
25.3802
781.874
393.74
2926.5
-3277.34
1492.23
4032.46
-624.639
-2229.86
-2647.29
-897.634
-1702.21
504.631
-4015.62
-5471.9
101.122
604.155
501.961
2566.03
-3124.9
1518.69
2824.52
-604.117
-2201.1
-2587.17
-873.024
-2087.47
-232.218
-3948.02
-5382.08
147.707
948
413.409
2675.43
-3604.81
665.321
2128.96
-1319.1
-3142.68
-4159.15
-1691.85
-6446.46
-11510.3
-6937.34
-12259.8
-1624.43
-1450.24
-5225.38
-4407.95
-2406.56
-9534.77
-4759.44
-1294.32
-3067.36
-3725.08
-1470.05
-6112.41
-9850.22
-6248.13
-9005.67
-1698.14
-1344.37
-5112.36
-4219.31
-1768.38
-8833.18
-4654.06
-1203.37
-2872.55
-3123.46
-1197.48
-5552.41
-8619.55
-5291.32
-8018.03
-1469.36
-1730.59
-4522.19
-5027.63
-2045.18
-7841.04
-5236.83
-1214.62
-3141.33
-2901.29
-1067.05
-5908.98
-8472.73
-5237.98
-7885.62
-1543.97
-2151.17
-4691.15
-6213.28
-2584.26
-8623
-6371.84
-1228.54
-3127.93
-2860.26
-1033.21
-5836.61
-9136.45
-5257.17
-8671.34
-1679.5
-2759.87
-5061.25
-7942.76
-3667.06
-10239
-8321.14
-1245.7
-3129.02
-2830.9
-1022.76
-5933.17
-9381.99
-5148.64
-8576.76
-1890.14
-3441.5
-5589.69
-9096.84
-4878.94
-11309.3
-9340.27
7176.58
8688.01
17886.5
27882.8
27010.6
52683.7
18689.6
56223.5
19287.5
45091.6
23720.3
38964.3
18175.1
23965.3
8413.44
8510.68
12672.6
14310.7
17407.3
15768
12119.2
18242.8
18084.6
18110.3
4710.56
3419.78
6357.71
4543.54
11592.5
7482.64
21420.3
14902.4
17855.2
18088.1
18101.4
18241.9
4127.68
3702.53
41652
51517.5
22145.1
29569.1
53755.9
66153.3
24899.2
30639.9
31165.6
40757.3
24816.6
34397.9
14250
18061.4
2720.49
867.729
3485.33
1212.76
6471.62
2666.36
11251.1
4128.01
7364
2445.44
7469.2
2112.79
14728.4
4285.77
19319.4
6051.69
24952.1
14237.8
21122
14587.3
25638
16507.8
20352.4
16480.6
16321.5
11759.7
17877.7
11282.3
20533.3
15161.4
21225.7
15575.3
19956
16893.3
20737.6
17248.7
16873.7
12499.1
18204.7
12984.5
17964.4
7353.89
10214.7
11629.9
19298.1
8461.39
10089.3
12118.4
18040.6
6876.46
10731.4
11497.3
18664.2
6928.46
11304.1
11619.8
2626.22
2934.43
928.673
1806.54
8058.57
9436.27
3306.95
6240.92
13124.9
15578.4
5874.45
10503.3
17435.2
9214.65
17554.1
20954.9
10485.1
6780.26
10845
12274.2
21281.3
13407.4
9899.5
12932.2
14271.3
13746.7
17090.2
2869.94
2945.29
1748.82
1896.98
9214.95
8814.77
5918.64
6008.56
13829.8
12728.3
8719.4
8782.69
9675.5
10832
15296.9
16227.7
16909.3
15923.1
19998.2
18398.7
13681.6
13651.8
12980.5
14191.5
16723.5
15428.2
15690.3
13262.9
13985.4
11319.5
15436.5
12355.5
14183.2
7761.25
11119.3
10892.5
15651.4
18310
15981.7
20892.6
9356.34
9292.81
12826.6
5988.84
10714.5
16966.7
11054.5
18074
16204.2
25579.5
16723.8
26126.6
9035.28
14853.9
9319.63
16060.5
11111.4
8350.71
14164.2
6460.24
12071.4
4696.04
13413.6
3437.26
11504.7
11884.7
14812.5
7676.66
10352.4
13671.3
13587.7
9743.28
2739.25
2558.92
2239.54
1799.57
1768.91
1560.88
8156.73
7090.3
6244.35
5306.33
4476.28
3812.22
10721.6
9172.6
8441.23
7630.05
6206.12
5658.12
9785.05
8032.02
7675.29
15192.8
11450.4
9382.69
13592.9
10078.9
7894.85
15076.2
11933.9
10132.6
11551.8
7934.51
5975.65
18296.2
15020.4
13434.8
13357.4
10685.7
8937.76
11714.9
8897.49
7068.85
10396.3
7849.34
6294.53
11112.5
6720.68
4238.43
11376.5
18575.1
9631.24
13821.5
9198.02
18979.9
7688.4
15549.3
213.836
1604.14
-187.832
932.349
3526.83
6695.42
2193.35
4030.62
1845.64
3942.62
10951.2
16363.6
8696.99
6425.23
11557.4
10101
15458.4
16539.8
-544.407
-5440.5
8345.21
5871.43
6483.78
3740.08
1450.09
946.091
1150.68
708.673
3914.35
1269.72
1933.1
228.932
9963.38
3029.03
7450.85
2318.58
8454.89
2552.77
9578.19
3175.78
12211
12137.9
9523.53
12067.3
18399.8
16638.2
15087.6
15858.1
7129.45
9426.9
8312.53
8687.9
8929.72
12027.8
9397.09
12161.7
14416.6
15587.4
14948.1
15721.3
6316.32
9587.67
6130.28
9728.91
933.422
1595.73
7692.19
4466.05
913.371
1372.1
6732.14
3788.25
920.223
1437.71
8139.68
4916.61
1230.6
1560.67
8240.2
5191.24
-151.72
-275.647
463.971
334.402
-797.137
-1316.92
820.599
582.73
1277.36
247.853
2689.1
2404.88
-7682.81
-3910.18
-4468.45
-2877.53
175.947
-7077.5
-10391.2
-4912.94
-4883.84
157.269
9305.91
6873.86
5749.21
6011.85
3679.35
-490.221
-384.08
184.103
301.794
-1433.86
-1627.48
623.722
863.063
-1184.06
-1827.87
1594.47
1976.14
-3143.12
-1691.01
-8097.1
-5799.33
-4288.25
-3108.68
-3815.42
-3192.31
495.048
1341.12
4898.35
3378.94
-490.266
-2264.35
-605.6
-1944.45
553.098
-566.996
1084
1537.27
4090.3
4540.62
9764.13
6209.64
8607.2
8426.04
12970.7
10167.4
7590.13
4708.54
2619.59
3329.29
11561
4888.61
12394.8
4499.04
14903.3
9783.14
15852.6
9378.78
9133.11
3452.81
9920.75
2989.73
5894.75
4892.42
4680.3
8167.1
2989.16
3965.46
3152.96
6896.05
6480.24
4604.23
5639.89
9360.84
7773.64
4385.82
6588.95
9300.73
-551.395
-730.748
-861.006
177.517
-153.88
-206.258
-2093.28
-2591.74
-2818.1
350.916
-607.723
-754.495
-2535.9
-3705.55
-4212.29
1073.67
-1079.8
-1532.9
-968.933
-1525.03
-1382.05
-4570.32
-4941.69
-4604.53
-3572.37
-4246.55
-4129.09
-3766.69
-4833.6
-5034.42
666.792
-1576.71
-1525.08
3961.27
1910.83
1076.28
-1473.94
-2735.12
-3140.63
-1687.49
-3084.15
-3441.29
-981.348
-2707.67
-3075.47
1974.36
-1069.21
-1290.72
74.4786
-6.35506
-36.1458
-77.6814
-103.45
-101.08
-117.94
-120.253
212.009
-9.6389
-108.988
-225.034
-251.607
-248.813
-277.258
-296.666
431.768
51.4766
-117.388
-345.608
-41.2291
-207.821
-249.096
-339.377
-47.1201