/*--------------------------------*- C++ -*----------------------------------*\
| =========                 |                                                 |
| \\      /  F ield         | OpenFOAM: The Open Source CFD Toolbox           |
|  \\    /   O peration     | Version:  2412                                  |
|   \\  /    A nd           | Website:  www.openfoam.com                      |
|    \\/     M anipulation  |                                                 |
\*---------------------------------------------------------------------------*/
FoamFile
{
    version     2.0;
    format      ascii;
    arch        "LSB;label=32;scalar=64";
    class       volScalarField;
    location    "2.4";
    object      gradTy;
}
// * * * * * * * * * * * * * * * * * * * * * * * * * * * * * * * * * * * * * //

dimensions      [0 -1 0 1 0 0 0];

internalField   nonuniform List<scalar> 
5712
(
12725.6
6991.64
22178.2
14514.4
21351.7
18146.2
31502
38994.4
47934
60653.4
25381.9
22288.1
15630.5
10763.6
10309.6
5868.91
21207.3
19184.5
19151.9
18995.1
24350.9
23408
28099.3
24221.7
7499.69
5270.35
3903.63
2700.41
10929.6
7070.62
6055.32
3923.41
21495.7
22791.8
19319.6
15806.7
15644.7
12190.7
13228.7
12625.3
17700
17376.9
35970.7
39599.4
25812.3
27271.8
18556.3
14605
18978.8
13333.5
8061.35
6951.93
5999.06
8843.19
2982.15
4034.3
7956.73
11814.1
4994.07
6809
8128.72
14168.7
6193.06
10122.1
1940.9
6807.08
342.084
4876.44
18228.2
21938.8
19090.4
21693.6
23042.6
23496.7
23445.6
22898.7
16969.5
20512.3
16993.4
20238.4
19109.9
21512.3
18743.3
21356.7
23596.1
22547.4
23584.5
22346.9
15923.4
20537.5
14521.1
20438.8
17423.2
18581.8
21948.5
30601
18230.8
21386.9
21815.3
33352.2
16495.1
16490.6
21840.9
29099.2
15858.2
15158.2
21813.3
28363.3
4359.89
5486.22
11866.8
19258.6
5244.61
5856.55
14708.7
21661.8
6268.75
6524.81
18018.5
24504.6
24850
27739.3
20791.2
18914.4
25516.7
28287.2
24356.9
20827
17503.8
28791.4
25928.8
23789.7
19849.9
20207
37534.4
1582.07
2082.63
4218.43
8624.95
2247.1
3109.83
5621.37
10116.8
3397.13
3281.91
7561.65
12100.1
27683.7
27805.9
22876.5
22049.4
19145
17167.4
13911.2
12397.9
10636.3
15742.5
24469.7
22254.5
22498.5
21251.6
18883.6
17571.8
16138.6
14354.4
12683.5
17301.1
23050.5
24586.5
23822.6
26188.7
23351
21626.5
23647.8
22715
20718.1
20978.4
20445.4
20360.5
24211
26813.3
24004.5
26523.4
23921.4
23638.9
23613.7
23431.4
20521.1
20816.1
20762.4
20955.3
17695.5
17513.4
12116.5
14450.7
17845.7
17250.5
12456.1
14923.3
17212.5
17266
11973.8
14475.7
17363.2
17072.2
11860.4
14131.7
1813.2
1492.87
1110.24
1017.07
882.936
871.691
2707.85
1947.18
1535.32
2364.08
2128.74
1858.95
2901.88
2846.3
3046.4
4271.67
3750.36
3457.13
26743.2
24034.6
22107
22190.2
20983.6
19939.6
15118.4
14583.6
14308.8
10658.9
10186.8
9998.16
6941.41
5186.22
4271.47
21137.2
19665
18576
21017.3
19753.7
19010.2
15607
14009.4
13125.5
11188.1
9958.66
9408.48
7352.78
5493.2
4524.85
28192
29295.1
29964.4
27578.3
27493.6
27546.5
32756.3
28276.9
18009.7
19857.4
17936.1
17699.6
23900.3
21063.5
23351.3
18468.1
25737.9
26898.9
22069.9
24832.3
28982.1
25399.2
28648.1
29711
30306.5
32448.6
24628.8
25242.9
21423.6
21096.6
24480.6
23617.4
16582.6
9391.22
15476.9
10394.2
16092.1
9190.87
14893.8
10058.9
14712.8
8500.38
13827.6
9555.77
13571.7
9928.85
13024.2
9913.79
22601.8
17922.5
22076.9
17988
25242.8
22671.3
25236.2
22233.7
20362.2
14174.4
21226.4
13743.5
22448.7
18010.9
23019.7
17953.9
25780.4
22050.7
26183.6
21928.7
19771.1
14324.5
19605.5
14309.5
12096.3
8293.93
10733.6
6731.88
11196.5
7410.26
10066.6
6151.32
12355.7
8801.6
11021.8
7058.43
12419.4
9141.31
11091.7
7253.68
2661.63
1434.48
4915.53
2707.78
2752.68
1659.6
4977.76
2994.6
3000.41
2225.65
4923.73
3463.84
13601.8
22729.6
8782.96
7926.85
5552.04
23280.8
15017.8
8397.18
7447.01
4284.79
22445.6
16287.4
11933.8
8693.19
5220.28
1027.68
1008.02
1831.3
1728.1
1283.28
1002.68
2240.62
2050.83
1819.73
1617.16
2737.96
2459.72
23681.3
22768.5
15143.1
13933.2
9501.68
9213.04
7257.76
7022.17
3930.79
3557.05
20649.3
17834
15099
13088.1
11289.3
10368.1
7953.96
7721.46
4832.65
5496.93
14258.7
11375.9
14370.2
10708.9
18152.7
13515.9
18380.8
13252.8
11721.4
9533.07
11608.8
10187.7
14814.7
10192.9
14917.6
10286.5
19240.6
13575.1
19166
13656.6
11788.1
8936.33
11963.2
9290.5
8329.27
7710.92
5367.58
7349.97
8454.72
8096.56
5465.48
7261.78
8293.87
7486.05
5208.99
7683.44
8721.25
7542.11
5427.67
7593.91
2489.82
1998.24
1568.1
9398.49
4610.04
3534.25
2284.44
2145.93
1828.61
9811.73
5352.08
4317.33
2812.95
2996.23
3009.31
10273.9
6570.99
5762.02
20609.4
18775.6
17453.7
13218.9
12490.3
11991.4
9594.05
9262.1
9075.84
8433.17
8007.01
7822.69
11754.8
8554.46
7669.5
15286.5
13799.7
12795.1
11662.8
10701.6
10134.2
10276.5
9305.69
8599.54
9850.62
8824.33
8270.3
15128.2
10640.8
9721.59
5009.25
3001.83
2208.65
2084.09
5634.21
3247.65
2301.44
2137.76
4856.74
2952.79
2200.58
2108.75
5591.78
3255.74
2324.47
2151.88
4585.07
2881.6
2216.59
2074.79
5433.74
3284.49
2383.9
2111.38
5707.63
3424.3
2406.04
2242.37
5872.68
3572.73
2508.79
2331.7
4888.81
3057.93
2299.33
2101.68
3896.21
2654.42
2132.81
1977.79
4208.48
2750.4
2185.4
1925.84
3469.36
2452.19
2035.41
1880.06
5291.66
3282.56
2391.53
2211.75
4160.49
2812.97
2205.86
2042.05
5521.85
3442.09
2475.92
2265
4311.13
2930.33
2271.91
2067.24
3747.29
2586.91
2060.99
1965.35
2396.41
2089.18
1868.09
1811.54
3623.15
2542.58
2055.99
1964.25
2374.65
2081.24
1864.63
1821.16
3431.3
2474.34
2053.04
1949.96
2439.97
2109.28
1867.25
1856.34
3219.63
2366.79
2005.76
1940.05
2455.22
2111.43
1896.47
1857.7
2908.7
2252.4
1915.66
1810.62
896.254
1615.36
1478.21
462.121
-882.903
1350.55
1282.18
443.671
1068.11
1679.32
1505.01
488.578
-618.203
1425.81
1304.23
451.392
1343.19
1774.95
1530.75
486.301
-210.605
1545.79
1331.36
453.547
1719.12
1891.79
1567.19
517.394
251.103
1691
1375.11
469.94
2236.74
2047.09
1633.99
578.598
688.588
1824.93
1417.89
483.379
2580.62
2227.44
1677.2
539.369
558.063
1969.64
1508.12
503.352
2536.52
2148.1
1639.1
542.119
628.478
1915.17
1459.26
490.248
2552.63
2286.16
1716.73
507.579
434.453
2020.64
1547.68
504.806
2537.92
2363.96
1788.97
524.6
596.267
2100.19
1602.85
519.524
2008.51
1555.18
1093.09
645.861
213.37
2012.86
1556.84
1094.37
646.585
213.598
2044.33
1567.93
1098.96
648.526
214.14
2042.87
1571.66
1101.85
650.114
214.636
2066.25
1581.76
1105.49
651.498
214.998
2052.43
1592.53
1113.14
655.584
216.271
2122.53
1620.85
1129.12
663.684
218.743
2160.82
1647.54
1145.2
671.986
221.289
2122.14
1610.08
1120.28
658.737
217.182
2182.24
1618.87
1121.84
659.06
217.235
2085.34
1596.71
1112.37
654.654
215.916
2167.24
1610.44
1117.01
656.582
216.465
2149.92
1625.92
1129.88
663.738
218.728
2207.87
1634.45
1131.15
663.897
218.732
2175.63
1653.83
1147.32
672.795
221.516
2238.02
1661.54
1148.11
672.753
221.472
2005.97
1554.13
1091.8
645.082
213.122
2037.29
1555.33
1091.14
644.624
212.974
2030.01
1564.42
1096.29
647.046
213.676
2059.28
1564.58
1095.1
646.337
213.457
2066.65
1578.24
1102.14
649.608
214.4
2104.85
1577.85
1100.54
648.701
214.123
2121.03
1593.45
1108.61
652.52
215.233
2151.06
1590.35
1106.34
651.348
214.869
2154.44
1603.11
1113.19
654.68
215.874
8334.76
12881.7
8796.67
13256.6
9564.35
13869.3
10481.6
14930.6
11504.4
16748
10662.1
13159.7
10934.8
14078.4
10615.4
13011.2
10495.1
12980.9
6681.14
1195.27
262.679
58.9765
10.3869
7948.54
2193.55
533.642
120.925
21.1124
6844.77
1181.02
254.731
56.6641
9.92249
8121.28
2208.25
530.25
118.59
20.6308
7143.14
1186.5
249.5
54.7623
9.52432
8454.24
2248.64
530.116
117.144
20.2324
7504.59
1187.84
243.486
52.9162
9.1754
8883.32
2299.78
533.748
117.074
20.1589
7811.46
1187.86
241.867
52.8258
9.21618
9282.41
2344.52
543.253
119.782
20.7411
7625.41
1377.62
311.154
72.1864
13.0405
8590.92
2444.78
611.525
142.54
25.6165
7741.21
1303.19
280.512
63.1053
11.1914
8887.08
2410.87
580.232
131.236
23.1127
7566.62
1427.13
331.612
78.5007
14.3681
8505.47
2467.01
630.257
149.762
27.305
7524.14
1408.01
328.609
78.4276
14.45
8456.6
2449.78
630.218
150.931
27.6705
35245.9
48999.8
43879.6
33163.5
18571.3
19486.9
29589
29650.2
19940.7
21274.9
31760.7
42250.9
46910.5
63613.2
23929.1
26258.4
19361.5
18863.4
13430.8
13798.8
4162.98
2978.28
845.106
672.327
800.301
690.79
832.138
4181.32
4296.94
2777.4
3712.53
3373.97
1605.26
2227.07
1955.72
1341.66
1515.75
1273.8
3635.88
2190.93
1435.26
1322.24
1605.05
1395.76
1104.78
1113.02
1052.68
949.121
1208.37
1134.26
3721.48
2425.46
2572.24
1824.33
1548.6
2134.06
1139.15
925.252
1260.2
8821.53
9293.68
9671.12
12066.7
21279.2
6733.27
7786.69
8600.24
10209.1
12059.9
2230.51
3203.87
3957.92
4481.53
4753.96
1784.92
2585.65
3214.21
3649.01
3872.57
2118.79
3055.58
3781.31
4277.49
4530.72
1833.7
2655.25
3298.05
3740.3
3966.51
2199.27
3164.37
3911.05
4424.52
4688.74
9272.7
10077.5
10138.8
11635.5
19267.2
9221.4
9707.92
9776.8
10713.2
12942.5
6451.3
7638.97
8272.68
9158.41
10101.9
8119.29
8794.7
8906.21
9376.65
10368
7482.64
8281.85
8392.52
8733.96
9363.3
4026.38
5368.04
6264.93
6900.23
7276.54
5328.49
6619.81
7360
7995.68
8494.6
4768
6076.61
6838.27
7384.23
7733.84
3439.41
4730.57
5638.4
6249.97
6576.88
3827.08
5145.62
6026.27
6619.81
6947.54
3284.33
4553.46
5454.9
6053.36
6364.28
8262.37
9315.57
9653.18
11356.7
18942
5307.26
6695.27
7588.25
8524.36
9324.54
3659.18
4995.86
5939.46
6610.82
6995.96
3400.4
4702.41
5648.17
6322.78
6703.16
4043.32
5424.32
6393.07
7154.62
7647.32
3578.55
4924.26
5905.91
6637.86
7063.4
2879.85
4062.26
4957.34
5596.55
5943.5
2902.65
4096.36
4992.38
5617.41
5950.95
2756.34
3909.67
4770.62
5349.5
5645.41
2497.44
3569.02
4383.7
4937.31
5220.97
3131.44
4376.48
5283.91
5900.65
6226.18
2954.54
4161.39
5058.42
5674.96
6000.74
8194.21
8991.49
9406.53
11479.1
19601.3
5710.8
6984.55
7913.05
9193.1
10473.8
6468.34
8014.08
8740.67
10258
11898.7
4555.63
6003.61
7033.35
8007.45
8673.51
3939.13
5345.6
6362.12
7180.9
7677.68
5264.12
6703.07
7614.57
8657.91
9366.17
2965.34
4174.03
5082.08
5725.15
6073.46
2435.1
3482.04
4282.66
4832.63
5117.3
3256.14
4533.54
5474.59
6146.01
6518.73
18849.3
12263.1
19985.2
15071.4
24175.6
34138.2
25763.9
35567.6
20900
20499.4
18443.3
19167.7
22092.3
21978.6
27085.6
23278.4
14450.5
12638.5
6466.28
5097.24
16856.1
13391.9
8968.28
5987.86
21692.8
23897.9
19927.9
17776.9
20713.8
13851.5
13070.1
12623.7
17721.2
17382.8
35850.8
39605.1
25383.3
27160.3
18981.1
14722.2
19469.8
13430
8467.85
7028.67
13236.6
15819.7
5362.14
6471.9
14203.2
17698.9
7221.68
9093.99
12420.3
17995.8
7772.95
11888.1
2203.64
7433.42
359.927
4998.81
18564.9
20435.9
18826.7
20877.3
21500.1
21441.9
22469.4
21764.3
17424.2
20158.6
18673.8
19585.7
18929
21092.3
18679.6
21219.4
23099.8
21967
23442.8
22159.7
16044.2
20346.9
14532.6
20373.8
17971.3
19647.4
22062.9
30979.3
19177
23405.6
22067
34159.1
16743.1
16972.2
21878.5
29263.5
15922.6
15287.1
21819.3
28409.9
17667.8
20168.9
23200.4
32684.7
16874.8
18243.7
23958.2
32448.7
14756.8
15266.8
24136.3
31145.6
18762.7
20733.8
19094.5
19460.7
28499.7
20342.1
17723.3
20128.7
18057.5
32419
20579.7
19538.1
18069.4
20624.4
39079.9
12825.7
12338.3
10623.3
13263.7
12494.1
12140.4
10847.5
13749
11497.4
10520.7
10725.1
13838.6
19982.1
19494.7
17245
16536.5
18362.2
16958.5
14484
12943.8
11902.7
15789.8
19872.9
18684.7
18888.7
18493.4
17187.7
16093.8
16112.1
13974.2
12828
16355.4
21077.1
22757.5
22694.2
25059.2
21070.9
19878.6
22396.9
21718.3
20026.1
20213.5
19282.7
19144.6
23664.2
26288.3
23840
26366.8
23325.2
23192
23436.6
23299
20167.4
20425.8
20653.8
20840.4
17396.4
17081.4
12038.2
14237.1
17464.6
16635.6
12442
14607.9
17037.5
17023.9
11908
14343.3
17304
16995
11834.4
14085.1
11984.3
12967.4
4611.9
4738.48
11677.4
11794.6
5289.51
5507.44
9442.79
9221.01
5769.4
5620.08
19059.7
18167.1
17064.8
16897.3
15217.6
14772.1
11140.5
10262.7
7281.44
5675.32
18616.3
17873.9
19282.1
18375.3
14631.4
13388
10923.2
9806.51
6628.1
5170.27
23572.6
23600.2
27736.5
24906.2
24917.9
24129
32501.1
26776.7
19217.9
15108
20527.6
16167.9
20096.4
15164.5
21386.9
16139
22190.6
20576.3
19550.3
19037.4
20811.3
22045.6
27335.1
29316.5
29494.4
32200.3
22935.5
24710.3
20315.2
20782.8
22719.7
23093.1
12668.2
10111.2
13652.9
10488
12330.8
9832.09
13306.2
10163.2
11729.7
9055.98
12568.2
9566.22
12836.3
9858.95
12805.3
9879.33
18573.7
16627.5
20165.5
17098.5
22007.5
20430.1
23642.3
20960.5
18438.6
13793.3
17241.6
13467.9
21512.6
17507.4
22739.4
17785.2
24985.3
21386.9
25948.3
21713
18853.3
14060.5
19341.2
14213
11614.4
8587.59
10855
7148.66
10945.1
8307.59
10634.8
7052.4
12014.3
8882.13
11021.4
7252.38
12298.3
9148.17
11087.4
7324.94
11081.3
11608.8
9375.84
9038.06
10592.4
11254.8
9032.77
8700.5
9941.92
10446.6
8191.92
7789.57
16520.8
20533.2
14570.7
10266.2
7902.4
19998.9
17650.1
16130.9
10489.1
7454.25
20018.1
16517
13429.1
10767.8
7067.39
13431.2
16280.5
9743.64
11309.2
12639.3
14710.1
9114.32
10384
11239.7
12447.3
7706.29
8117.85
19415.2
18200.5
15950
15068.1
14754.7
15417
10886.4
11807.2
7319.14
7459.6
18088.4
15652.1
14953.2
13065.9
12773.4
12113.8
10294.9
10420.7
6723.41
7741.01
13844.1
11416.3
14102.1
10800.8
16678
12670.6
17544.9
12856.6
11920
9974.22
12051.4
10983.5
14633.9
10230.8
14853
10292.7
18811.4
13395.1
19034.2
13604
11820.7
9105.14
11941.9
9323.51
8757.27
8327.13
5858.61
8169.14
9405.33
9318.2
6493.39
8800.46
8450.64
7745.22
5430.74
8102.9
8776.26
7626.75
5520.29
7729.53
21669.1
22849.6
27352.8
22653.5
18777.2
19858.3
25623.3
21337.3
15289.7
16126.2
22146.9
18791.1
17061.2
16221.6
14974.7
14797.9
16309.5
16614.9
14071.4
13810.5
20898.7
18155.6
13533.9
13099.6
12092.5
12137.2
12580.9
12539
13503.8
13115.7
22115.3
18361.2
6415.01
3972.74
2808.34
2543.71
6622.18
4064.3
2848.7
2570.43
6139.34
3859.06
2746.59
2533.6
6437.25
3971.01
2797.48
2530.46
5680.21
3686.91
2684.1
2428.89
6062.31
3858.93
2780.14
2418.46
6068.48
3788.11
2691.62
2469.17
5989.7
3697.73
2603.4
2410.98
5463.52
3521.84
2613.11
2359.04
4403.76
3055.27
2385.6
2186.68
5172.77
3426.5
2589.69
2229.26
4303.54
3059.74
2382.04
2136.77
5594.75
3550.29
2582.07
2374.54
4434.88
3038.59
2365.9
2186.96
5611.77
3532.09
2544.5
2323.74
4401.26
3004.11
2328.43
2117.13
5972.66
3787.2
2737.44
2452.2
5255.59
3499.53
2622.6
2311.75
5650.91
3680.23
2690.45
2423.09
4944.83
3413.12
2584.02
2305.46
5177
3512.29
2628.5
2364.66
4519.08
3280.51
2511.16
2301.57
4672.73
3259.39
2484.87
2277.45
4201.95
3146.89
2446.08
2228.31
4144.56
3046.08
2352.15
2083.37
3996.62
3125.95
2186.88
629.456
1767.47
2874.59
1997.46
633.546
3814.79
3090.61
2179.53
654.202
1748.33
2846.72
1985.98
634.718
3546.07
3011.5
2129.03
631.026
1685.57
2789.21
1943.94
619.065
3519.35
2942.82
2107.03
658.284
1834.31
2736.08
1909.75
617.937
3542.42
2862.27
2086.48
709.305
1929.38
2650.23
1859.04
610.372
3017.41
2616.3
1991.68
657.05
807.226
2342.84
1760.69
585.442
3334.12
2743.18
2037.49
671.019
1205.24
2495.01
1805.23
594.797
2759.35
2501.61
1917.21
587.44
508.769
2224.36
1700.41
556.561
2588.29
2431.77
1856.54
552.011
605.947
2163.32
1652.98
536.826
2377.67
1778.34
1218.39
708.573
232.338
2357.52
1771.44
1216.07
707.681
232.093
2396.92
1775.42
1214.66
706.328
231.616
2354.53
1763.89
1210.39
704.532
231.105
2392.53
1770.76
1210.22
703.738
230.788
2305.73
1747.56
1200.51
699.397
229.533
2286.4
1717.63
1184.05
691.343
227.128
2222.33
1685.35
1166.83
682.913
224.608
2346.16
1745.17
1196.19
696.78
228.698
2408.45
1754.01
1197.42
696.891
228.684
2375.75
1764.3
1205.07
700.897
229.895
2452.17
1766.16
1202.8
699.374
229.403
2301.11
1723.01
1185.3
691.642
227.186
2355.07
1731.59
1186.78
691.917
227.227
2226.48
1686.72
1166.31
682.408
224.439
2287.87
1695.77
1168.04
682.862
224.551
2409.68
1788.07
1221.27
709.605
232.616
2483.03
1797.13
1223.23
710.239
232.782
2423.46
1787.59
1218.91
708.028
232.091
2495.92
1797.03
1221.27
708.899
232.336
2445.04
1786.13
1215.42
705.848
231.378
2525.12
1795.91
1218.06
706.892
231.677
2478.28
1781.41
1210.65
703.189
230.532
2545.2
1788.55
1213.19
704.319
230.856
2482.69
1774.18
1206.58
701.149
229.914
10746.5
14376.2
10713.7
14352.9
10756.6
14361.4
11138.6
14968.6
11661.2
16293.9
10642.5
13053.5
10963.2
13906.3
10588.6
12942.3
10484.8
12958.2
7694.38
1332.01
286.948
63.6578
11.1329
8905.63
2422.29
581.901
130.543
22.6388
7694.61
1295.43
275.227
60.6627
10.5641
8894.82
2400.32
571.573
126.903
21.9637
7728.38
1267.11
264.433
57.764
10.0153
8941.38
2382.69
560.488
123.468
21.267
7832.48
1233.8
252.548
54.8446
9.50237
9100.32
2374.14
552.466
121.235
20.8666
7925.75
1206.18
246.156
53.8512
9.40165
9283.7
2372.72
552.563
122.116
21.164
7616.22
1376.86
311.483
72.3755
13.088
8554.83
2441.05
611.925
142.88
25.7058
7764.4
1308.24
282.259
63.6278
11.2973
8855.07
2416.03
583.637
132.322
23.3355
7551.89
1424.97
331.418
78.5287
14.3828
8477.11
2462.04
629.7
149.783
27.328
7517.98
1407.02
328.473
78.419
14.4517
8446.43
2447.79
629.916
150.907
27.6727
34811.3
48870.5
43593.2
31877.1
23879.1
28308.5
23714.6
28342.9
26610.3
41269.2
28679.3
44882
228.26
245.101
282.665
342.59
425.73
533.253
242.521
259.177
296.077
354.213
434.65
539.074
216.599
210.766
233.756
227.892
272.523
266.906
336.254
332.914
425.212
428.494
542.463
559.147
665.291
837.493
1078.65
1442.32
1800.9
2089.31
670.498
835.639
1041.7
1283.04
1506.29
1655.22
611.237
896.926
1127.32
1288.79
1371.95
656.123
962.338
1209
1381.71
1470.59
756.27
1108.28
1391.24
1589.02
1690.71
915.792
1340.23
1680.3
1917.46
2039.26
1136.47
1659.77
2077.14
2367.44
2516.39
1420.47
2068.04
2581.41
2937.67
3120.59
649.282
952.469
1196.83
1368
1456.11
693.628
1016.98
1277.25
1459.37
1553.06
791.887
1159.92
1455.46
1661.93
1768.05
946.438
1384.21
1734.58
1978.84
2104.3
1159.61
1692.21
2116.57
2411.83
2563.48
1434.93
2087.09
2603.72
2962.81
3147.65
580.055
851.312
1070.19
1223.65
1302.7
564.443
828.45
1041.54
1190.98
1267.96
625.836
918.129
1153.73
1318.77
1403.73
610.162
895.222
1125.08
1286.13
1369.04
729.267
1069.03
1342.34
1533.47
1631.75
714.289
1047.23
1315.17
1502.59
1598.97
899.038
1316.13
1650.53
1883.77
2003.53
890.183
1303.37
1634.75
1865.91
1984.59
1135.29
1658.43
2075.76
2365.88
2514.62
1144.05
1671.2
2091.61
2383.72
2533.39
1445.11
2103.98
2625.89
2987.46
3172.73
1489.23
2167.32
2703.55
3074.21
3263.77
1766.1
2558.59
3181.83
3614.4
3837.6
2209.95
3174.81
3925.44
4450.49
4725.95
2814.31
3980.02
4873.47
5518.22
5872.82
3683.41
5055.12
6087.46
6909.32
7417.29
4474.04
5926.99
7021.11
8029
8771.06
5077.39
6536.22
7646.41
8819.97
9786.56
1778.46
2573.93
3199.55
3635.24
3861.1
2204.37
3166.33
3916.34
4443.22
4721.06
2725.19
3870.47
4754.79
5390.07
5737.05
3317.98
4639.98
5652.04
6411.75
6852.47
3847.05
5294.44
6399.65
7278.08
7827.12
4190.76
5704.51
6862.79
7826.91
8461.32
231.341
254.462
298.837
366.341
457.837
574.319
245.655
268.671
312.296
377.608
465.509
577.183
219.618
213.745
243.006
237.045
288.673
282.962
360.446
357.218
458.662
462.357
587.507
607.25
714.338
891.583
1131.53
1482.38
1824
2096.15
714.445
882.366
1086.17
1318.81
1528.96
1662.85
619.501
909.12
1142.76
1306.55
1390.92
681.317
999.612
1256.25
1436.11
1528.73
799.834
1172.85
1473.24
1683.58
1791.86
979.893
1435.54
1801.74
2057.86
2189.66
1223.39
1789.6
2243.39
2560.42
2723.59
1532.11
2235.97
2797.92
3190.41
3392.8
657.704
964.924
1212.62
1386.19
1475.55
719.202
1054.87
1325.35
1514.82
1612.36
835.616
1224.82
1538.01
1757.22
1870.05
1009.62
1478.26
1854.56
2117.69
2253.13
1243.18
1817.13
2276.65
2597.75
2763.17
1538.52
2242.91
2804.64
3197.37
3400.3
588.161
863.27
1085.31
1241.03
1321.25
572.439
840.242
1056.45
1208.1
1286.23
650.71
954.887
1200.28
1372.31
1460.91
634.766
931.559
1171.06
1338.99
1425.49
772.747
1133.41
1424.03
1627.58
1732.38
757.5
1111.17
1396.25
1595.97
1698.78
964.312
1413.13
1774.07
2026.56
2156.46
955.752
1400.79
1758.8
2009.27
2138.12
1225.88
1793.85
2249.28
2567.42
2731.08
1235.84
1808.64
2268
2588.86
2753.87
1567.72
2288.78
2864.64
3266.62
3473.68
1620.49
2365.94
2961.19
3376.45
3590.22
1900.31
2762.53
3447.43
3926.97
4175.8
2359.67
3406.2
4231.66
4815.5
5123.74
2964.03
4218.71
5198.16
5913.8
6309.3
3803.02
5257.67
6376.2
7274.99
7830.12
4548.62
6062.17
7222.01
8293.61
9079.5
5101.56
6582.91
7718.31
8918.27
9904.34
1898.61
2756.27
3436.76
3914.15
4162.74
2333.25
3364.52
4177.47
4753.44
5058.53
2849.55
4065.55
5016.56
5705.67
6083.31
3420.21
4804.89
5878.69
6690.51
7162.01
3913.5
5404.72
6554.62
7472.46
8045.95
4213.58
5743.15
6917.91
7897.07
8541.13
4147.94
2979.68
910.099
728.046
880.865
757.534
907.758
3910.78
3820.51
2713.59
3206.56
1666.94
2184.72
1434.93
1603.83
1365.31
3532.19
2220.26
1517.22
1407.56
1675.96
1469.16
1172.25
1196.72
1165.87
1052.54
1305.13
1227.53
3682.19
2440.97
2564.81
1865.72
1608.35
2167.55
1215.24
1011.49
1342.54
8819.28
9338.39
9764.52
12249.9
21650.2
6752.9
7841.12
8694.39
10354.8
12251.2
2411.18
3484.92
4332.13
4929.6
5243.44
1937.63
2818.37
3518.21
4007.65
4261.11
2342.02
3401.44
4240.46
4826.25
5129.72
2016.92
2935.19
3664.79
4174.11
4437.3
2409.43
3491.28
4346.35
4945.76
5258.19
9058.27
10513.6
11282.3
13674.2
23053
8913.75
10467.6
11504.3
13661.4
17475.4
6552.28
8241.42
9452.67
10961.9
12414.7
7950
9860.15
10933.2
12585.2
14797.1
4294.58
5962.74
7227.58
8204.11
8803.98
5466.88
7250.42
8544.74
9728.65
10632
3748.06
5309.22
6512.6
7388.55
7879.66
4155.18
5816.79
7082.97
8032.02
8590.38
3581.05
5102.47
6280.69
7125.24
7586.95
8218.76
9641.21
10407.1
12655.2
21368.6
5494.65
7176.38
8417.2
9709.99
10772
3935.61
5521.68
6740.18
7660.11
8201.42
3665.71
5172.93
6338.52
7207.9
7707.86
4289.79
5904.55
7136.37
8144.22
8797.79
3805.87
5325.66
6494.22
7393.49
7922.04
3073.97
4378.23
5394.42
6135.41
6541.75
3145.71
4496.82
5551.45
6310.43
6722.59
3080.54
4435.09
5495.96
6243.1
6638.04
2787.69
4026.95
5001.98
5686.6
6045.62
3426.83
4890.79
6028.85
6845.77
7291.62
3229.13
4621.13
5707.5
6485.22
6906.24
8204.94
9155.54
9725.04
12031.5
20705
5786.62
7155.11
8190.31
9589.55
10967.2
6562.58
8335.99
9322.03
11151.7
13050.3
4696.89
6272.57
7445.21
8558.97
9313.68
4128.84
5687.3
6869.3
7840.51
8431.7
5433.56
7096.09
8267.11
9581.77
10471.2
3186.71
4539.43
5592.98
6359.51
6780.52
2677.5
3865.11
4799.96
5458.87
5805.75
3504.48
4960.54
6089.08
6924.19
7395.78
9354.88
8704.7
7674.17
6361.62
4614.64
1799.62
18930.8
20153.1
21620
22246.1
20441.6
20723.9
20840.2
21409.1
16472.2
18798
18658.9
18784
24858.2
17297.9
26894.2
17870.3
19156.6
20344.4
20574.9
19685.3
20903.3
19960
21120.8
17001.2
24890.9
19163.6
24234.2
25745.4
21042.5
31045.9
16683.2
17793.3
18565.4
18433.7
18608.1
20313.6
18662
20447.8
19205.3
24100
21558.6
23761.1
26910.2
23609.9
29892.8
15526.5
16557.3
16877.6
16537.9
17662.3
19922.3
17353.7
19710.1
17488.3
22231.7
19496.2
21142.1
23743.3
20893.8
26953.5
14376.7
15433.1
15551.3
15153.7
16814.9
19485.5
16063.7
18335.2
15529.7
18136.9
17565.1
16989.2
20772.6
17767.5
21773.6
13269.6
14301.2
14486.9
14080.4
15454.9
17640.1
15001.8
16960.3
13434.1
14669.6
15381.2
14250.6
18315.9
15044.3
19059.3
21942.7
22089.6
22776.4
23765.7
22704.8
23413.7
21867.5
22702
18915.5
12113.3
20069.3
11957.5
20177.6
16718.7
17206.8
21020.8
21474.6
21208.2
21701
22110.4
22904.5
20730.5
21730.6
16878.7
12119.5
17664.3
11837.8
17507.9
15774.4
15975.4
18522.6
19000.6
19028.6
19071.6
19782.1
20454.8
19039.9
20378.5
15636.7
12866.3
16540.7
12256.5
17037.4
14299.1
16584.8
16124.1
16754.6
17005.8
16766.4
17752
18450.4
17542.5
19005.5
13873.9
13953.8
14850.2
13106.4
15494.5
13060.4
17519.2
14532.4
15305.2
15526.9
15202.9
16450.5
17712.9
16090.7
17449.9
12975.4
15447.4
14362.5
15307.7
15719.8
14404.9
19970.3
13115.6
13989.8
14391.1
14028.3
15621.5
17351.9
14972.5
16560.3
12663.5
16684.8
14503
17325.2
16472.6
15199.6
22240.6
12444.6
6708.87
22161.7
14473
21347.4
18131.4
31496.4
38983.5
47928.8
60636.7
25387.5
22278.3
15636.3
10742.9
9960.51
5546
21202.6
19181.8
19146.4
18992.7
24347.3
23405.7
28094.6
24219.5
7326.2
5180.05
3781.47
2645.45
10921.5
7064.17
6056.1
3927.82
21490.7
22785.7
19316.9
15804.6
15641.3
12191.6
13227
12624.7
17698.7
17376.2
35968.7
39598.3
25810.9
27270.8
18555.9
14605.1
18978.3
13333.3
8061.31
6951.93
5895.2
8671.45
2915.89
3927.22
7960.9
11824.7
5003.45
6821.81
8131.22
14173.8
6196.74
10126.8
1941.43
6808.77
342.082
4877
18226.9
21938.1
19089.4
21693.1
23041.2
23495.9
23444.4
22898.1
16969.4
20512.1
16992.5
20238.1
19109.2
21511.9
18742.7
21356.4
23595.2
22546.8
23583.7
22346.4
15923.2
20537.4
14520.9
20438.7
17423.7
18583.8
21949
30601.9
18231.3
21389.4
21815.9
33353.5
16495.5
16491.8
21841.2
29100
15858.5
15159
21813.6
28363.9
4304.02
5443.21
11697.9
19107.5
5253.52
5866.33
14722.9
21680.1
6272.41
6528.5
18024.8
24510.3
24848.8
27738.4
20789.7
18914.9
25519.6
28286.2
24355.7
20825.1
17504.2
28794.2
25928
23788.9
19849.4
20207.8
37536.1
1556.97
2052.57
4164.87
8552.46
2256.26
3115.03
5632.92
10127.6
3400.36
3284.29
7566.53
12104.3
27682.9
27805.2
22875.5
22048.7
19143.9
17166.6
13912.1
12398.6
10638.7
15744.5
24469
22254.1
22497.9
21251.3
18883.4
17571.7
16139.3
14354.9
12684.5
17302
23050.1
24586.2
23822.3
26188.4
23350.5
21626.2
23647.4
22714.8
20718
20978.3
20445.3
20360.4
24210.7
26813.1
24004.3
26523.2
23921
23638.7
23613.3
23431.2
20521
20816
20762.3
20955.2
17695.7
17513.5
12116.8
14450.9
17846
17250.7
12456.6
14923.7
17212.6
17266
11974
14475.9
17363.3
17072.3
11860.6
14131.8
1778.01
1465.24
1091.31
1005.16
873.909
864.912
2710.13
1948.95
1537.77
2369.01
2132.98
1863.12
2903.14
2847.37
3047.48
4273.58
3751.99
3458.91
26742.6
24034.2
22106.8
22189.7
20983.3
19939.5
15118
14583.4
14308.9
10659.3
10187.1
9998.62
6942.36
5186.97
4272.23
21136.9
19664.8
18575.8
21017
19753.5
19010.2
15607
14009.5
13125.6
11188.5
9958.93
9408.8
7353.19
5493.53
4525.2
28196.4
29297.2
29968.2
27579.9
27491.3
27545.6
32753.1
28275.9
17868.2
19823.4
17759
17657.3
23922.5
21057.4
23377.8
18461.6
25743.4
26905.3
22072.3
24834.8
28981.9
25399
28648.6
29710.8
30305.7
32447.8
24630.6
25243.3
21424.4
21096.7
24481.3
23617.9
16566
9371.76
15457.2
10378.3
16089.1
9191.65
14891.1
10058.9
14711.8
8500.39
13826.9
9555.62
13571.8
9928.84
13024.5
9913.96
22602.6
17922.5
22077.4
17988
25242.3
22670.8
25235.7
22233.3
20362.7
14174.5
21226.8
13743.7
22448.9
18010.8
23019.6
17953.7
25779.9
22050.3
26183
21928.3
19771.4
14324.6
19605.7
14309.5
12096.7
8293.98
10733.8
6731.96
11197
7410.35
10066.8
6151.43
12355.9
8801.68
11021.9
7058.5
12419.6
9141.47
11091.8
7253.76
2648.9
1420.59
4900.76
2689.51
2755.23
1662.03
4978.98
2996
3001.29
2226.42
4924.11
3464.39
13601.7
22729
8783.1
7927.23
5552.29
23280.2
15017.4
8396.98
7447.15
4285.16
22445.1
16287.2
11933.8
8693.38
5220.43
1009.38
988.576
1807.99
1716.95
1284.39
1003.29
2241.75
2051.12
1820.3
1617.55
2738.48
2459.89
23680.6
22767.8
15142.6
13932.5
9501.1
9212.15
7257.64
7021.85
3931.09
3557.17
20648.8
17833.5
15098.7
13087.8
11289.1
10367.9
7954.05
7721.44
4832.8
5496.94
14258.5
11375.8
14370.1
10708.8
18152.4
13515.6
18380.5
13252.6
11721.4
9533.04
11608.8
10187.6
14814.6
10192.8
14917.5
10286.4
19240.3
13574.9
19165.7
13656.5
11788.1
8936.3
11963.2
9290.46
8329.32
7710.95
5367.63
7350.03
8454.8
8096.59
5465.57
7261.9
8293.9
7486.06
5209.01
7683.48
8721.26
7542.1
5427.68
7593.93
2455.58
1968.72
1544.47
9344.69
4570.99
3499.32
2283.48
2145.72
1829.23
9818.61
5357.95
4322.43
2813.4
2996.61
3009.62
10276.4
6573.29
5764.24
20608.7
18775.1
17453.3
13218.1
12489.6
11990.7
9592.94
9261.13
9075.07
8432.8
8006.58
7822.32
11756.1
8555.79
7670.89
15286.1
13799.4
12794.8
11662.5
10701.3
10133.9
10276.2
9305.47
8599.35
9850.66
8824.33
8270.32
15129
10641.6
9722.55
5009
3003.22
2209.15
2083.45
5632.54
3248.11
2301.57
2136.37
4855.33
2952.5
2200.5
2108.61
5590.87
3255.76
2324.52
2151.86
4584.51
2881.46
2216.55
2074.73
5433.33
3284.45
2383.91
2111.35
5707.46
3424.28
2406.05
2242.36
5872.69
3572.77
2508.84
2331.72
4888.68
3057.92
2299.34
2101.67
3896.2
2654.45
2132.84
1977.8
4208.31
2750.38
2185.4
1925.82
3469.37
2452.23
2035.44
1880.07
5291.61
3282.58
2391.56
2211.75
4160.51
2813.01
2205.9
2042.06
5521.89
3442.15
2475.97
2265.02
4311.17
2930.38
2271.96
2067.27
3746.92
2588.32
2061.77
1965.06
2392.5
2088.84
1868.45
1810.76
3621.76
2542.3
2055.86
1964.1
2373.82
2081.25
1864.52
1821.12
3430.82
2474.24
2052.99
1949.91
2439.89
2109.39
1867.27
1856.34
3219.56
2366.83
2005.79
1940.05
2455.31
2111.56
1896.53
1857.71
2908.76
2252.48
1915.71
1810.64
891.474
1615.05
1479
462.305
-887.354
1349.05
1281.96
443.551
1069.26
1680.15
1505.29
488.788
-616.334
1426.73
1304.66
451.539
1343.74
1775.35
1530.92
486.396
-209.67
1546.3
1331.62
453.634
1719.44
1892.01
1567.3
517.443
251.626
1691.29
1375.26
469.991
2236.9
2047.22
1634.06
578.628
688.862
1825.09
1417.99
483.409
2580.65
2227.48
1677.24
539.377
558.082
1969.69
1508.16
503.364
2536.59
2148.17
1639.15
542.133
628.558
1915.26
1459.31
490.266
2552.65
2286.2
1716.77
507.586
434.446
2020.68
1547.72
504.817
2537.93
2364.01
1789.02
524.613
596.252
2100.24
1602.9
519.538
2007.09
1554.49
1092.77
645.715
213.327
2010.89
1556.03
1093.98
646.405
213.544
2044.24
1567.87
1098.93
648.514
214.137
2042.84
1571.62
1101.83
650.111
214.638
2066.19
1581.72
1105.47
651.49
214.997
2052.4
1592.5
1113.12
655.58
216.272
2122.51
1620.83
1129.1
663.679
218.743
2160.81
1647.53
1145.19
671.982
221.288
2122.11
1610.06
1120.26
658.731
217.181
2182.21
1618.85
1121.82
659.053
217.233
2085.3
1596.67
1112.35
654.647
215.915
2167.2
1610.41
1116.99
656.575
216.464
2149.91
1625.9
1129.87
663.732
218.727
2207.86
1634.44
1131.14
663.891
218.731
2175.63
1653.82
1147.31
672.791
221.515
2238.03
1661.53
1148.1
672.748
221.471
2004.88
1553.54
1091.53
644.961
213.086
2036.28
1554.8
1090.9
644.521
212.948
2029.93
1564.36
1096.25
647.033
213.674
2059.22
1564.51
1095.06
646.326
213.459
2066.59
1578.2
1102.11
649.599
214.399
2104.79
1577.8
1100.51
648.693
214.124
2120.98
1593.41
1108.59
652.511
215.232
2151.01
1590.31
1106.31
651.34
214.868
2154.4
1603.07
1113.17
654.672
215.872
8301.92
12844
8797.57
13259.1
9565.27
13870.6
10482.2
14931.3
11504.8
16748.4
10662.3
13159.9
10935.1
14078.7
10615.6
13011.4
10495.3
12981.1
6670.57
1189.44
261.262
58.659
10.3319
7935.15
2189.19
532.562
120.677
21.0695
6842.6
1179.04
254.073
56.4894
9.88903
8119.34
2206.07
529.407
118.348
20.5823
7142.05
1185.8
249.225
54.6796
9.50735
8453.49
2247.6
529.654
116.998
20.2017
7504.15
1187.59
243.371
52.8773
9.16686
8883.06
2299.33