/*--------------------------------*- C++ -*----------------------------------*\
| =========                 |                                                 |
| \\      /  F ield         | OpenFOAM: The Open Source CFD Toolbox           |
|  \\    /   O peration     | Version:  2412                                  |
|   \\  /    A nd           | Website:  www.openfoam.com                      |
|    \\/     M anipulation  |                                                 |
\*---------------------------------------------------------------------------*/
FoamFile
{
    version     2.0;
    format      ascii;
    arch        "LSB;label=32;scalar=64";
    class       volScalarField;
    location    "2.4";
    object      T;
}
// * * * * * * * * * * * * * * * * * * * * * * * * * * * * * * * * * * * * * //

dimensions      [0 0 0 1 0 0 0];

internalField   nonuniform List<scalar> 
5712
(
541.074
557.177
528.522
547.825
511.731
534.033
485.691
509.956
489.098
513.612
513.21
537.347
524.277
546.318
534.667
553.701
503.104
487.434
519.915
495.627
477.492
460.45
493.278
467.512
548.64
555.135
561.266
564.506
539.136
547.659
554.054
559.097
538.001
525.609
513.326
506.504
539.231
549.388
539.304
544.733
503.4
510.281
516.204
521.861
475.283
481.291
550.501
555.312
522.284
531.401
560.569
566.051
559.778
567.495
567.007
570.678
553.048
564.987
562.259
568.945
543.829
560.703
552.463
565.122
558.737
567.281
562.53
568.633
474.359
460.257
481.433
463.203
441.392
428.737
448.873
432.446
508.061
490.708
501.988
487.737
486.32
465.214
489.176
466.292
454.147
434.914
457.17
436.242
512.662
492.735
515.318
493.753
532.814
558.735
517.834
548.453
527.327
555.098
514.2
545.289
536.685
560.549
519.984
550.286
538.755
561.305
520.928
551.422
555.742
546.494
564.723
557.789
548.355
539.069
561.63
553.808
537.552
527.599
556.246
547.247
460.122
421.92
493.787
519.938
548.381
420.662
458.229
489.883
514.741
540.43
419.94
455.148
484.207
509.312
538.895
527.968
510.883
531.701
515.443
522.81
505.701
529.683
513.013
514.221
497.468
526.069
509.171
413.9
401.343
451.308
439.148
480.935
466.397
503.18
487.303
522.491
505.412
412.698
398.765
446.912
433.883
474.878
460.807
498.462
482.828
519.654
501.896
445.515
434.981
444.377
433.78
411.581
391.668
410.225
388.232
473.543
465.322
474.186
465.185
443.696
432.573
444.268
433.265
410.063
386.775
411.102
388.255
472.865
464.341
473.441
464.991
499.869
492.085
522.241
515.21
499.579
490.753
521.574
512.573
499.335
491.298
522.229
515.61
499.446
491.509
522.106
515.031
491.115
474.746
465.803
494.111
477.06
467.978
486.489
469.793
460.859
491.397
473.659
464.32
477.507
460.338
451.051
486.924
468.174
458.37
385.122
373.437
367.486
422.464
407.114
398.825
448.825
431.541
421.828
467.652
450.053
440.613
481.776
461.784
451.235
381.287
368.948
362.227
418.633
404.715
397.456
443.965
428.09
419.649
462.623
444.351
434.572
476.019
455.914
445.567
417.002
403.842
420.824
408.128
445.787
430.054
454.073
436.185
389.287
369.224
390.525
371.219
390.102
369.666
391.886
372.269
390.007
386.775
389.408
382.952
368.605
372.856
410.89
413.791
440.468
444.279
391.612
394.017
391.978
393.771
375.268
376.946
347.705
328.933
353.306
332.325
349.18
328.646
354.746
332.533
350.226
328.1
357.064
333.2
360.186
335.486
362.364
337.36
382.609
370.965
389.826
375.889
409.251
396.327
417.278
401.25
369.231
355.801
361.778
351.131
393.914
378.831
396.394
380.462
422.063
404.199
424.858
405.72
373.059
358.643
375.225
360.288
351.964
330.381
340.088
324.387
345.32
326.095
336.194
321.545
355.794
333.276
342.633
326.328
358.057
335.304
344.262
327.618
330.2
319.043
322.084
314.67
331.295
320.621
321.766
314.775
332.705
324.129
321.237
315.553
362.776
386.949
345.634
334.434
320.252
385.011
359.326
339.636
327.77
315.916
385.259
361.265
343.583
330.874
318.186
309.849
300.953
306.768
298.062
312.317
303.385
307.792
299.29
316.621
308.215
309.521
301.371
378.309
365.967
352.493
341.335
334.379
325.726
322.407
314.106
311.775
304.092
378.07
365.336
354.84
343.916
337.736
328.407
325.207
316.242
314.556
306.819
357.895
344.393
358.949
343.677
379.375
363.003
380.196
360.664
341.985
329.708
340.811
329.626
359.865
343.155
361.27
344.556
381.4
358.849
382.872
360.278
342.892
329.832
344.129
330.991
327.701
317.581
317.027
307.354
327.421
316.937
316.329
307.16
327.926
318.264
317.41
307.356
329.495
319.018
318.103
308.575
289.848
283.745
281.374
282.742
278.457
277.036
293.022
286.589
283.919
284.065
279.609
278.001
298.057
291.357
288.69
286.104
281.286
279.592
352.438
343.047
338.618
330.576
323.121
319.909
315.579
308.883
306.296
303.458
296.654
293.905
288.047
283.125
281.199
350.829
340.697
335.828
331.841
323.079
318.822
317.248
309.552
306.007
304.079
297.66
295.184
289.251
284.549
282.219
314.279
305.191
299.352
294.441
315.777
305.792
299.636
294.484
314.16
305.223
299.464
294.609
316.022
306.008
299.885
294.724
313.876
305.232
299.644
294.882
316.341
306.315
300.221
295.037
317.583
307.06
300.562
295.175
318.827
307.887
300.963
295.343
315.294
306.077
300.222
295.271
312.984
305.317
299.848
295.468
313.248
305.132
299.755
295.188
311.612
304.627
299.493
295.423
316.849
306.903
300.583
295.341
314.139
305.976
300.184
295.594
318.084
307.656
300.994
295.559
315.115
306.604
300.585
295.87
311.792
304.26
298.962
294.467
308.848
303.205
298.486
294.582
311.627
304.25
299.02
294.601
308.873
303.254
298.537
294.693
311.341
304.223
299.111
294.835
309.159
303.434
298.679
294.901
310.863
304.156
299.187
295.138
309.303
303.566
298.828
295.158
310.273
304.039
299.168
295.38
306.14
302.334
297.949
295.057
304.578
301.915
297.715
295.255
306.555
302.505
298.058
295.147
305.058
302.104
297.823
295.338
307.233
302.802
298.241
295.301
305.857
302.434
298.006
295.484
308.05
303.164
298.511
295.528
306.838
302.855
298.266
295.682
309.084
303.642
298.837
295.771
307.78
303.302
298.538
295.892
310.541
304.576
299.335
296.153
309.073
304.234
299.113
296.348
309.864
304.089
299.076
295.966
308.517
303.774
298.822
296.118
311.174
305.087
299.602
296.327
309.646
304.736
299.405
296.577
311.948
305.665
299.969
296.591
310.423
305.307
299.773
296.864
289.34
285.762
283.12
281.39
280.536
289.353
285.771
283.126
281.394
280.539
289.411
285.797
283.139
281.402
280.545
289.438
285.817
283.151
281.41
280.551
289.488
285.837
283.161
281.415
280.555
289.562
285.888
283.192
281.435
280.57
289.738
285.991
283.254
281.474
280.6
289.908
286.096
283.318
281.515
280.63
289.656
285.93
283.215
281.449
280.58
289.692
285.937
283.217
281.449
280.581
289.571
285.879
283.184
281.429
280.566
289.64
285.905
283.198
281.437
280.571
289.758
285.993
283.254
281.474
280.599
289.792
285.998
283.254
281.473
280.599
289.939
286.108
283.324
281.519
280.633
289.969
286.11
283.323
281.517
280.632
289.33
285.753
283.114
281.386
280.533
289.331
285.748
283.11
281.383
280.531
289.385
285.779
283.128
281.394
280.539
289.38
285.771
283.122
281.39
280.536
289.459
285.813
283.146
281.405
280.547
289.45
285.802
283.138
281.4
280.544
289.541
285.852
283.167
281.418
280.557
289.519
285.837
283.158
281.412
280.552
289.596
285.881
283.183
281.428
280.564
539.794
535.461
539.078
534.697
537.721
533.315
536.072
531.467
534.642
529.71
535.052
532.131
534.732
531.126
535.18
532.401
535.387
532.585
565.995
571.46
572.652
572.923
572.981
560.197
569.902
572.299
572.848
572.963
566.089
571.508
572.666
572.926
572.981
560.136
569.931
572.312
572.852
572.964
566.07
571.54
572.677
572.929
572.982
559.925
569.935
572.321
572.855
572.965
566.073
571.576
572.688
572.932
572.983
559.635
569.914
572.321
572.855
572.965
566.073
571.584
572.688
572.931
572.983
559.367
569.855
572.304
572.85
572.964
564.9
571.169
572.572
572.902
572.974
558.705
569.449
572.169
572.813
572.952
565.369
571.354
572.627
572.916
572.978
558.95
569.638
572.237
572.832
572.958
564.586
571.044
572.534
572.891
572.971
558.556
569.337
572.127
572.8
572.948
564.692
571.06
572.534
572.89
572.97
558.624
569.335
572.119
572.796
572.947
424.308
462.074
459.136
421.963
403.755
405.583
410.814
413.952
423.557
426.756
449.63
456.557
453.929
460.541
431.899
434.414
422.833
425.226
414.41
416.37
364.734
347.04
302.632
297.004
301.246
297.622
302.246
364.706
358.999
340.99
348.4
342.764
320.965
331.152
326.113
315.636
318.881
314.113
358.96
333.541
318.172
315.81
322.204
317.956
310.369
310.566
308.753
305.811
312.795
311.044
359.066
338.264
344.932
328.059
321.855
333.677
311.308
305.075
314.414
349.057
334.285
321.088
306.683
286.632
336.616
325.352
313.256
299.551
282.629
299.674
295.518
290.062
283.644
276.618
294.651
291.313
286.894
281.671
275.947
298.445
294.49
289.279
283.146
276.446
295.205
291.776
287.239
281.882
276.018
299.334
295.232
289.841
283.499
276.567
348.893
332.721
318.658
304.014
285.599
342.743
327.091
313.344
299.19
282.495
331.269
320.247
308.352
295.429
280.877
334.381
320.401
307.757
294.875
280.871
330.194
317.014
305.041
292.917
279.964
315.346
308.083
299.242
289.288
278.541
323.357
314.053
303.498
291.973
279.511
319.268
310.831
301.038
290.316
278.885
310.94
304.647
296.749
287.732
277.999
313.576
306.642
298.139
288.563
278.28
309.655
303.623
295.994
287.259
277.834
345.218
330.502
317.302
303.125
285.083
325.873
316.524
305.787
293.759
280.214
313.149
306.477
298.161
288.659
278.329
311.182
304.948
297.075
288.003
278.106
316.586
309.272
300.313
290.092
278.85
313.071
306.523
298.299
288.805
278.385
306.502
301.177
294.315
286.305
277.526
306.67
301.301
294.381
286.324
277.529
305.068
299.957
293.339
285.645
277.291
302.489
297.844
291.782
284.693
276.97
308.565
302.796
295.436
286.944
277.734
307.074
301.613
294.59
286.438
277.565
345.053
330.873
318.09
304.1
285.458
329.775
319.919
308.821
296.18
281.242
335.559
323.516
311.463
297.924
281.273
321.674
313.48
303.663
292.38
279.641
316.435
309.264
300.398
290.177
278.856
326.208
316.817
306.098
293.974
280.125
307.321
301.843
294.799
286.597
277.624
301.837
297.307
291.391
284.459
276.893
310.003
304.015
296.403
287.592
277.965
505.098
544.314
497.377
534.519
473.921
514.903
481.071
525.839
488.309
477.59
515.049
491.533
464.409
452.321
489.577
464.434
522.377
536.478
552.551
558.309
516.573
530.86
546.2
553.339
532.132
510.529
509.005
496.609
526.199
544.265
537.7
544.394
501.65
509.857
514.845
521.528
474.011
480.968
548.749
554.975
520.536
530.99
559.209
565.84
548.902
563.759
563.27
569.409
542.64
561.546
558.504
567.7
535.426
557.941
548.733
563.864
557.379
566.78
562.259
568.524
471.452
460.874
479.691
463.582
441.279
432.138
448.612
434.312
505.632
490.223
497.672
486.722
485.529
465.48
488.975
466.4
454.064
435.928
457.167
436.589
511.554
492.556
515.024
493.715
530.496
557.864
517.125
548.136
522.992
553.457
512.762
544.65
535.641
560.147
519.679
550.15
538.48
561.195
520.846
551.386
537.865
525.584
558.736
550.392
531.478
519.759
556.341
547.346
523.982
512.973
552.13
542.587
462.573
433.202
489.715
513.69
545.909
433.428
460.79
484.415
506.67
537.269
429.824
457.899
482.72
506.72
537.763
506.813
492.025
522.081
508.883
503.478
488.559
521.781
507.929
499.576
485.154
520.893
506.497
426.397
416.148
453.781
443.176
476.212
463.673
496.324
482.804
519.624
504.741
422.724
410.004
450.697
440.047
474.792
463.69
497.114
484.308
518.904
503.094
448.508
439.276
446.486
436.638
417.825
399.324
414.126
393.124
474.441
466.888
475.051
467.342
444.911
434.168
444.663
433.765
412.097
389.246
411.741
389.017
473.481
465.299
473.652
465.302
500.136
492.827
522.317
515.548
499.497
491.716
521.426
513.034
499.602
491.799
522.344
515.849
499.554
491.691
522.152
515.114
480.88
474.992
496.791
491.142
477.118
470.676
495.328
488.432
473.611
466.88
492.814
484.021
405.512
399.698
433.178
426.212
453.563
445.782
471.239
463.183
489.156
478.424
395.629
390.908
430.16
424.241
453.021
445.667
470.633
461.21
483.999
473.345
409.601
401.691
417.807
407.977
436.153
425.056
451.232
434.544
391.296
373.233
395.712
376.738
389.427
373.115
394.386
376.798
391.391
386.18
391.227
384.615
372.611
376.565
411.19
413.947
439.891
444.151
392.808
394.505
393.262
394.247
377.689
377.847
359.609
341.115
361.708
342.054
360.163
340.036
362.015
341.078
360.151
338.259
362.816
340.002
363.657
339.722
363.557
338.824
388.667
379.731
392.865
380.841
412.451
402.962
418.699
404.865
373.883
361.543
370.433
360.81
395.518
381.469
396.889
381.338
422.804
406.101
425.09
406.353
375.516
361.767
375.985
361.33
357.889
336.298
345.953
329.667
355.579
334.972
345.609
329.409
358.98
336.713
345.914
329.395
359.046
336.419
345.372
328.644
355.844
352.351
338.708
334.825
356.125
352.724
337.408
333.572
355.432
352.236
335.385
331.808
383.171
405.467
365.503
352.137
332.456
406.394
383.891
364.961
350.334
330.171
401.493
378.898
360.112
345.218
328.723
348.046
341.468
328.567
317.85
348.778
342.705
327.897
317.693
348.431
342.331
326.785
317.228
399.816
390.571
378.476
370.753
361.155
355.201
346.426
339.584
326.385
317.697
394.246
382.064
373.162
362.861
355.264
346.315
340.365
331.269
325.603
317.597
368.591
355.099
365.158
349.912
388.827
373.119
385.724
366.742
348.246
335.584
351.401
339.699
363.019
346.219
362.252
345.491
384.168
361.838
383.727
361.189
346.131
332.745
345.152
331.891
333.371
322.615
321.968
311.416
336.937
325.465
324.016
313.745
330.978
320.867
320.153
309.494
330.532
319.866
318.933
309.214
334.407
331.513
298.202
295.195
337.472
334.017
298.992
295.756
335.974
331.135
299.598
295.705
381.564
376.305
363.288
358.987
348.052
343.885
331.119
325.999
299.832
295.236
369.77
365.861
352.264
348.444
336.057
332.278
319.239
316.075
297.802
294.228
322.77
310.673
303.014
296.854
323.26
310.803
303.061
296.77
322.138
310.404
302.93
296.884
322.656
310.492
302.975
296.792
321.038
309.927
302.827
296.997
321.719
309.999
302.782
296.741
321.066
309.497
302.238
296.245
320.064
308.765
301.576
295.748
319.735
309.134
302.377
296.754
316.972
308.106
301.852
296.949
319.373
309.205
302.56
297.097
317.22
308.418
302.095
297.241
319.577
308.827
301.984
296.358
316.538
307.695
301.464
296.593
319.014
308.322
301.478
295.904
315.921
307.189
301.025
296.217
321.713
310.351
302.923
297.069
320.05
309.858
302.681
297.384
321.099
310.118
302.845
297.115
319.563
309.685
302.603
297.416
320.089
309.721
302.721
297.233
318.792
309.376
302.485
297.492
318.565
309.097
302.478
297.378
317.97
309.024
302.352
297.573
317.208
308.577
302.183
297.448
318.075
309.371
302.261
298.181
316.67
309.114
302.114
298.573
317.848
309.264
302.236
298.181
316.488
309.009
302.081
298.559
317.388
309.041
302.154
298.157
316.123
308.798
301.989
298.518
316.915
308.75
302.086
298.145
315.74
308.513
301.89
298.47
316.288
308.351
301.962
298.112
315.143
308.138
301.735
298.396
314.484
307.402
301.323
297.714
312.957
307.085
301.112
297.956
315.473
307.931
301.697
297.97
314.095
307.656
301.471
298.225
313.513
306.825
300.851
297.335
311.92
306.476
300.647
297.588
312.713
306.246
300.392
296.934
311.158
305.883
300.189
297.204
290.712
286.567
283.598
281.693
280.764
290.678
286.554
283.592
281.69
280.761
290.682
286.54
283.58
281.681
280.755
290.622
286.515
283.567
281.673
280.749
290.642
286.508
283.559
281.667
280.744
290.517
286.449
283.527
281.647
280.729
290.336
286.345
283.466
281.609
280.7
290.143
286.236
283.402
281.569
280.67
290.487
286.418
283.506
281.634
280.719
290.522
286.422
283.506
281.633
280.718
290.594
286.473
283.537
281.653
280.733
290.589
286.456
283.524
281.644
280.727
290.359
286.351
283.467
281.609
280.701
290.395
286.357
283.468
281.61
280.701
290.144
286.231
283.397
281.566
280.668
290.183
286.239
283.4
281.567
280.668
290.758
286.583
283.605
281.698
280.767
290.798
286.593
283.61
281.7
280.769
290.743
286.564
283.592
281.688
280.76
290.786
286.577
283.598
281.692
280.763
290.719
286.538
283.574
281.676
280.751
290.765
286.553
283.581
281.681
280.754
290.679
286.505
283.553
281.663
280.74
290.715
286.52
283.561
281.667
280.744
290.634
286.479
283.537
281.653
280.733
534.883
531.076
534.956
531.122
534.875
531.022
534.472
530.397
534.076
529.616
535.093
532.278
534.611
531.228
535.251
532.523
535.416
532.63
565.207
571.319
572.625
572.917
572.979
558.881
569.625
572.244
572.837
572.96
565.428
571.389
572.643
572.922
572.98
559.029
569.694
572.264
572.842
572.962
565.603
571.453
572.66
572.926
572.982
559.15
569.761
572.284
572.847
572.963
565.806
571.523
572.677
572.929
572.982
559.201
569.806
572.297
572.85
572.964
565.965
571.559
572.682
572.93
572.982
559.198
569.801
572.29
572.847
572.963
564.903
571.166
572.571
572.901
572.974
558.723
569.446
572.167
572.812
572.952
565.338
571.343
572.624
572.915
572.978
558.915
569.617
572.23
572.831
572.958
564.598
571.045
572.534
572.891
572.971
558.583
569.34
572.126
572.8
572.948
564.698
571.061
572.534
572.89
572.97
558.635
569.336
572.119
572.796
572.947
424.215
461.731
457.824
421.17
414.927
421.145
412.753
420.373
441.79
457.675
445.679
460.728
281.401
282.01
283.369
285.525
288.487
292.259
281.919
282.519
283.848
285.931
288.785
292.432
280.975
280.762
281.598
281.384
283.004
282.801
285.302
285.184
288.475
288.593
292.588
293.165
296.768
302.405
309.746
319.614
327.935
333.978
296.913
302.348
308.8
315.877
321.982
325.88
280.602
279.453
277.911
276.071
274.045
281.152
279.919
278.265
276.292
274.12
282.379
280.958
279.054
276.785
274.287
284.326
282.606
280.305
277.565
274.553
286.997
284.865
282.018
278.634
274.916
290.392
287.731
284.188
279.987
275.375
281.07
279.85
278.213
276.259
274.109
281.612
280.308
278.561
276.477
274.183
282.812
281.324
279.332
276.958
274.346
284.691
282.915
280.539
277.711
274.602
287.264
285.089
282.187
278.739
274.951
290.546
287.858
284.284
280.047
275.396
280.217
279.127
277.663
275.916
273.992
280.024
278.963
277.539
275.838
273.966
280.78
279.603
278.025
276.142
274.069
280.587
279.44
277.901
276.065
274.043
282.05
280.68
278.843
276.653
274.243
281.867
280.525
278.725
276.579
274.218
284.125
282.437
280.177
277.485
274.525
284.019
282.347
280.109
277.443
274.511
286.987
284.857
282.012
278.63
274.914
287.093
284.947
282.08
278.672
274.928
290.689
287.981
284.377
280.103
275.415
291.208
288.418
284.706
280.308
275.484
294.44
291.137
286.764
281.592
275.921
299.474
295.356
289.949
283.58
276.598
305.97
300.763
294.03
286.143
277.476
314.565
307.842
299.4
289.58
278.672
321.632
313.613
303.851
292.549
279.764
326.666
317.702
307.057
294.762
280.597
294.567
291.243
286.845
281.644
275.939
299.424
295.317
289.925
283.568
276.595
305.154
300.103
293.542
285.839
277.372
311.387
305.282
297.467
288.326
278.232
316.71
309.688
300.827
290.489
278.993
320.087
312.48
302.973
291.892
279.492
281.516
282.362
283.98
286.43
289.726
293.872
282.037
282.877
284.463
286.825
289.978
293.93
281.088
280.873
281.945
281.727
283.613
283.405
286.223
286.109
289.769
289.908
294.367
295.086
298.748
304.688
312.169
321.778
329.457
334.53
298.682
304.296
310.753
317.572
323.145
326.295
280.706
279.542
277.979
276.114
274.059
281.471
280.191
278.473
276.422
274.164
282.934
281.431
279.415
277.011
274.364
285.148
283.307
280.841
277.902
274.667
288.124
285.827
282.755
279.097
275.074
291.862
288.989
285.154
280.595
275.583
281.177
279.941
278.282
276.303
274.124
281.937
280.585
278.772
276.609
274.228
283.37
281.8
279.696
277.186
274.424
285.503
283.607
281.069
278.044
274.716
288.349
286.016
282.897
279.186
275.104
291.91
289.026
285.181
280.612
275.589
280.319
279.213
277.729
275.958
274.006
280.125
279.048
277.604
275.879
273.98
281.094
279.871
278.229
276.27
274.113
280.897
279.704
278.103
276.191
274.086
282.602
281.15
279.202
276.878
274.319
282.415
280.991
279.082
276.803
274.294
284.961
283.15
280.722
277.827
274.642
284.858
283.063
280.656
277.786
274.628
288.163
285.862
282.782
279.114
275.079
288.289
285.969
282.863
279.165
275.097
292.311
289.37
285.445
280.776
275.645
292.961
289.921
285.863
281.037
275.733
296.248
292.69
287.96
282.348
276.18
301.568
297.164
291.349
284.469
276.903
308.209
302.711
295.553
287.117
277.811
316.589
309.628
300.816
290.499
278.991
323.073
314.899
304.886
293.233
280.006
327.194
318.178
307.445
295.023
280.69
296.181
292.629
287.912
282.318
276.17
301.207
296.855
291.114
284.322
276.853
306.952
301.662
294.755
286.612
277.638
312.956
306.652
298.542
289.016
278.47
317.793
310.64
301.579
290.976
279.162
320.475
312.823
303.246
292.069
279.554
365.588
347.801
305.422
299.271
304.672
300.358
305.492
373.406
371.631
349.862
362.523
328.073
339.803
322.127
326.724
320.245
364.813
339.796
324.123
320.954
327.761
322.35
313.63
314.734
314.171
310.428
318.336
315.879
361.705
340.415
349.318
331.162
325.653
338.61
315.119
308.934
318.996
349.967
335.154
321.861
307.282
286.879
337.372
326.052
313.849
299.969
282.784
302.237
297.734
291.782
284.737
276.993
296.722
293.094
288.267
282.539
276.244
301.589
297.205
291.384
284.484
276.905
297.706
293.928
288.901
282.934
276.378
302.315
297.81
291.841
284.771
277.004
358.616
342.258
327.104
310.284
288.208
357.177
340.976
325.487
308.082
286.085
340.364
328.848
315.64
300.49
282.754
350.487
335.502
320.666
304.067
284.477
322.239
314.356
304.351
292.673
279.739
332.157
322.31
310.406
296.676
281.22
317.105
310.165
301.177
290.628
279.011
321.11
313.456
303.66
292.207
279.564
315.467
308.819
300.159
289.977
278.783
351.464
336.553
322.624
307.049
286.707
332.025
322.202
310.496
296.95
281.366
318.813
311.558
302.248
291.337
279.267
316.028
309.254
300.509
290.238
278.886
321.895
314.054
304.181
292.645
279.749
317.208
310.198
301.231
290.715
279.051
309.527
303.822
296.393
287.639
277.986
310.545
304.698
297.055
288.044
278.124
310.09
304.346
296.785
287.858
278.056
306.744
301.539
294.664
286.533
277.604
313.768
307.403
299.096
289.316
278.558
311.583
305.578
297.719
288.455
278.263
347.84
333.5
320.387
305.813
286.176
331.872
321.835
310.406
297.264
281.638
339.972
327.613
314.923
300.323
282.097
324.632
316.139
305.815
293.803
280.138
320.024
312.462
302.962
291.855
279.441
331.023
321.225
309.735
296.424
280.99
310.866
304.951
297.248
288.173
278.169
305.394
300.396
293.798
285.996
277.422
314.297
307.811
299.416
289.544
278.643
280.167
293.898
306.281
316.921
325.366
331.664
486.528
481.356
458.089
463.283
473.517
467.002
450.499
441.745
506.101
523.208
502.125
518.652
496.767
487.791
513.766
476.618
472.846
450.417
454.419
466.332
461.524
444.056
437.222
495.696
509.272
493.144
506.116
488.777
481.345
502.353
462.788
460.448
439.533
442.303
455.761
453.007
434.687
429.594
480.037
493.662
478.452
491.727
475.713
470.594
489.225
448.875
447.297
428.03
430.179
443.813
442.086
423.992
419.544
465.282
478.901
464.225
477.373
462.028
457.747
475.299
438.839
437.468
419.61
421.595
434.087
432.151
415.659
410.652
454.096
466.521
453.338
465.932
451.463
447.409
464.32
431.883
430.555
413.913
415.845
427.203
425.183
410.044
405.124
445.651
458.324
444.925
458.163
443.382
439.584
456.565
408.511
405.597
431.526
435.254
401.715
394.524
425.903
416.949
385.635
366.467
383.215
365.838
378.066
376.652
364.799
404.406
401.539
425.956
429.197
397.77
390.912
420.826
412.757
380.639
364.121
378.107
363.785
373.49
372.501
362.687
398.349
395.677
417.658
420.301
392.136
386.063
413.285
406.544
378.441
362.394
376.135
361.485
371.811
370.766
359.832
391.537
388.835
408.398
410.758
384.75
378.237
404.244
397.344
374.313
359.448
371.764
357.683
367.112
365.252
354.968
386.556
383.824
401.625
403.913
379.806
373.233
397.493
390.543
371.064
357.829
368.167
354.788
363.071
360.349
350.752
383.513
380.745
397.166
399.431
376.768
370.146
393.077
386.304
369.967
356.272
366.813
352.334
360.822
357.495
347.668
541.698
557.594
528.52
547.797
511.732
534.023
485.696
509.957
489.108
513.613
513.22
537.341
524.294
546.306
535.5
554.264
503.102
487.432
519.91
495.624
477.495
460.451
493.278
467.512
549.083
555.46
561.543
564.707
539.129
547.643
554.024
559.069
537.989
525.602
513.321
506.499
539.22
549.374
539.303
544.732
503.398
510.28
516.204
521.861
475.283
481.291
550.497
555.311
522.282
531.4
560.566
566.05
560.032
567.609
567.165
570.742
553.027
564.982
562.236
568.939
543.818
560.699
552.453
565.118
558.733
567.28
562.529
568.632
474.357
460.256
481.431
463.201
441.392
428.737
448.873
432.445
508.057
490.706
501.985
487.734
486.318
465.213
489.174
466.291
454.146
434.913
457.17
436.241
512.659
492.733
515.316
493.752
532.81
558.733
517.832
548.452
527.322
555.096
514.198
545.288
536.682
560.548
519.982
550.286
538.754
561.304
520.927
551.422
555.987
546.725
564.858
557.938
548.327
539.037
561.623
553.798
537.539
527.586
556.242
547.244
460.12
421.92
493.783
519.932
548.378
420.662
458.227
489.879
514.735
540.428
419.939
455.146
484.204
509.309
538.894
528.167
511.049
531.838
515.551
522.796
505.684
529.693
513.019
514.213
497.461
526.071
509.174
413.9
401.343
451.306
439.147
480.932
466.395
503.176
487.299
522.491
505.413
412.697
398.765
446.91
433.882
474.876
460.805
498.46
482.826
519.653
501.895
445.514
434.98
444.376
433.779
411.58
391.668
410.225
388.232
473.542
465.321
474.184
465.184
443.695
432.572
444.267
433.265
410.063
386.775
411.102
388.255
472.864
464.34
473.44
464.991
499.868
492.084
522.241
515.209
499.577
490.752
521.574
512.573
499.334
491.297
522.229
515.61
499.445
491.508
522.105
515.03
491.286
474.932
466.005
494.226
477.2
468.135
486.479
469.785
460.856
491.402
473.664
464.329
477.503
460.336
451.051
486.926
468.177
458.375
385.122
373.437
367.487
422.463
407.114
398.825
448.824
431.541
421.828
467.651
450.052
440.613
481.777
461.786
451.237
381.288
368.948
362.227
418.633
404.715
397.457
443.965
428.09
419.65
462.623
444.351
434.572
476.019
455.915
445.568
417.01
403.845
420.833
408.131
445.793
430.057
454.079
436.187
389.165
369.173
390.373
371.144
390.089
369.655
391.872
372.26
390.005
386.773
389.408
382.952
368.601
372.853
410.892
413.792
440.469
444.28
391.612
394.018
391.98
393.772
375.268
376.947
347.656
328.927
353.243
332.309
349.179
328.638
354.745
332.528
350.225
328.097
357.063
333.197
360.186
335.485
362.365
337.36
382.611
370.966
389.827
375.89
409.253
396.327
417.279
401.25
369.232
355.802
361.778
351.132
393.915
378.832
396.396
380.463
422.063
404.199
424.858
405.72
373.06
358.644
375.227
360.289
351.964
330.381
340.089
324.387
345.32
326.095
336.195
321.545
355.794
333.276
342.634
326.329
358.058
335.304
344.263
327.619
330.161
318.98
322.078
314.647
331.297
320.625
321.759
314.771
332.705
324.132
321.234
315.553
362.777
386.95
345.635
334.435
320.251
385.011
359.327
339.637
327.772
315.917
385.259
361.266
343.584
330.875
318.187
309.768
300.859
306.743
298.029
312.328
303.396
307.799
299.301
316.626
308.222
309.525
301.377
378.309
365.968
352.494
341.336
334.381
325.729
322.41
314.11
311.777
304.096
378.07
365.337
354.841
343.917
337.737
328.408
325.209
316.244
314.557
306.82
357.895
344.394
358.949
343.678
379.376
363.003
380.196
360.664
341.986
329.708
340.812
329.627
359.865
343.155
361.271
344.557
381.4
358.849
382.872
360.278
342.893
329.833
344.13
330.991
327.701
317.581
317.028
307.354
327.422
316.937
316.33
307.161
327.927
318.264
317.41
307.356
329.495
319.018
318.103
308.575
289.758
283.661
281.291
282.737
278.443
277.02
293.042
286.607
283.934
284.081
279.622
278.011
298.067
291.366
288.698
286.111
281.293
279.598
352.439
343.048
338.619
330.578
323.123
319.911
315.582
308.886
306.298
303.463
296.659
293.909
288.05
283.128
281.202
350.83
340.698
335.829
331.842
323.08
318.824
317.25
309.554
306.009
304.081
297.662
295.186
289.253
284.551
282.22
314.28
305.188
299.345
294.432
315.769
305.783
299.624
294.473
314.158
305.222
299.463
294.609
316.022
306.008
299.885
294.724
313.875
305.232
299.644
294.881
316.34
306.315
300.221
295.037
317.583
307.06
300.562
295.175
318.827
307.888
300.963
295.344
315.294
306.077
300.222
295.271
312.985
305.318
299.849
295.468
313.248
305.132
299.755
295.188
311.613
304.627
299.493
295.423
316.849
306.903
300.583
295.341
314.139
305.976
300.185
295.594
318.084
307.657
300.994
295.56
315.116
306.605
300.585
295.87
311.796
304.259
298.958
294.46
308.843
303.202
298.482
294.577
311.625
304.249
299.02
294.6
308.872
303.254
298.537
294.693
311.34
304.223
299.11
294.835
309.16
303.434
298.679
294.901
310.863
304.156
299.187
295.138
309.303
303.567
298.828
295.158
310.274
304.039
299.168
295.38
306.136
302.331
297.946
295.053
304.566
301.91
297.711
295.252
306.559
302.507
298.058
295.146
305.063
302.105
297.823
295.337
307.235
302.803
298.241
295.3
305.859
302.435
298.006
295.483
308.051
303.165
298.511
295.528
306.84
302.856
298.266
295.682
309.085
303.642
298.837
295.771
307.78
303.303
298.538
295.892
310.541
304.577
299.336
296.153
309.074
304.234
299.113
296.348
309.865
304.09
299.076
295.966
308.518
303.774
298.822
296.118
311.174
305.088
299.602
296.328
309.647
304.736
299.405
296.577
311.948
305.666
299.97
296.591
310.424
305.308
299.774
296.864
289.337
285.76
283.119
281.389
280.536
289.348
285.769
283.124
281.393
280.539
289.411
285.797
283.139
281.402
280.545
289.438
285.817
283.152
281.41
280.551
289.488
285.837
283.161
281.415
280.555
289.562
285.888
283.192
281.435
280.57
289.738
285.991
283.254
281.475
280.6
289.909
286.096
283.318
281.516
280.631
289.656
285.93
283.216
281.449
280.581
289.692
285.937
283.217
281.45
280.581
289.571
285.879
283.184
281.43
280.566
289.64
285.906
283.198
281.438
280.572
289.758
285.994
283.254
281.474
280.599
289.792
285.998
283.254
281.474
280.599
289.939
286.108
283.324
281.519
280.633
289.969
286.11
283.323
281.518
280.632
289.327
285.752
283.113
281.385
280.533
289.328
285.746
283.109
281.383
280.531
289.385
285.779
283.128
281.394
280.539
289.38
285.771
283.122
281.39
280.536
289.459
285.814
283.146
281.405
280.548
289.45
285.802
283.138
281.4
280.544
289.541
285.852
283.167
281.418
280.557
289.519
285.837
283.158
281.412
280.552
289.596
285.881
283.183
281.428
280.565
539.851
535.524
539.093
534.712
537.728
533.322
536.075
531.47
534.643
529.711
535.052
532.131
534.732
531.126
535.18
532.401
535.386
532.585
566.03
571.468
572.654
572.923
572.981
560.223
569.908
572.301
572.848
572.963
566.101
571.512
572.667
572.926
572.982
560.149
569.936
572.313
572.852
572.964
566.074