/*--------------------------------*- C++ -*----------------------------------*\
| =========                 |                                                 |
| \\      /  F ield         | OpenFOAM: The Open Source CFD Toolbox           |
|  \\    /   O peration     | Version:  2412                                  |
|   \\  /    A nd           | Website:  www.openfoam.com                      |
|    \\/     M anipulation  |                                                 |
\*---------------------------------------------------------------------------*/
FoamFile
{
    version     2.0;
    format      ascii;
    arch        "LSB;label=32;scalar=64";
    class       volScalarField;
    location    "100/bottomWater";
    object      p;
}
// * * * * * * * * * * * * * * * * * * * * * * * * * * * * * * * * * * * * * //

dimensions      [1 -1 -2 0 0 0 0];

internalField   nonuniform List<scalar> 
1460
(
353.16344
353.16309
353.16293
353.16279
353.16267
353.16255
353.16244
353.16233
353.16222
353.1621
353.16197
353.16184
353.16168
353.16151
353.16133
353.16117
353.16102
353.16088
353.16077
353.16068
353.1606
353.16052
353.16046
353.16039
353.16033
353.16027
353.1602
353.16014
353.16008
353.16002
274.6832
274.68301
274.68287
274.68276
274.68264
274.68253
274.68243
274.68232
274.68221
274.68209
274.68197
274.68183
274.68168
274.68151
274.68133
274.68117
274.68102
274.68088
274.68077
274.68068
274.68059
274.68052
274.68045
274.68039
274.68032
274.68026
274.6802
274.68014
274.68008
274.68001
196.20323
196.20304
196.2029
196.20278
196.20267
196.20255
196.20244
196.20233
196.20221
196.2021
196.20197
196.20183
196.20168
196.20151
196.20134
196.20117
196.20102
196.20089
196.20077
196.20068
196.2006
196.20052
196.20046
196.20039
196.20033
196.20026
196.2002
196.20014
196.20008
196.20001
117.7232
117.72301
117.72287
117.72276
117.72264
117.72253
117.72243
117.72232
117.72221
117.72209
117.72197
117.72183
117.72168
117.72151
117.72133
117.72117
117.72102
117.72088
117.72077
117.72068
117.72059
117.72052
117.72045
117.72039
117.72032
117.72026
117.7202
117.72014
117.72008
117.72001
39.243441
39.243088
39.242926
39.242794
39.24267
39.242553
39.24244
39.242329
39.242216
39.242098
39.241973
39.241836
39.241682
39.241507
39.241331
39.241165
39.241015
39.240884
39.240773
39.240679
39.240597
39.240524
39.240455
39.24039
39.240327
39.240265
39.240204
39.240144
39.240084
39.240021
353.16323
353.163
353.16287
353.16276
353.16265
353.16254
353.16243
353.16233
353.16223
353.16211
353.16198
353.16183
353.16165
353.16142
353.16124
353.16109
353.16095
353.16083
353.16073
353.16065
353.16058
353.16051
353.16045
353.16039
353.16033
353.16026
353.1602
353.16014
353.16008
353.16002
274.68299
274.68292
274.68283
274.68273
274.68263
274.68253
274.68243
274.68232
274.68222
274.68211
274.68198
274.68183
274.68165
274.68142
274.68123
274.68108
274.68095
274.68083
274.68073
274.68065
274.68058
274.68051
274.68045
274.68039
274.68032
274.68026
274.6802
274.68014
274.68008
274.68001
196.20303
196.20296
196.20286
196.20276
196.20265
196.20255
196.20244
196.20234
196.20223
196.20211
196.20199
196.20184
196.20165
196.20142
196.20123
196.20108
196.20095
196.20083
196.20073
196.20065
196.20058
196.20051
196.20045
196.20039
196.20033
196.20027
196.2002
196.20014
196.20008
196.20001
117.72299
117.72292
117.72283
117.72273
117.72263
117.72253
117.72243
117.72232
117.72222
117.72211
117.72198
117.72183
117.72165
117.72142
117.72123
117.72108
117.72095
117.72083
117.72073
117.72065
117.72058
117.72051
117.72045
117.72039
117.72032
117.72026
117.7202
117.72014
117.72008
117.72001
39.243231
39.242999
39.242866
39.242756
39.242646
39.242539
39.242435
39.242331
39.242225
39.242111
39.241983
39.241832
39.241652
39.241424
39.241243
39.241091
39.240954
39.240831
39.240731
39.24065
39.240578
39.240512
39.240448
39.240386
39.240325
39.240265
39.240205
39.240144
39.240084
39.240021
353.16322
353.163
353.16287
353.16277
353.16267
353.16257
353.16248
353.16239
353.1623
353.1622
353.16209
353.16196
353.16178
353.16147
353.16123
353.16104
353.16087
353.16073
353.16065
353.16059
353.16055
353.16049
353.16044
353.16039
353.16033
353.16027
353.16021
353.16015
353.16009
353.16003
274.68298
274.68292
274.68284
274.68275
274.68265
274.68256
274.68247
274.68238
274.68229
274.6822
274.6821
274.68197
274.6818
274.68146
274.68121
274.68102
274.68084
274.6807
274.68062
274.68058
274.68054
274.68049
274.68044
274.68039
274.68033
274.68027
274.68021
274.68015
274.68009
274.68003
196.20302
196.20296
196.20287
196.20277
196.20268
196.20258
196.20249
196.2024
196.20231
196.20221
196.20211
196.20198
196.20181
196.20148
196.20122
196.20102
196.20085
196.2007
196.20063
196.20058
196.20054
196.2005
196.20044
196.20039
196.20033
196.20028
196.20022
196.20015
196.20009
196.20002
117.72298
117.72292
117.72284
117.72275
117.72265
117.72256
117.72247
117.72238
117.72229
117.7222
117.7221
117.72197
117.7218
117.72146
117.72121
117.72102
117.72084
117.7207
117.72062
117.72058
117.72054
117.72049
117.72044
117.72039
117.72033
117.72027
117.72021
117.72015
117.72009
117.72003
39.243222
39.242999
39.242873
39.24277
39.24267
39.242572
39.242479
39.242388
39.242296
39.242201
39.242093
39.241958
39.241785
39.24147
39.241233
39.241042
39.240874
39.240727
39.240648
39.240595
39.240545
39.240495
39.240442
39.240387
39.24033
39.240272
39.240212
39.240152
39.240091
39.240029
353.16318
353.16297
353.16285
353.16276
353.16267
353.16258
353.16249
353.16242
353.16234
353.16226
353.16215
353.16199
353.16166
353.16083
353.16095
353.16085
353.16071
353.16052
353.16053
353.16052
353.1605
353.16047
353.16043
353.16039
353.16033
353.16028
353.16022
353.16016
353.1601
353.16004
274.68294
274.68289
274.68282
274.68274
274.68265
274.68257
274.68249
274.68241
274.68234
274.68226
274.68217
274.68201
274.68159
274.68057
274.68082
274.68079
274.68065
274.68047
274.68049
274.6805
274.6805
274.68047
274.68043
274.68039
274.68034
274.68028
274.68022
274.68016
274.6801
274.68004
196.20298
196.20293
196.20285
196.20276
196.20267
196.20259
196.2025
196.20243
196.20235
196.20227
196.20218
196.20201
196.20157
196.20053
196.20081
196.2008
196.20066
196.20049
196.20051
196.20051
196.20051
196.20048
196.20044
196.20039
196.20034
196.20028
196.20022
196.20016
196.2001
196.20004
117.72294
117.72289
117.72282
117.72274
117.72265
117.72257
117.72249
117.72241
117.72234
117.72226
117.72217
117.72201
117.72159
117.72057
117.72082
117.72079
117.72065
117.72047
117.72049
117.7205
117.7205
117.72047
117.72043
117.72039
117.72034
117.72028
117.72022
117.72016
117.7201
117.72004
39.243183
39.242969
39.242853
39.242758
39.242666
39.242577
39.242494
39.242415
39.242338
39.242255
39.242154
39.241985
39.241658
39.240834
39.240951
39.240846
39.240709
39.240523
39.240533
39.240524
39.240504
39.240474
39.240433
39.240385
39.240333
39.240277
39.240218
39.240158
39.240098
39.240038
353.16318
353.16297
353.16286
353.16277
353.16268
353.1626
353.16253
353.16248
353.16244
353.16243
353.16245
353.16251
353.16265
353.16019
353.16041
353.16044
353.16048
353.16048
353.16044
353.1604
353.16035
353.16029
353.16023
353.16017
353.16011
353.16005
274.68294
274.68289
274.68282
274.68274
274.68267
274.68259
274.68253
274.68248
274.68245
274.68246
274.68252
274.68265
274.68295
274.68005
274.68037
274.68043
274.68049
274.68049
274.68046
274.68042
274.68037
274.68031
274.68025
274.68018
274.68012
274.68006
196.20298
196.20293
196.20285
196.20277
196.20269
196.20261
196.20255
196.20249
196.20246
196.20247
196.20255
196.2027
196.20307
196.20005
196.20038
196.20044
196.20049
196.2005
196.20047
196.20042
196.20037
196.20031
196.20025
196.20018
196.20012
196.20007
117.72294
117.72289
117.72282
117.72274
117.72267
117.72259
117.72253
117.72248
117.72245
117.72246
117.72252
117.72265
117.72295
117.72005
117.72037
117.72043
117.72049
117.72049
117.72046
117.72042
117.72037
117.72031
117.72025
117.72018
117.72012
117.72006
39.243183
39.24297
39.242858
39.242768
39.242682
39.242603
39.242534
39.242479
39.24244
39.242425
39.242448
39.242511
39.24265
39.240192
39.240407
39.240443
39.240483
39.240475
39.240445
39.240401
39.24035
39.240294
39.240234
39.240172
39.240109
39.240052
353.16318
353.16297
353.16286
353.16277
353.16268
353.1626
353.16253
353.16248
353.16244
353.16243
353.16245
353.16251
353.16265
353.16019
353.16041
353.16044
353.16048
353.16048
353.16044
353.1604
353.16035
353.16029
353.16023
353.16017
353.16011
353.16005
274.68294
274.68289
274.68282
274.68274
274.68267
274.68259
274.68253
274.68248
274.68245
274.68246
274.68252
274.68265
274.68295
274.68005
274.68037
274.68043
274.68049
274.68049
274.68046
274.68042
274.68037
274.68031
274.68025
274.68018
274.68012
274.68006
196.20298
196.20293
196.20285
196.20277
196.20269
196.20261
196.20255
196.20249
196.20246
196.20247
196.20255
196.2027
196.20307
196.20005
196.20038
196.20044
196.20049
196.2005
196.20047
196.20042
196.20037
196.20031
196.20025
196.20018
196.20012
196.20007
117.72294
117.72289
117.72282
117.72274
117.72267
117.72259
117.72253
117.72248
117.72245
117.72246
117.72252
117.72265
117.72295
117.72005
117.72037
117.72043
117.72049
117.72049
117.72046
117.72042
117.72037
117.72031
117.72025
117.72018
117.72012
117.72006
39.243183
39.24297
39.242858
39.242768
39.242682
39.242603
39.242534
39.242479
39.24244
39.242425
39.242448
39.242511
39.24265
39.240192
39.240407
39.240443
39.240483
39.240475
39.240445
39.240401
39.24035
39.240294
39.240234
39.240172
39.240109
39.240052
353.16318
353.16297
353.16285
353.16276
353.16267
353.16258
353.16249
353.16242
353.16234
353.16226
353.16215
353.16199
353.16166
353.16083
353.16095
353.16085
353.16071
353.16052
353.16053
353.16052
353.1605
353.16047
353.16043
353.16039
353.16033
353.16028
353.16022
353.16016
353.1601
353.16004
274.68294
274.68289
274.68282
274.68274
274.68265
274.68257
274.68249
274.68241
274.68234
274.68226
274.68217
274.68201
274.68159
274.68057
274.68082
274.68079
274.68065
274.68047
274.68049
274.6805
274.6805
274.68047
274.68043
274.68039
274.68034
274.68028
274.68022
274.68016
274.6801
274.68004
196.20298
196.20293
196.20285
196.20276
196.20267
196.20259
196.2025
196.20243
196.20235
196.20227
196.20218
196.20201
196.20157
196.20053
196.20081
196.2008
196.20066
196.20049
196.20051
196.20051
196.20051
196.20048
196.20044
196.20039
196.20034
196.20028
196.20022
196.20016
196.2001
196.20004
117.72294
117.72289
117.72282
117.72274
117.72265
117.72257
117.72249
117.72241
117.72234
117.72226
117.72217
117.72201
117.72159
117.72057
117.72082
117.72079
117.72065
117.72047
117.72049
117.7205
117.7205
117.72047
117.72043
117.72039
117.72034
117.72028
117.72022
117.72016
117.7201
117.72004
39.243183
39.242969
39.242853
39.242758
39.242666
39.242577
39.242494
39.242415
39.242338
39.242255
39.242154
39.241985
39.241658
39.240834
39.240951
39.240846
39.240709
39.240523
39.240533
39.240524
39.240504
39.240474
39.240433
39.240385
39.240333
39.240277
39.240218
39.240158
39.240098
39.240038
353.16322
353.163
353.16287
353.16277
353.16267
353.16257
353.16248
353.16239
353.1623
353.1622
353.16209
353.16196
353.16178
353.16147
353.16123
353.16104
353.16087
353.16073
353.16065
353.16059
353.16055
353.16049
353.16044
353.16039
353.16033
353.16027
353.16021
353.16015
353.16009
353.16003
274.68298
274.68292
274.68284
274.68275
274.68265
274.68256
274.68247
274.68238
274.68229
274.6822
274.6821
274.68197
274.6818
274.68146
274.68121
274.68102
274.68084
274.6807
274.68062
274.68058
274.68054
274.68049
274.68044
274.68039
274.68033
274.68027
274.68021
274.68015
274.68009
274.68003
196.20302
196.20296
196.20287
196.20277
196.20268
196.20258
196.20249
196.2024
196.20231
196.20221
196.20211
196.20198
196.20181
196.20148
196.20122
196.20102
196.20085
196.2007
196.20063
196.20058
196.20054
196.2005
196.20044
196.20039
196.20033
196.20028
196.20022
196.20015
196.20009
196.20002
117.72298
117.72292
117.72284
117.72275
117.72265
117.72256
117.72247
117.72238
117.72229
117.7222
117.7221
117.72197
117.7218
117.72146
117.72121
117.72102
117.72084
117.7207
117.72062
117.72058
117.72054
117.72049
117.72044
117.72039
117.72033
117.72027
117.72021
117.72015
117.72009
117.72003
39.243222
39.242999
39.242873
39.24277
39.24267
39.242572
39.242479
39.242388
39.242296
39.242201
39.242093
39.241958
39.241785
39.24147
39.241233
39.241042
39.240874
39.240727
39.240648
39.240595
39.240545
39.240495
39.240442
39.240387
39.24033
39.240272
39.240212
39.240152
39.240091
39.240029
353.16323
353.163
353.16287
353.16276
353.16265
353.16254
353.16243
353.16233
353.16223
353.16211
353.16198
353.16183
353.16165
353.16142
353.16124
353.16109
353.16095
353.16083
353.16073
353.16065
353.16058
353.16051
353.16045
353.16039
353.16033
353.16026
353.1602
353.16014
353.16008
353.16002
274.68299
274.68292
274.68283
274.68273
274.68263
274.68253
274.68243
274.68232
274.68222
274.68211
274.68198
274.68183
274.68165
274.68142
274.68123
274.68108
274.68095
274.68083
274.68073
274.68065
274.68058
274.68051
274.68045
274.68039
274.68032
274.68026
274.6802
274.68014
274.68008
274.68001
196.20303
196.20296
196.20286
196.20276
196.20265
196.20255
196.20244
196.20234
196.20223
196.20211
196.20199
196.20184
196.20165
196.20142
196.20123
196.20108
196.20095
196.20083
196.20073
196.20065
196.20058
196.20051
196.20045
196.20039
196.20033
196.20027
196.2002
196.20014
196.20008
196.20001
117.72299
117.72292
117.72283
117.72273
117.72263
117.72253
117.72243
117.72232
117.72222
117.72211
117.72198
117.72183
117.72165
117.72142
117.72123
117.72108
117.72095
117.72083
117.72073
117.72065
117.72058
117.72051
117.72045
117.72039
117.72032
117.72026
117.7202
117.72014
117.72008
117.72001
39.243231
39.242999
39.242866
39.242756
39.242646
39.242539
39.242435
39.242331
39.242225
39.242111
39.241983
39.241832
39.241652
39.241424
39.241243
39.241091
39.240954
39.240831
39.240731
39.24065
39.240578
39.240512
39.240448
39.240386
39.240325
39.240265
39.240205
39.240144
39.240084
39.240021
353.16344
353.16309
353.16293
353.16279
353.16267
353.16255
353.16244
353.16233
353.16222
353.1621
353.16197
353.16184
353.16168
353.16151
353.16133
353.16117
353.16102
353.16088
353.16077
353.16068
353.1606
353.16052
353.16046
353.16039
353.16033
353.16027
353.1602
353.16014
353.16008
353.16002
274.6832
274.68301
274.68287
274.68276
274.68264
274.68253
274.68243
274.68232
274.68221
274.68209
274.68197
274.68183
274.68168
274.68151
274.68133
274.68117
274.68102
274.68088
274.68077
274.68068
274.68059
274.68052
274.68045
274.68039
274.68032
274.68026
274.6802
274.68014
274.68008
274.68001
196.20323
196.20304
196.2029
196.20278
196.20267
196.20255
196.20244
196.20233
196.20221
196.2021
196.20197
196.20183
196.20168
196.20151
196.20134
196.20117
196.20102
196.20089
196.20077
196.20068
196.2006
196.20052
196.20046
196.20039
196.20033
196.20026
196.2002
196.20014
196.20008
196.20001
117.7232
117.72301
117.72287
117.72276
117.72264
117.72253
117.72243
117.72232
117.72221
117.72209
117.72197
117.72183
117.72168
117.72151
117.72133
117.72117
117.72102
117.72088
117.72077
117.72068
117.72059
117.72052
117.72045
117.72039
117.72032
117.72026
117.7202
117.72014
117.72008
117.72001
39.243441
39.243088
39.242926
39.242794
39.24267
39.242553
39.24244
39.242329
39.242216
39.242098
39.241973
39.241836
39.241682
39.241507
39.241331
39.241165
39.241015
39.240884
39.240773
39.240679
39.240597
39.240524
39.240455
39.24039
39.240327
39.240265
39.240204
39.240144
39.240084
39.240021
)
;

boundaryField
{
    minX
    {
        type            calculated;
        value           nonuniform List<scalar> 
50
(
353.16344
274.6832
196.20323
117.7232
39.243441
353.16323
274.68299
196.20303
117.72299
39.243231
353.16322
274.68298
196.20302
117.72298
39.243222
353.16318
274.68294
196.20298
117.72294
39.243183
353.16318
274.68294
196.20298
117.72294
39.243183
353.16318
274.68294
196.20298
117.72294
39.243183
353.16318
274.68294
196.20298
117.72294
39.243183
353.16322
274.68298
196.20302
117.72298
39.243222
353.16323
274.68299
196.20303
117.72299
39.243231
353.16344
274.6832
196.20323
117.7232
39.243441
)
;
    }
    maxX
    {
        type            calculated;
        value           nonuniform List<scalar> 
50
(
353.16
274.68
196.2
117.72
39.24
353.16
274.68
196.2
117.72
39.24
353.16
274.68
196.2
117.72
39.24
353.16
274.68
196.2
117.72
39.24
353.16
274.68
196.2
117.72
39.24
353.16
274.68
196.2
117.72
39.24
353.16
274.68
196.2
117.72
39.24
353.16
274.68
196.2
117.72
39.24
353.16
274.68
196.2
117.72
39.24
353.16
274.68
196.2
117.72
39.24
)
;
    }
    minY
    {
        type            calculated;
        value           nonuniform List<scalar> 
292
(
392.40344
392.40323
392.40322
392.40318
392.40318
392.40318
392.40318
392.40322
392.40323
392.40344
392.40309
392.403
392.403
392.40297
392.40297
392.40297
392.40297
392.403
392.403
392.40309
392.40293
392.40287
392.40287
392.40285
392.40286
392.40286
392.40285
392.40287
392.40287
392.40293
392.40279
392.40276
392.40277
392.40276
392.40277
392.40277
392.40276
392.40277
392.40276
392.40279
392.40267
392.40265
392.40267
392.40267
392.40268
392.40268
392.40267
392.40267
392.40265
392.40267
392.40255
392.40254
392.40257
392.40258
392.4026
392.4026
392.40258
392.40257
392.40254
392.40255
392.40244
392.40243
392.40248
392.40249
392.40253
392.40253
392.40249
392.40248
392.40243
392.40244
392.40233
392.40233
392.40239
392.40242
392.40248
392.40248
392.40242
392.40239
392.40233
392.40233
392.40222
392.40223
392.4023
392.40234
392.40244
392.40244
392.40234
392.4023
392.40223
392.40222
392.4021
392.40211
392.4022
392.40226
392.40243
392.40243
392.40226
392.4022
392.40211
392.4021
392.40197
392.40198
392.40209
392.40215
392.40245
392.40245
392.40215
392.40209
392.40198
392.40197
392.40184
392.40183
392.40196
392.40199
392.40251
392.40251
392.40199
392.40196
392.40183
392.40184
392.40168
392.40165
392.40178
392.40166
392.40265
392.40265
392.40166
392.40178
392.40165
392.40168
392.40151
392.40142
392.40147
392.40083
392.40083
392.40147
392.40142
392.40151
392.40133
392.40124
392.40123
392.40095
392.40095
392.40123
392.40124
392.40133
392.40117
392.40109
392.40104
392.40085
392.40085
392.40104
392.40109
392.40117
392.40102
392.40095
392.40087
392.40071
392.40071
392.40087
392.40095
392.40102
392.40088
392.40083
392.40073
392.40052
392.40019
392.40019
392.40052
392.40073
392.40083
392.40088
392.40077
392.40073
392.40065
392.40053
392.40041
392.40041
392.40053
392.40065
392.40073
392.40077
392.40068
392.40065
392.40059
392.40052
392.40044
392.40044
392.40052
392.40059
392.40065
392.40068
392.4006
392.40058
392.40055
392.4005
392.40048
392.40048
392.4005
392.40055
392.40058
392.4006
392.40052
392.40051
392.40049
392.40047
392.40048
392.40048
392.40047
392.40049
392.40051
392.40052
392.40046
392.40045
392.40044
392.40043
392.40044
392.40044
392.40043
392.40044
392.40045
392.40046
392.40039
392.40039
392.40039
392.40039
392.4004
392.4004
392.40039
392.40039
392.40039
392.40039
392.40033
392.40033
392.40033
392.40033
392.40035
392.40035
392.40033
392.40033
392.40033
392.40033
392.40027
392.40026
392.40027
392.40028
392.40029
392.40029
392.40028
392.40027
392.40026
392.40027
392.4002
392.4002
392.40021
392.40022
392.40023
392.40023
392.40022
392.40021
392.4002
392.4002
392.40014
392.40014
392.40015
392.40016
392.40017
392.40017
392.40016
392.40015
392.40014
392.40014
392.40008
392.40008
392.40009
392.4001
392.40011
392.40011
392.4001
392.40009
392.40008
392.40008
392.40002
392.40002
392.40003
392.40004
392.40005
392.40005
392.40004
392.40003
392.40002
392.40002
)
;
    }
    minZ
    {
        type            calculated;
        value           nonuniform List<scalar> 
150
(
353.16344
274.6832
196.20323
117.7232
39.243441
353.16309
274.68301
196.20304
117.72301
39.243088
353.16293
274.68287
196.2029
117.72287
39.242926
353.16279
274.68276
196.20278
117.72276
39.242794
353.16267
274.68264
196.20267
117.72264
39.24267
353.16255
274.68253
196.20255
117.72253
39.242553
353.16244
274.68243
196.20244
117.72243
39.24244
353.16233
274.68232
196.20233
117.72232
39.242329
353.16222
274.68221
196.20221
117.72221
39.242216
353.1621
274.68209
196.2021
117.72209
39.242098
353.16197
274.68197
196.20197
117.72197
39.241973
353.16184
274.68183
196.20183
117.72183
39.241836
353.16168
274.68168
196.20168
117.72168
39.241682
353.16151
274.68151
196.20151
117.72151
39.241507
353.16133
274.68133
196.20134
117.72133
39.241331
353.16117
274.68117
196.20117
117.72117
39.241165
353.16102
274.68102
196.20102
117.72102
39.241015
353.16088
274.68088
196.20089
117.72088
39.240884
353.16077
274.68077
196.20077
117.72077
39.240773
353.16068
274.68068
196.20068
117.72068
39.240679
353.1606
274.68059
196.2006
117.72059
39.240597
353.16052
274.68052
196.20052
117.72052
39.240524
353.16046
274.68045
196.20046
117.72045
39.240455
353.16039
274.68039
196.20039
117.72039
39.24039
353.16033
274.68032
196.20033
117.72032
39.240327
353.16027
274.68026
196.20026
117.72026
39.240265
353.1602
274.6802
196.2002
117.7202
39.240204
353.16014
274.68014
196.20014
117.72014
39.240144
353.16008
274.68008
196.20008
117.72008
39.240084
353.16002
274.68001
196.20001
117.72001
39.240021
)
;
    }
    maxZ
    {
        type            calculated;
        value           nonuniform List<scalar> 
150
(
353.16344
274.6832
196.20323
117.7232
39.243441
353.16309
274.68301
196.20304
117.72301
39.243088
353.16293
274.68287
196.2029
117.72287
39.242926
353.16279
274.68276
196.20278
117.72276
39.242794
353.16267
274.68264
196.20267
117.72264
39.24267
353.16255
274.68253
196.20255
117.72253
39.242553
353.16244
274.68243
196.20244
117.72243
39.24244
353.16233
274.68232
196.20233
117.72232
39.242329
353.16222
274.68221
196.20221
117.72221
39.242216
353.1621
274.68209
196.2021
117.72209
39.242098
353.16197
274.68197
196.20197
117.72197
39.241973
353.16184
274.68183
196.20183
117.72183
39.241836
353.16168
274.68168
196.20168
117.72168
39.241682
353.16151
274.68151
196.20151
117.72151
39.241507
353.16133
274.68133
196.20134
117.72133
39.241331
353.16117
274.68117
196.20117
117.72117
39.241165
353.16102
274.68102
196.20102
117.72102
39.241015
353.16088
274.68088
196.20089
117.72088
39.240884
353.16077
274.68077
196.20077
117.72077
39.240773
353.16068
274.68068
196.20068
117.72068
39.240679
353.1606
274.68059
196.2006
117.72059
39.240597
353.16052
274.68052
196.20052
117.72052
39.240524
353.16046
274.68045
196.20046
117.72045
39.240455
353.16039
274.68039
196.20039
117.72039
39.24039
353.16033
274.68032
196.20033
117.72032
39.240327
353.16027
274.68026
196.20026
117.72026
39.240265
353.1602
274.6802
196.2002
117.7202
39.240204
353.16014
274.68014
196.20014
117.72014
39.240144
353.16008
274.68008
196.20008
117.72008
39.240084
353.16002
274.68001
196.20001
117.72001
39.240021
)
;
    }
    bottomWater_to_rightSolid
    {
        type            calculated;
        value           nonuniform List<scalar> 
130
(
0.00088405755
0.00077283735
0.00067898465
0.00059738634
0.00052379435
0.00045539514
0.00039031345
0.00032728114
0.00026546048
0.00020434136
0.00014374183
8.3615031e-05
2.1160096e-05
0.00083086104
0.00073103452
0.00064973254
0.00057817977
0.00051175658
0.00044826141
0.0003864039
0.00032544772
0.00026492517
0.00020455009
0.00014417939
8.3543537e-05
2.0964069e-05
0.00072664072
0.00064819135
0.00059450007
0.00054516391
0.00049468652
0.00044187994
0.00038693716
0.00033019653
0.00027196685
0.0002124999
0.00015202516
9.0663357e-05
2.8563047e-05
0.00052277112
0.00053275336
0.00052373566
0.00050442671
0.00047360829
0.00043288099
0.00038518456
0.00033261343
0.00027665149
0.00021826159
0.00015826774
9.7613064e-05
3.8041317e-05
0.00019192598
0.00040715737
0.00044329613
0.00048319144
0.00047512361
0.00044480587
0.00040122667
0.00034984538
0.00029359451
0.00023414425
0.00017247523
0.00010926764
5.1551651e-05
0.00019192604
0.00040715743
0.00044329618
0.00048319147
0.00047512364
0.00044480589
0.00040122668
0.0003498454
0.00029359452
0.00023414426
0.00017247523
0.00010926763
5.1551646e-05
0.0005227712
0.00053275344
0.00052373574
0.00050442677
0.00047360835
0.00043288103
0.0003851846
0.00033261346
0.00027665152
0.0002182616
0.00015826774
9.7613065e-05
3.8041312e-05
0.00072664082
0.00064819145
0.00059450016
0.000545164
0.0004946866
0.00044188001
0.00038693722
0.00033019657
0.00027196686
0.00021249989
0.00015202515
9.0663353e-05
2.8563041e-05
0.00083086114
0.00073103463
0.00064973266
0.00057817988
0.00051175668
0.0004482615
0.00038640398
0.00032544778
0.0002649252
0.00020455009
0.00014417937
8.3543526e-05
2.0964059e-05
0.00088405768
0.00077283749
0.00067898479
0.00059738648
0.00052379448
0.00045539525
0.00039031356
0.00032728122
0.00026546054
0.00020434138
0.00014374183
8.3615027e-05
2.1160086e-05
)
;
    }
    bottomWater_to_leftSolid
    {
        type            calculated;
        value           nonuniform List<scalar> 
130
(
0.0034407859
0.0030880613
0.0029258873
0.0027943899
0.0026700795
0.0025525999
0.002440013
0.0023287169
0.0022155893
0.002098161
0.0019728999
0.0018355863
0.0016822324
0.003231178
0.0029989843
0.0028664725
0.0027558482
0.0026464717
0.0025392247
0.0024346697
0.0023312476
0.0022251425
0.0021110413
0.0019828242
0.0018322488
0.0016517733
0.0032216961
0.0029987874
0.0028734317
0.0027704957
0.0026698072
0.0025724684
0.0024788957
0.0023876714
0.0022964608
0.0022007682
0.0020927512
0.0019581176
0.0017849403
0.0031829776
0.0029685811
0.0028525224
0.0027582338
0.002665949
0.0025774207
0.0024942303
0.0024153082
0.0023379526
0.0022554524
0.0021537585
0.0019853933
0.0016580249
0.0031827559
0.0029701331
0.0028575227
0.0027679061
0.0026822482
0.002603015
0.0025341407
0.0024786166
0.0024402734
0.0024250731
0.0024475203
0.0025111074
0.0026495595
0.0031827559
0.0029701331
0.0028575227
0.0027679061
0.0026822482
0.002603015
0.0025341407
0.0024786166
0.0024402734
0.0024250731
0.0024475203
0.0025111074
0.0026495595
0.0031829776
0.0029685811
0.0028525224
0.0027582338
0.002665949
0.0025774207
0.0024942303
0.0024153082
0.0023379526
0.0022554524
0.0021537585
0.0019853933
0.001658025
0.0032216961
0.0029987874
0.0028734317
0.0027704957
0.0026698072
0.0025724684
0.0024788957
0.0023876714
0.0022964608
0.0022007682
0.0020927512
0.0019581177
0.0017849403
0.003231178
0.0029989843
0.0028664725
0.0027558482
0.0026464717
0.0025392247
0.0024346697
0.0023312477
0.0022251425
0.0021110413
0.0019828242
0.0018322488
0.0016517734
0.003440786
0.0030880613
0.0029258873
0.00279439
0.0026700795
0.0025525999
0.002440013
0.002328717
0.0022155893
0.0020981611
0.0019728999
0.0018355864
0.0016822325
)
;
    }
    bottomWater_to_heater
    {
        type            calculated;
        value           nonuniform List<scalar> 
92
(
0.0015073279
0.0013312177
0.0011653411
0.0010154148
0.0014237389
0.001242636
0.0010911964
0.00095428132
0.001470029
0.0012332797
0.0010421215
0.00087432454
353.16083
353.16095
353.16085
353.16071
274.68057
274.68082
274.68079
274.68065
196.20053
196.20081
196.2008
196.20066
117.72057
117.72082
117.72079
117.72065
0.00083423584
39.240834
0.00095091802
39.240951
0.00084568036
39.240846
0.00070937576
39.240709
353.16265
353.16019
274.68295
274.68005
196.20307
196.20005
117.72295
117.72005
39.24265
39.240192
353.16265
353.16083
353.16095
353.16085
353.16019
353.16071
274.68295
274.68057
274.68082
274.68079
274.68005
274.68065
196.20307
196.20053
196.20081
196.2008
196.20005
196.20066
117.72295
117.72057
117.72082
117.72079
117.72005
117.72065
39.24265
39.240834
39.240951
39.240846
39.240192
39.240709
0.00083423589
0.00095091811
0.00084568046
0.00070937586
0.0014700291
0.0012332798
0.0010421216
0.00087432464
0.001423739
0.0012426361
0.0010911965
0.00095428142
0.001507328
0.0013312178
0.0011653412
0.001015415
)
;
    }
}


// ************************************************************************* //
