/*--------------------------------*- C++ -*----------------------------------*\
| =========                 |                                                 |
| \\      /  F ield         | OpenFOAM: The Open Source CFD Toolbox           |
|  \\    /   O peration     | Version:  2412                                  |
|   \\  /    A nd           | Website:  www.openfoam.com                      |
|    \\/     M anipulation  |                                                 |
\*---------------------------------------------------------------------------*/
FoamFile
{
    version     2.0;
    format      ascii;
    arch        "LSB;label=32;scalar=64";
    class       volScalarField;
    location    "100/bottomWater";
    object      p_rgh;
}
// * * * * * * * * * * * * * * * * * * * * * * * * * * * * * * * * * * * * * //

dimensions      [1 -1 -2 0 0 0 0];

internalField   nonuniform List<scalar> 
1460
(
0.003440786
0.0030880613
0.0029258873
0.00279439
0.0026700795
0.0025525999
0.002440013
0.002328717
0.0022155893
0.0020981611
0.0019728999
0.0018355864
0.0016822324
0.0015073279
0.0013312177
0.0011653412
0.0010154148
0.00088405757
0.00077283737
0.00067898466
0.00059738635
0.00052379436
0.00045539515
0.00039031346
0.00032728115
0.0002654605
0.00020434138
0.00014374185
8.3615063e-05
2.1160112e-05
0.0031958281
0.003005432
0.0028715815
0.0027571896
0.0026447296
0.002534301
0.0024261373
0.0023180092
0.0022065751
0.0020895913
0.0019657131
0.0018310516
0.0016809399
0.0015093169
0.0013344869
0.001168543
0.0010162418
0.0008822721
0.00076969154
0.00067561178
0.0005942238
0.00052078719
0.00045240363
0.0003872258
0.00032403618
0.00026207002
0.00020088805
0.00014023441
7.9592515e-05
1.4531512e-05
0.0032326974
0.0030422231
0.0029023628
0.0027828965
0.0026661533
0.0025517752
0.0024400195
0.0023287593
0.0022146002
0.002095065
0.0019688775
0.0018327637
0.0016823135
0.0015117276
0.0013381002
0.0011734367
0.0010215402
0.00088717071
0.00077444925
0.00068028262
0.00059863668
0.00052481915
0.00045603422
0.00039046481
0.00032687765
0.00026446701
0.00020272883
0.00014136181
7.9680781e-05
1.2898215e-05
0.0031958281
0.003005432
0.0028715815
0.0027571896
0.0026447296
0.002534301
0.0024261372
0.0023180092
0.002206575
0.0020895913
0.0019657131
0.0018310516
0.0016809399
0.0015093169
0.0013344869
0.001168543
0.0010162418
0.00088227209
0.00076969153
0.00067561177
0.00059422379
0.00052078718
0.00045240362
0.00038722579
0.00032403616
0.00026207
0.00020088803
0.00014023437
7.9592478e-05
1.4531496e-05
0.0034407859
0.0030880613
0.0029258873
0.0027943899
0.0026700795
0.0025525999
0.002440013
0.0023287169
0.0022155893
0.002098161
0.0019728999
0.0018355863
0.0016822324
0.0015073279
0.0013312177
0.0011653411
0.0010154148
0.00088405755
0.00077283735
0.00067898465
0.00059738634
0.00052379435
0.00045539514
0.00039031345
0.00032728114
0.00026546048
0.00020434136
0.00014374183
8.3615031e-05
2.1160096e-05
0.003231178
0.0029989843
0.0028664725
0.0027558482
0.0026464717
0.0025392247
0.0024346697
0.0023312477
0.0022251425
0.0021110413
0.0019828242
0.0018322488
0.0016517734
0.0014237389
0.001242636
0.0010911964
0.00095428135
0.00083086107
0.00073103455
0.00064973257
0.00057817979
0.0005117566
0.00044826143
0.00038640391
0.00032544773
0.00026492519
0.0002045501
0.00014417941
8.3543576e-05
2.0964093e-05
0.0029921712
0.002924624
0.0028319532
0.0027330587
0.002631323
0.0025285777
0.002425936
0.0023230669
0.0022184502
0.0021071823
0.0019814344
0.0018325977
0.0016502619
0.0014172447
0.0012321483
0.0010826041
0.00094769641
0.00082599487
0.00072673959
0.00064657055
0.00057626704
0.00051058242
0.00044735268
0.00038552522
0.00032444272
0.00026373932
0.00020315159
0.00014235264
8.0334085e-05
1.343513e-05
0.0030271188
0.0029603511
0.002862129
0.0027582655
0.0026528935
0.0025469325
0.002441128
0.0023350428
0.0022279005
0.0021144123
0.001986653
0.0018356012
0.0016507907
0.0014167713
0.001232466
0.001084994
0.00095154891
0.00083056777
0.00073183481
0.00065157684
0.00058087199
0.00051465916
0.0004508689
0.00038850256
0.00032690338
0.00026567794
0.00020449305
0.00014292438
7.9774365e-05
1.090479e-05
0.0029921712
0.002924624
0.0028319532
0.0027330587
0.002631323
0.0025285777
0.002425936
0.0023230669
0.0022184502
0.0021071823
0.0019814344
0.0018325977
0.0016502619
0.0014172447
0.0012321483
0.0010826041
0.00094769638
0.00082599484
0.00072673957
0.00064657053
0.00057626702
0.0005105824
0.00044735266
0.0003855252
0.00032444271
0.00026373931
0.00020315156
0.0001423526
8.0334046e-05
1.3435109e-05
0.003231178
0.0029989843
0.0028664725
0.0027558482
0.0026464717
0.0025392247
0.0024346697
0.0023312476
0.0022251425
0.0021110413
0.0019828242
0.0018322488
0.0016517733
0.0014237389
0.001242636
0.0010911964
0.00095428132
0.00083086104
0.00073103452
0.00064973254
0.00057817977
0.00051175658
0.00044826141
0.0003864039
0.00032544772
0.00026492517
0.00020455009
0.00014417939
8.3543537e-05
2.0964069e-05
0.0032216961
0.0029987874
0.0028734318
0.0027704957
0.0026698073
0.0025724684
0.0024788957
0.0023876714
0.0022964608
0.0022007682
0.0020927513
0.0019581177
0.0017849403
0.001470029
0.0012332797
0.0010421216
0.00087432458
0.00072664076
0.00064819139
0.0005945001
0.00054516393
0.00049468654
0.00044187996
0.00038693718
0.00033019654
0.00027196686
0.0002124999
0.0001520252
9.0663403e-05
2.8563071e-05
0.002981775
0.0029229819
0.0028382199
0.0027471701
0.0026544074
0.0025621593
0.0024718816
0.002383272
0.0022947091
0.0022031481
0.0021015719
0.0019745968
0.0017969271
0.0014648954
0.0012134567
0.0010154511
0.00084413698
0.00069599554
0.00062293635
0.00057905923
0.00053691225
0.00049091845
0.00044083902
0.00038741955
0.00033140784
0.00027336901
0.00021380054
0.00015296681
9.0618731e-05
2.562054e-05
0.0030175023
0.0029595189
0.0028692554
0.0027733147
0.0026771312
0.0025820069
0.0024891675
0.0023983102
0.0023075751
0.0022144912
0.0021117821
0.0019844773
0.0018073184
0.0014751172
0.0012233103
0.001022906
0.0008458054
0.00069648714
0.00062549808
0.00058343442
0.0005415818
0.0004953722
0.00044485538
0.00039087969
0.0003342931
0.00027568046
0.00021549143
0.00015395598
9.0734635e-05
2.4426011e-05
0.002981775
0.0029229819
0.0028382199
0.0027471701
0.0026544074
0.0025621593
0.0024718816
0.002383272
0.0022947091
0.0022031481
0.0021015719
0.0019745968
0.0017969271
0.0014648954
0.0012134566
0.0010154511
0.00084413696
0.00069599551
0.00062293633
0.00057905921
0.00053691223
0.00049091844
0.00044083901
0.00038741954
0.00033140783
0.000273369
0.00021380052
0.00015296677
9.0618687e-05
2.5620516e-05
0.0032216961
0.0029987874
0.0028734317
0.0027704957
0.0026698072
0.0025724684
0.0024788957
0.0023876714
0.0022964608
0.0022007682
0.0020927512
0.0019581176
0.0017849403
0.001470029
0.0012332797
0.0010421215
0.00087432454
0.00072664072
0.00064819135
0.00059450007
0.00054516391
0.00049468652
0.00044187994
0.00038693716
0.00033019653
0.00027196685
0.0002124999
0.00015202516
9.0663357e-05
2.8563047e-05
0.0031829776
0.0029685811
0.0028525224
0.0027582339
0.002665949
0.0025774208
0.0024942304
0.0024153082
0.0023379527
0.0022554524
0.0021537585
0.0019853933
0.001658025
0.00083423586
0.00095091802
0.00084568037
0.00070937578
0.00052277113
0.00053275337
0.00052373567
0.00050442671
0.00047360829
0.00043288097
0.00038518455
0.00033261341
0.00027665148
0.00021826157
0.00015826775
9.7613086e-05
3.8041333e-05
0.0029440395
0.0028930004
0.0028180831
0.0027359912
0.0026516136
0.002568012
0.0024877527
0.002411751
0.0023388873
0.0022647553
0.0021742448
0.0020089779
0.0015938899
0.00057052643
0.00081941339
0.00079131285
0.00065381066
0.00047144854
0.0004941601
0.0005040542
0.00049582899
0.00047083962
0.00043364177
0.00038806649
0.00033670854
0.00028128474
0.00022321165
0.0001634904
0.00010288196
4.2883547e-05
0.0029789588
0.0029287728
0.0028485361
0.0027616251
0.0026738714
0.0025873427
0.0025042887
0.0024258116
0.0023504936
0.0022733838
0.0021788027
0.0020104482
0.001571378
0.00053410151
0.00080824843
0.00079876362
0.00066112438
0.00048736237
0.00050551118
0.00051468653
0.00050500947
0.00047805731
0.00043898172
0.00039192213
0.00033937634
0.00028301339
0.00022411575
0.00016368653
0.00010297772
4.3724474e-05
0.0029440395
0.0028930004
0.0028180831
0.0027359912
0.0026516136
0.002568012
0.0024877527
0.002411751
0.0023388873
0.0022647553
0.0021742448
0.0020089779
0.0015938898
0.00057052641
0.00081941338
0.00079131284
0.00065381065
0.00047144853
0.0004941601
0.00050405419
0.00049582899
0.00047083962
0.00043364178
0.0003880665
0.00033670856
0.00028128475
0.00022321165
0.00016349038
0.00010288193
4.2883534e-05
0.0031829776
0.0029685811
0.0028525224
0.0027582338
0.002665949
0.0025774207
0.0024942303
0.0024153082
0.0023379526
0.0022554524
0.0021537585
0.0019853933
0.0016580249
0.00083423584
0.00095091802
0.00084568036
0.00070937576
0.00052277112
0.00053275336
0.00052373566
0.00050442671
0.00047360829
0.00043288099
0.00038518456
0.00033261343
0.00027665149
0.00021826159
0.00015826774
9.7613064e-05
3.8041317e-05
0.0031827559
0.0029701331
0.0028575227
0.0027679061
0.0026822482
0.002603015
0.0025341407
0.0024786166
0.0024402734
0.0024250731
0.0024475204
0.0025111074
0.0026495595
0.00019192597
0.00040715736
0.00044329612
0.00048319142
0.00047512358
0.00044480583
0.00040122662
0.00034984533
0.00029359446
0.00023414423
0.00017247522
0.00010926765
5.155166e-05
0.0029434465
0.002893957
0.0028223283
0.0027448812
0.0026670509
0.0025930616
0.0025276283
0.0024767104
0.0024487943
0.0024575598
0.0025215591
0.0026492508
0.0029491989
5.4607998e-05
0.00037081866
0.00043076775
0.00048596793
0.00048884536
0.00046151946
0.00041822484
0.00036523989
0.00030669314
0.00024512681
0.0001819937
0.00011880208
6.3246429e-05
0.0029784289
0.0029298032
0.0028528772
0.002770661
0.0026896164
0.0026131056
0.0025453845
0.0024929371
0.0024644963
0.0024744332
0.0025475079
0.0027001157
0.0030689271
4.9494111e-05
0.00037664523
0.00043843339
0.0004934804
0.00049591629
0.00046631394
0.00042089348
0.00036702921
0.00030805646
0.00024621767
0.00018304895
0.00012030682
6.6498243e-05
0.0029434465
0.002893957
0.0028223283
0.0027448811
0.0026670509
0.0025930616
0.0025276283
0.0024767104
0.0024487943
0.0024575598
0.0025215591
0.0026492508
0.0029491988
5.4608005e-05
0.00037081866
0.00043076775
0.00048596794
0.00048884537
0.00046151949
0.00041822488
0.00036523993
0.00030669317
0.00024512683
0.0001819937
0.00011880206
6.3246418e-05
0.0031827559
0.0029701331
0.0028575227
0.0027679061
0.0026822482
0.002603015
0.0025341407
0.0024786166
0.0024402734
0.0024250731
0.0024475203
0.0025111074
0.0026495595
0.00019192598
0.00040715737
0.00044329613
0.00048319144
0.00047512361
0.00044480587
0.00040122667
0.00034984538
0.00029359451
0.00023414425
0.00017247523
0.00010926764
5.1551651e-05
0.0031827559
0.0029701331
0.0028575227
0.0027679061
0.0026822482
0.002603015
0.0025341407
0.0024786166
0.0024402734
0.0024250731
0.0024475204
0.0025111074
0.0026495595
0.00019192605
0.00040715742
0.00044329617
0.00048319146
0.00047512362
0.00044480587
0.00040122664
0.00034984536
0.00029359449
0.00023414425
0.00017247524
0.00010926765
5.1551654e-05
0.0029434465
0.002893957
0.0028223283
0.0027448812
0.0026670509
0.0025930616
0.0025276283
0.0024767104
0.0024487943
0.0024575598
0.0025215591
0.0026492508
0.0029491989
5.460809e-05
0.00037081873
0.0004307678
0.00048596798
0.00048884539
0.00046151949
0.00041822487
0.00036523992
0.00030669317
0.00024512684
0.00018199371
0.00011880208
6.3246424e-05
0.0029784289
0.0029298032
0.0028528772
0.002770661
0.0026896164
0.0026131056
0.0025453845
0.0024929371
0.0024644963
0.0024744332
0.0025475079
0.0027001157
0.0030689271
4.9494209e-05
0.0003766453
0.00043843345
0.00049348044
0.00049591632
0.00046631397
0.00042089351
0.00036702924
0.00030805647
0.00024621769
0.00018304895
0.00012030681
6.649824e-05
0.0029434465
0.002893957
0.0028223283
0.0027448811
0.0026670509
0.0025930616
0.0025276283
0.0024767104
0.0024487943
0.0024575598
0.0025215591
0.0026492507
0.0029491988
5.4608097e-05
0.00037081873
0.0004307678
0.00048596798
0.0004888454
0.00046151951
0.0004182249
0.00036523994
0.00030669319
0.00024512684
0.00018199369
0.00011880205
6.3246412e-05
0.0031827559
0.0029701331
0.0028575227
0.0027679061
0.0026822482
0.002603015
0.0025341407
0.0024786166
0.0024402734
0.0024250731
0.0024475203
0.0025111074
0.0026495595
0.00019192604
0.00040715743
0.00044329618
0.00048319147
0.00047512364
0.00044480589
0.00040122668
0.0003498454
0.00029359452
0.00023414426
0.00017247523
0.00010926763
5.1551646e-05
0.0031829776
0.0029685811
0.0028525224
0.0027582339
0.002665949
0.0025774208
0.0024942304
0.0024153082
0.0023379527
0.0022554524
0.0021537585
0.0019853933
0.001658025
0.00083423592
0.00095091814
0.00084568049
0.00070937588
0.00052277122
0.00053275345
0.00052373575
0.00050442679
0.00047360836
0.00043288104
0.00038518461
0.00033261347
0.00027665154
0.00021826164
0.00015826778
9.7613095e-05
3.8041322e-05
0.0029440395
0.0028930004
0.0028180831
0.0027359912
0.0026516136
0.002568012
0.0024877527
0.002411751
0.0023388873
0.0022647553
0.0021742448
0.0020089779
0.0015938899
0.00057052646
0.00081941349
0.00079131295
0.00065381076
0.00047144862
0.00049416019
0.00050405428
0.00049582907
0.00047083969
0.00043364184
0.00038806656
0.0003367086
0.00028128479
0.00022321169
0.0001634904
0.00010288195
4.2883535e-05
0.0029789588
0.0029287728
0.0028485361
0.0027616251
0.0026738714
0.0025873427
0.0025042887
0.0024258116
0.0023504936
0.0022733838
0.0021788026
0.0020104482
0.001571378
0.00053410153
0.00080824852
0.00079876373
0.00066112448
0.00048736247
0.00050551127
0.00051468661
0.00050500954
0.00047805737
0.00043898178
0.00039192219
0.00033937639
0.00028301343
0.00022411576
0.00016368652
0.0001029777
4.3724462e-05
0.0029440395
0.0028930003
0.0028180831
0.0027359912
0.0026516136
0.002568012
0.0024877527
0.002411751
0.0023388873
0.0022647553
0.0021742448
0.0020089779
0.0015938898
0.00057052643
0.00081941348
0.00079131294
0.00065381075
0.00047144862
0.00049416018
0.00050405427
0.00049582906
0.00047083968
0.00043364183
0.00038806655
0.00033670859
0.00028128478
0.00022321166
0.00016349037
0.00010288192
4.2883523e-05
0.0031829776
0.0029685811
0.0028525224
0.0027582338
0.002665949
0.0025774207
0.0024942303
0.0024153082
0.0023379526
0.0022554524
0.0021537585
0.0019853933
0.001658025
0.00083423589
0.00095091811
0.00084568046
0.00070937586
0.0005227712
0.00053275344
0.00052373574
0.00050442677
0.00047360835
0.00043288103
0.0003851846
0.00033261346
0.00027665152
0.0002182616
0.00015826774
9.7613065e-05
3.8041312e-05
0.0032216961
0.0029987874
0.0028734318
0.0027704957
0.0026698073
0.0025724684
0.0024788957
0.0023876714
0.0022964608
0.0022007682
0.0020927513
0.0019581177
0.0017849403
0.0014700291
0.0012332798
0.0010421217
0.00087432466
0.00072664084
0.00064819147
0.00059450018
0.00054516401
0.00049468661
0.00044188002
0.00038693723
0.00033019659
0.00027196689
0.00021249992
0.00015202516
9.0663363e-05
2.8563045e-05
0.002981775
0.0029229819
0.0028382199
0.0027471701
0.0026544074
0.0025621593
0.0024718816
0.002383272
0.0022947091
0.0022031482
0.0021015719
0.0019745968
0.0017969271
0.0014648955
0.0012134567
0.0010154512
0.00084413706
0.00069599561
0.00062293643
0.00057905931
0.00053691232
0.00049091852
0.00044083908
0.0003874196
0.00033140788
0.00027336903
0.0002138005
0.00015296674
9.0618663e-05
2.5620504e-05
0.0030175023
0.0029595189
0.0028692554
0.0027733147
0.0026771312
0.0025820069
0.0024891675
0.0023983102
0.0023075751
0.0022144912
0.0021117821
0.0019844773
0.0018073184
0.0014751172
0.0012233104
0.0010229061
0.00084580548
0.00069648722
0.00062549817
0.00058343451
0.00054158188
0.00049537227
0.00044485545
0.00039087975
0.00033429313
0.00027568046
0.00021549139
0.00015395589
9.0734572e-05
2.4425982e-05
0.002981775
0.0029229819
0.0028382199
0.0027471701
0.0026544074
0.0025621593
0.0024718816
0.002383272
0.0022947091
0.0022031481
0.0021015719
0.0019745968
0.0017969271
0.0014648955
0.0012134567
0.0010154512
0.00084413704
0.0006959956
0.00062293642
0.0005790593
0.00053691232
0.00049091852
0.00044083907
0.00038741959
0.00033140787
0.00027336901
0.00021380049
0.00015296673
9.0618655e-05
2.56205e-05
0.0032216961
0.0029987874
0.0028734317
0.0027704957
0.0026698072
0.0025724684
0.0024788957
0.0023876714
0.0022964608
0.0022007682
0.0020927512
0.0019581177
0.0017849403
0.0014700291
0.0012332798
0.0010421216
0.00087432464
0.00072664082
0.00064819145
0.00059450016
0.000545164
0.0004946866
0.00044188001
0.00038693722
0.00033019657
0.00027196686
0.00021249989
0.00015202515
9.0663353e-05
2.8563041e-05
0.003231178
0.0029989843
0.0028664725
0.0027558482
0.0026464717
0.0025392247
0.0024346697
0.0023312477
0.0022251425
0.0021110413
0.0019828242
0.0018322488
0.0016517734
0.001423739
0.0012426361
0.0010911965
0.00095428143
0.00083086116
0.00073103465
0.00064973267
0.00057817988
0.00051175668
0.0004482615
0.00038640398
0.00032544779
0.00026492522
0.0002045501
0.00014417938
8.3543524e-05
2.096406e-05
0.0029921712
0.002924624
0.0028319532
0.0027330587
0.002631323
0.0025285777
0.002425936
0.0023230669
0.0022184502
0.0021071824
0.0019814345
0.0018325977
0.0016502619
0.0014172448
0.0012321484
0.0010826042
0.00094769648
0.00082599494
0.00072673968
0.00064657065
0.00057626713
0.0005105825
0.00044735275
0.00038552529
0.00032444277
0.00026373934
0.00020315155
0.00014235255
8.0334001e-05
1.3435086e-05
0.0030271188
0.0029603511
0.002862129
0.0027582655
0.0026528935
0.0025469325
0.002441128
0.0023350428
0.0022279005
0.0021144123
0.001986653
0.0018356013
0.0016507908
0.0014167714
0.0012324661
0.0010849941
0.00095154899
0.00083056786
0.00073183491
0.00065157694
0.00058087209
0.00051465925
0.00045086898
0.00038850263
0.00032690343
0.00026567795
0.000204493
0.00014292429
7.9774287e-05
1.0904752e-05
0.0029921712
0.002924624
0.0028319532
0.0027330587
0.002631323
0.0025285777
0.002425936
0.0023230669
0.0022184502
0.0021071823
0.0019814345
0.0018325977
0.0016502619
0.0014172448
0.0012321484
0.0010826042
0.00094769647
0.00082599494
0.00072673967
0.00064657064
0.00057626713
0.0005105825
0.00044735275
0.00038552529
0.00032444277
0.00026373933
0.00020315154
0.00014235256
8.0334008e-05
1.3435086e-05
0.003231178
0.0029989843
0.0028664725
0.0027558482
0.0026464717
0.0025392247
0.0024346697
0.0023312477
0.0022251425
0.0021110413
0.0019828242
0.0018322488
0.0016517734
0.001423739
0.0012426361
0.0010911965
0.00095428142
0.00083086114
0.00073103463
0.00064973266
0.00057817988
0.00051175668
0.0004482615
0.00038640398
0.00032544778
0.0002649252
0.00020455009
0.00014417937
8.3543526e-05
2.0964059e-05
0.003440786
0.0030880613
0.0029258873
0.00279439
0.0026700795
0.0025525999
0.002440013
0.002328717
0.0022155893
0.0020981611
0.0019728999
0.0018355864
0.0016822325
0.001507328
0.0013312178
0.0011653412
0.001015415
0.00088405769
0.0007728375
0.00067898479
0.00059738647
0.00052379447
0.00045539525
0.00039031356
0.00032728123
0.00026546056
0.00020434141
0.00014374184
8.3615031e-05
2.1160088e-05
0.0031958281
0.003005432
0.0028715815
0.0027571896
0.0026447296
0.002534301
0.0024261373
0.0023180092
0.0022065751
0.0020895913
0.0019657131
0.0018310517
0.00168094
0.001509317
0.001334487
0.0011685431
0.0010162419
0.00088227223
0.00076969167
0.00067561191
0.00059422392
0.0005207873
0.00045240372
0.0003872259
0.00032403625
0.00026207006
0.00020088805
0.00014023436
7.9592454e-05
1.4531477e-05
0.0032326974
0.0030422231
0.0029023628
0.0027828965
0.0026661533
0.0025517752
0.0024400195
0.0023287593
0.0022146002
0.002095065
0.0019688775
0.0018327637
0.0016823136
0.0015117276
0.0013381003
0.0011734368
0.0010215403
0.00088717085
0.00077444939
0.00068028275
0.00059863681
0.00052481927
0.00045603432
0.00039046491
0.00032687773
0.00026446705
0.00020272881
0.00014136176
7.968073e-05
1.2898185e-05
0.0031958281
0.003005432
0.0028715815
0.0027571896
0.0026447296
0.002534301
0.0024261373
0.0023180092
0.0022065751
0.0020895913
0.0019657131
0.0018310517
0.00168094
0.0015093169
0.001334487
0.0011685431
0.0010162419
0.00088227222
0.00076969167
0.00067561191
0.00059422393
0.0005207873
0.00045240372
0.0003872259
0.00032403624
0.00026207005
0.00020088804
0.00014023436
7.9592456e-05
1.4531477e-05
0.003440786
0.0030880613
0.0029258873
0.00279439
0.0026700795
0.0025525999
0.002440013
0.002328717
0.0022155893
0.0020981611
0.0019728999
0.0018355864
0.0016822325
0.001507328
0.0013312178
0.0011653412
0.001015415
0.00088405768
0.00077283749
0.00067898479
0.00059738648
0.00052379448
0.00045539525
0.00039031356
0.00032728122
0.00026546054
0.00020434138
0.00014374183
8.3615027e-05
2.1160086e-05
)
;

boundaryField
{
    minX
    {
        type            zeroGradient;
    }
    maxX
    {
        type            fixedValue;
        value           uniform 0;
    }
    minY
    {
        type            fixedFluxPressure;
        gradient        uniform 0;
        value           nonuniform List<scalar> 
292
(
0.003440786
0.003231178
0.0032216961
0.0031829776
0.0031827559
0.0031827559
0.0031829776
0.0032216961
0.003231178
0.003440786
0.0030880613
0.0029989843
0.0029987874
0.0029685811
0.0029701331
0.0029701331
0.0029685811
0.0029987874
0.0029989843
0.0030880613
0.0029258873
0.0028664725
0.0028734318
0.0028525224
0.0028575227
0.0028575227
0.0028525224
0.0028734318
0.0028664725
0.0029258873
0.00279439
0.0027558482
0.0027704957
0.0027582339
0.0027679061
0.0027679061
0.0027582339
0.0027704957
0.0027558482
0.00279439
0.0026700795
0.0026464717
0.0026698073
0.002665949
0.0026822482
0.0026822482
0.002665949
0.0026698073
0.0026464717
0.0026700795
0.0025525999
0.0025392247
0.0025724684
0.0025774208
0.002603015
0.002603015
0.0025774208
0.0025724684
0.0025392247
0.0025525999
0.002440013
0.0024346697
0.0024788957
0.0024942304
0.0025341407
0.0025341407
0.0024942304
0.0024788957
0.0024346697
0.002440013
0.002328717
0.0023312477
0.0023876714
0.0024153082
0.0024786166
0.0024786166
0.0024153082
0.0023876714
0.0023312477
0.002328717
0.0022155893
0.0022251425
0.0022964608
0.0023379527
0.0024402734
0.0024402734
0.0023379527
0.0022964608
0.0022251425
0.0022155893
0.0020981611
0.0021110413
0.0022007682
0.0022554524
0.0024250731
0.0024250731
0.0022554524
0.0022007682
0.0021110413
0.0020981611
0.0019728999
0.0019828242
0.0020927513
0.0021537585
0.0024475204
0.0024475204
0.0021537585
0.0020927513
0.0019828242
0.0019728999
0.0018355864
0.0018322488
0.0019581177
0.0019853933
0.0025111074
0.0025111074
0.0019853933
0.0019581177
0.0018322488
0.0018355864
0.0016822324
0.0016517734
0.0017849403
0.001658025
0.0026495595
0.0026495595
0.001658025
0.0017849403
0.0016517734
0.0016822325
0.0015073279
0.0014237389
0.001470029
0.00083423586
0.00083423592
0.0014700291
0.001423739
0.001507328
0.0013312177
0.001242636
0.0012332797
0.00095091802
0.00095091814
0.0012332798
0.0012426361
0.0013312178
0.0011653412
0.0010911964
0.0010421216
0.00084568037
0.00084568049
0.0010421217
0.0010911965
0.0011653412
0.0010154148
0.00095428135
0.00087432458
0.00070937578
0.00070937588
0.00087432466
0.00095428143
0.001015415
0.00088405757
0.00083086107
0.00072664076
0.00052277113
0.00019192597
0.00019192605
0.00052277122
0.00072664084
0.00083086116
0.00088405769
0.00077283737
0.00073103455
0.00064819139
0.00053275337
0.00040715736
0.00040715742
0.00053275345
0.00064819147
0.00073103465
0.0007728375
0.00067898466
0.00064973257
0.0005945001
0.00052373567
0.00044329612
0.00044329617
0.00052373575
0.00059450018
0.00064973267
0.00067898479
0.00059738635
0.00057817979
0.00054516393
0.00050442671
0.00048319142
0.00048319146
0.00050442679
0.00054516401
0.00057817988
0.00059738647
0.00052379436
0.0005117566
0.00049468654
0.00047360829
0.00047512358
0.00047512362
0.00047360836
0.00049468661
0.00051175668
0.00052379447
0.00045539515
0.00044826143
0.00044187996
0.00043288097
0.00044480583
0.00044480587
0.00043288104
0.00044188002
0.0004482615
0.00045539525
0.00039031346
0.00038640391
0.00038693718
0.00038518455
0.00040122662
0.00040122664
0.00038518461
0.00038693723
0.00038640398
0.00039031356
0.00032728115
0.00032544773
0.00033019654
0.00033261341
0.00034984533
0.00034984536
0.00033261347
0.00033019659
0.00032544779
0.00032728123
0.0002654605
0.00026492519
0.00027196686
0.00027665148
0.00029359446
0.00029359449
0.00027665154
0.00027196689
0.00026492522
0.00026546056
0.00020434138
0.0002045501
0.0002124999
0.00021826157
0.00023414423
0.00023414425
0.00021826164
0.00021249992
0.0002045501
0.00020434141
0.00014374185
0.00014417941
0.0001520252
0.00015826775
0.00017247522
0.00017247524
0.00015826778
0.00015202516
0.00014417938
0.00014374184
8.3615063e-05
8.3543576e-05
9.0663403e-05
9.7613086e-05
0.00010926765
0.00010926765
9.7613095e-05
9.0663363e-05
8.3543524e-05
8.3615031e-05
2.1160112e-05
2.0964093e-05
2.8563071e-05
3.8041333e-05
5.155166e-05
5.1551654e-05
3.8041322e-05
2.8563045e-05
2.096406e-05
2.1160088e-05
)
;
    }
    minZ
    {
        type            fixedFluxPressure;
        gradient        uniform 0;
        value           nonuniform List<scalar> 
150
(
0.003440786
0.0031958281
0.0032326974
0.0031958281
0.0034407859
0.0030880613
0.003005432
0.0030422231
0.003005432
0.0030880613
0.0029258873
0.0028715815
0.0029023628
0.0028715815
0.0029258873
0.00279439
0.0027571896
0.0027828965
0.0027571896
0.0027943899
0.0026700795
0.0026447296
0.0026661533
0.0026447296
0.0026700795
0.0025525999
0.002534301
0.0025517752
0.002534301
0.0025525999
0.002440013
0.0024261373
0.0024400195
0.0024261372
0.002440013
0.002328717
0.0023180092
0.0023287593
0.0023180092
0.0023287169
0.0022155893
0.0022065751
0.0022146002
0.002206575
0.0022155893
0.0020981611
0.0020895913
0.002095065
0.0020895913
0.002098161
0.0019728999
0.0019657131
0.0019688775
0.0019657131
0.0019728999
0.0018355864
0.0018310516
0.0018327637
0.0018310516
0.0018355863
0.0016822324
0.0016809399
0.0016823135
0.0016809399
0.0016822324
0.0015073279
0.0015093169
0.0015117276
0.0015093169
0.0015073279
0.0013312177
0.0013344869
0.0013381002
0.0013344869
0.0013312177
0.0011653412
0.001168543
0.0011734367
0.001168543
0.0011653411
0.0010154148
0.0010162418
0.0010215402
0.0010162418
0.0010154148
0.00088405757
0.0008822721
0.00088717071
0.00088227209
0.00088405755
0.00077283737
0.00076969154
0.00077444925
0.00076969153
0.00077283735
0.00067898466
0.00067561178
0.00068028262
0.00067561177
0.00067898465
0.00059738635
0.0005942238
0.00059863668
0.00059422379
0.00059738634
0.00052379436
0.00052078719
0.00052481915
0.00052078718
0.00052379435
0.00045539515
0.00045240363
0.00045603422
0.00045240362
0.00045539514
0.00039031346
0.0003872258
0.00039046481
0.00038722579
0.00039031345
0.00032728115
0.00032403618
0.00032687765
0.00032403616
0.00032728114
0.0002654605
0.00026207002
0.00026446701
0.00026207
0.00026546048
0.00020434138
0.00020088805
0.00020272883
0.00020088803
0.00020434136
0.00014374185
0.00014023441
0.00014136181
0.00014023437
0.00014374183
8.3615063e-05
7.9592515e-05
7.9680781e-05
7.9592478e-05
8.3615031e-05
2.1160112e-05
1.4531512e-05
1.2898215e-05
1.4531496e-05
2.1160096e-05
)
;
    }
    maxZ
    {
        type            fixedFluxPressure;
        gradient        uniform 0;
        value           nonuniform List<scalar> 
150
(
0.003440786
0.0031958281
0.0032326974
0.0031958281
0.003440786
0.0030880613
0.003005432
0.0030422231
0.003005432
0.0030880613
0.0029258873
0.0028715815
0.0029023628
0.0028715815
0.0029258873
0.00279439
0.0027571896
0.0027828965
0.0027571896
0.00279439
0.0026700795
0.0026447296
0.0026661533
0.0026447296
0.0026700795
0.0025525999
0.002534301
0.0025517752
0.002534301
0.0025525999
0.002440013
0.0024261373
0.0024400195
0.0024261373
0.002440013
0.002328717
0.0023180092
0.0023287593
0.0023180092
0.002328717
0.0022155893
0.0022065751
0.0022146002
0.0022065751
0.0022155893
0.0020981611
0.0020895913
0.002095065
0.0020895913
0.0020981611
0.0019728999
0.0019657131
0.0019688775
0.0019657131
0.0019728999
0.0018355864
0.0018310517
0.0018327637
0.0018310517
0.0018355864
0.0016822325
0.00168094
0.0016823136
0.00168094
0.0016822325
0.001507328
0.001509317
0.0015117276
0.0015093169
0.001507328
0.0013312178
0.001334487
0.0013381003
0.001334487
0.0013312178
0.0011653412
0.0011685431
0.0011734368
0.0011685431
0.0011653412
0.001015415
0.0010162419
0.0010215403
0.0010162419
0.001015415
0.00088405769
0.00088227223
0.00088717085
0.00088227222
0.00088405768
0.0007728375
0.00076969167
0.00077444939
0.00076969167
0.00077283749
0.00067898479
0.00067561191
0.00068028275
0.00067561191
0.00067898479
0.00059738647
0.00059422392
0.00059863681
0.00059422393
0.00059738648
0.00052379447
0.0005207873
0.00052481927
0.0005207873
0.00052379448
0.00045539525
0.00045240372
0.00045603432
0.00045240372
0.00045539525
0.00039031356
0.0003872259
0.00039046491
0.0003872259
0.00039031356
0.00032728123
0.00032403625
0.00032687773
0.00032403624
0.00032728122
0.00026546056
0.00026207006
0.00026446705
0.00026207005
0.00026546054
0.00020434141
0.00020088805
0.00020272881
0.00020088804
0.00020434138
0.00014374184
0.00014023436
0.00014136176
0.00014023436
0.00014374183
8.3615031e-05
7.9592454e-05
7.968073e-05
7.9592456e-05
8.3615027e-05
2.1160088e-05
1.4531477e-05
1.2898185e-05
1.4531477e-05
2.1160086e-05
)
;
    }
    bottomWater_to_rightSolid
    {
        type            fixedFluxPressure;
        gradient        uniform 0;
        value           nonuniform List<scalar> 
130
(
0.00088405755
0.00077283735
0.00067898465
0.00059738634
0.00052379435
0.00045539514
0.00039031345
0.00032728114
0.00026546048
0.00020434136
0.00014374183
8.3615031e-05
2.1160096e-05
0.00083086104
0.00073103452
0.00064973254
0.00057817977
0.00051175658
0.00044826141
0.0003864039
0.00032544772
0.00026492517
0.00020455009
0.00014417939
8.3543537e-05
2.0964069e-05
0.00072664072
0.00064819135
0.00059450007
0.00054516391
0.00049468652
0.00044187994
0.00038693716
0.00033019653
0.00027196685
0.0002124999
0.00015202516
9.0663357e-05
2.8563047e-05
0.00052277112
0.00053275336
0.00052373566
0.00050442671
0.00047360829
0.00043288099
0.00038518456
0.00033261343
0.00027665149
0.00021826159
0.00015826774
9.7613064e-05
3.8041317e-05
0.00019192598
0.00040715737
0.00044329613
0.00048319144
0.00047512361
0.00044480587
0.00040122667
0.00034984538
0.00029359451
0.00023414425
0.00017247523