/*--------------------------------*- C++ -*----------------------------------*\
| =========                 |                                                 |
| \\      /  F ield         | OpenFOAM: The Open Source CFD Toolbox           |
|  \\    /   O peration     | Version:  2412                                  |
|   \\  /    A nd           | Website:  www.openfoam.com                      |
|    \\/     M anipulation  |                                                 |
\*---------------------------------------------------------------------------*/
FoamFile
{
    version     2.0;
    format      ascii;
    arch        "LSB;label=32;scalar=64";
    class       surfaceScalarField;
    location    "100/bottomWater";
    object      phi;
}
// * * * * * * * * * * * * * * * * * * * * * * * * * * * * * * * * * * * * * //

dimensions      [1 0 -1 0 0 0 0];

oriented        oriented;

internalField   nonuniform List<scalar> 
3858
(
7.3285568e-05
4.142521e-06
2.5719114e-06
6.5959522e-05
4.2663043e-06
3.0597415e-06
5.917921e-05
3.8104013e-06
2.9699107e-06
5.3435636e-05
3.1722531e-06
2.5713203e-06
4.8921952e-05
2.5111771e-06
2.002507e-06
4.5637567e-05
1.9380087e-06
1.3463761e-06
4.352453e-05
1.4881253e-06
6.2491172e-07
4.2544477e-05
1.1567233e-06
-1.7666948e-07
4.2634302e-05
9.4249294e-07
-1.032318e-06
4.376559e-05
8.2844394e-07
-1.959732e-06
4.5904954e-05
7.4219747e-07
-2.8815617e-06
4.8891912e-05
6.251775e-07
-3.6121353e-06
5.2187839e-05
4.4865111e-07
-3.7445782e-06
5.4082298e-05
2.3564777e-07
-2.1301071e-06
5.4553546e-05
3.7175378e-08
-5.0842354e-07
5.381868e-05
-1.3378538e-07
8.6865184e-07
5.2027542e-05
-2.1655396e-07
2.0076915e-06
4.9309994e-05
-2.308696e-07
2.9484175e-06
4.6109228e-05
-2.2160808e-07
3.4223749e-06
4.2868198e-05
-2.1258365e-07
3.4536129e-06
3.9879843e-05
-2.0497796e-07
3.1933332e-06
3.728285e-05
-1.9260609e-07
2.7895995e-06
3.5111491e-05
-1.7206841e-07
2.3434273e-06
3.3339504e-05
-1.4273491e-07
1.9147221e-06
3.1912319e-05
-1.0558984e-07
1.5327744e-06
3.0766527e-05
-6.2863951e-08
1.2086565e-06
2.9839045e-05
-1.6887937e-08
9.4436937e-07
2.9059596e-05
4.0179434e-08
7.3926925e-07
2.8360228e-05
1.1255785e-07
5.8681086e-07
2.700465e-07
4.8357693e-07
7.963393e-05
1.6762033e-06
2.8323882e-06
7.842174e-05
1.8611852e-06
3.6173089e-06
7.682763e-05
1.7501321e-06
3.6543787e-06
7.5070437e-05
1.5156206e-06
3.4138259e-06
7.3362641e-05
1.2383201e-06
2.980653e-06
7.1914315e-05
9.7931151e-07
2.4070236e-06
7.0921147e-05
7.6391646e-07
1.7173767e-06
7.0586804e-05
5.964178e-07
8.9464788e-07
7.1157845e-05
4.8101684e-07
-1.0956452e-07
7.2806016e-05
4.175769e-07
-1.2373037e-06
7.5658848e-05
3.7725402e-07
-2.4878883e-06
7.9648552e-05
3.2885102e-07
-3.6933783e-06
8.4265092e-05
2.5822408e-07
-4.4261132e-06
8.7786322e-05
1.6606674e-07
-3.4516487e-06
8.9817145e-05
7.2861683e-08
-2.0665096e-06
9.0414915e-05
-1.2812768e-08
-7.1874244e-07
8.9697319e-05
-7.3158719e-08
5.7420085e-07
8.7786596e-05
-9.4445452e-08
1.7742989e-06
8.4997845e-05
-1.0036445e-07
2.6675073e-06
8.1708586e-05
-1.0490236e-07
3.1815779e-06
7.8221788e-05
-1.1004113e-07
3.391861e-06
7.4747291e-05
-1.1281657e-07
3.3947078e-06
7.1427387e-05
-1.1080255e-07
3.2586378e-06
6.8346869e-05
-1.0264979e-07
3.0404329e-06
6.5547127e-05
-8.7815615e-08
2.7819682e-06
6.3039666e-05
-6.6407988e-08
2.5110049e-06
6.0814168e-05
-3.8528972e-08
2.247139e-06
5.8849161e-05
-1.0747741e-09
2.0062615e-06
5.7118022e-05
4.6427005e-08
1.7972692e-06
1.3345992e-07
1.6473519e-06
8.0500387e-05
-1.6762033e-06
2.8520194e-06
8.0545902e-05
-1.8611851e-06
3.6768551e-06
8.0289692e-05
-1.7501321e-06
3.7564746e-06
7.9757613e-05
-1.5156206e-06
3.5633201e-06
7.906081e-05
-1.23832e-06
3.1734425e-06
7.8382637e-05
-9.7931147e-07
2.6367962e-06
7.7929809e-05
-7.6391639e-07
1.9806614e-06
7.7927146e-05
-5.964177e-07
1.1954983e-06
7.8662905e-05
-4.8101671e-07
2.2627452e-07
8.0382191e-05
-4.1757674e-07
-8.8413272e-07
8.3249171e-05
-3.7725384e-07
-2.1124714e-06
8.7219759e-05
-3.2885084e-07
-3.3128867e-06
9.1832848e-05
-2.5822391e-07
-4.0966405e-06
9.5498193e-05
-1.660666e-07
-3.3332124e-06
9.7806634e-05
-7.2861596e-08
-2.1627174e-06
9.8764738e-05
1.2812808e-08
-9.8372982e-07
9.8439264e-05
7.3158696e-08
1.7915698e-07
9.6945823e-05
9.4445365e-08
1.3045501e-06
9.4584703e-05
1.003643e-07
2.1603909e-06
9.1682507e-05
1.0490215e-07
2.6923914e-06
8.8496252e-05
1.1004085e-07
2.9661733e-06
8.5208397e-05
1.1281621e-07
3.0622224e-06
8.1953245e-05
1.1080211e-07
3.0335472e-06
7.8822011e-05
1.0264925e-07
2.9259348e-06
7.5873523e-05
8.781498e-08
2.7728578e-06
7.314417e-05
6.640726e-08
2.5965372e-06
7.0653566e-05
3.8528176e-08
2.4135476e-06
6.8412655e-05
1.0737123e-09
2.238762e-06
6.6425309e-05
-4.6427736e-08
2.0802012e-06
-1.3346058e-07
1.9675157e-06
7.963393e-05
-4.142521e-06
2.8323882e-06
7.842174e-05
-4.2663043e-06
3.6173089e-06
7.682763e-05
-3.8104013e-06
3.6543787e-06
7.5070437e-05
-3.1722531e-06
3.4138259e-06
7.3362641e-05
-2.5111771e-06
2.980653e-06
7.1914315e-05
-1.9380087e-06
2.4070236e-06
7.0921147e-05
-1.4881253e-06
1.7173767e-06
7.0586805e-05
-1.1567233e-06
8.9464788e-07
7.1157845e-05
-9.4249288e-07
-1.0956452e-07
7.2806016e-05
-8.2844387e-07
-1.2373037e-06
7.5658848e-05
-7.4219739e-07
-2.4878883e-06
7.9648553e-05
-6.2517742e-07
-3.6933783e-06
8.4265093e-05
-4.4865104e-07
-4.4261131e-06
8.7786323e-05
-2.3564771e-07
-3.4516486e-06
8.9817146e-05
-3.7175345e-08
-2.0665095e-06
9.0414916e-05
1.3378539e-07
-7.1874242e-07
8.969732e-05
2.1655393e-07
5.7420086e-07
8.7786597e-05
2.3086955e-07
1.7742989e-06
8.4997846e-05
2.2160801e-07
2.6675073e-06
8.1708586e-05
2.1258355e-07
3.1815779e-06
7.8221788e-05
2.0497783e-07
3.391861e-06
7.4747291e-05
1.9260593e-07
3.3947077e-06
7.1427387e-05
1.7206823e-07
3.2586377e-06
6.8346869e-05
1.4273469e-07
3.0404327e-06
6.5547126e-05
1.0558958e-07
2.781968e-06
6.3039665e-05
6.2863665e-08
2.5110047e-06
6.0814167e-05
1.6887646e-08
2.2471387e-06
5.8849159e-05
-4.0179773e-08
2.0062612e-06
5.7118021e-05
-1.1255815e-07
1.7972689e-06
-2.7004675e-07
1.6473517e-06
7.3285568e-05
2.5719114e-06
6.5959522e-05
3.0597415e-06
5.917921e-05
2.9699107e-06
5.3435636e-05
2.5713203e-06
4.8921952e-05
2.002507e-06
4.5637568e-05
1.3463761e-06
4.3524531e-05
6.2491173e-07
4.2544477e-05
-1.7666947e-07
4.2634302e-05
-1.032318e-06
4.376559e-05
-1.959732e-06
4.5904954e-05
-2.8815617e-06
4.8891912e-05
-3.6121352e-06
5.2187839e-05
-3.7445781e-06
5.4082299e-05
-2.1301071e-06
5.4553547e-05
-5.0842351e-07
5.381868e-05
8.6865186e-07
5.2027543e-05
2.0076915e-06
4.9309995e-05
2.9484175e-06
4.6109228e-05
3.4223749e-06
4.2868198e-05
3.4536129e-06
3.9879843e-05
3.1933332e-06
3.728285e-05
2.7895994e-06
3.5111491e-05
2.3434272e-06
3.3339503e-05
1.914722e-06
3.1912319e-05
1.5327743e-06
3.0766526e-05
1.2086563e-06
2.9839045e-05
9.4436915e-07
2.9059596e-05
7.3926904e-07
2.8360227e-05
5.8681071e-07
4.8357688e-07
7.6665958e-05
4.3736111e-06
1.5323425e-06
7.2871077e-05
4.7184531e-06
2.136169e-06
6.9362719e-05
4.2347099e-06
2.2435593e-06
6.6288711e-05
3.6582224e-06
1.9871057e-06
6.3772331e-05
3.0664282e-06
1.4524589e-06
6.1893271e-05
2.5269335e-06
6.985029e-07
6.0699365e-05
2.0855852e-06
-2.6676838e-07
6.0283876e-05
1.7473914e-06
-1.5085713e-06
6.0799955e-05
1.4596916e-06
-3.0080885e-06
6.2478828e-05
1.1758783e-06
-4.8144832e-06
6.5643423e-05
8.8593478e-07
-6.9320922e-06
7.0534199e-05
5.8810335e-07
-9.0910141e-06
7.6516469e-05
3.6164072e-07
-1.0088489e-05
7.8812258e-05
4.1283923e-07
-4.838735e-06
7.9355239e-05
5.1098359e-07
-1.5623876e-06
7.8690858e-05
5.4371297e-07
9.8931974e-07
7.6942274e-05
5.3315932e-07
3.2231158e-06
7.3811726e-05
5.0386415e-07
5.5751013e-06
7.0076155e-05
4.6168988e-07
6.6962564e-06
6.6328404e-05
4.0173539e-07
6.7996283e-06
6.2885987e-05
3.2976745e-07
6.3059825e-06
5.9899325e-05
2.5904147e-07
5.5172203e-06
5.7401464e-05
1.9825897e-07
4.6430295e-06
5.5352784e-05
1.5015026e-07
3.8132514e-06
5.3689906e-05
1.1603015e-07
3.0796221e-06
5.2342086e-05
9.5661015e-08
2.4608157e-06
5.1239901e-05
8.9898293e-08
1.9566567e-06
5.0316499e-05
1.0556808e-07
1.5571026e-06
4.9498401e-05
1.5906082e-07
1.2458481e-06
3.2575397e-07
9.8496324e-07
8.3685379e-05
1.791439e-06
1.7291817e-06
8.7394588e-05
2.0661372e-06
2.5604151e-06
9.0526631e-05
1.9395777e-06
2.8174686e-06
9.3136879e-05
1.7341144e-06
2.7276852e-06
9.5335037e-05
1.4985219e-06
2.3504015e-06
9.728843e-05
1.2699425e-06
1.7106212e-06
9.9206821e-05
1.0745764e-06
8.099953e-07
0.00010132667
9.2122768e-07
-3.9904158e-07
0.00010391495
7.895604e-07
-2.027706e-06
0.00010729265
6.5975128e-07
-4.0988815e-06
0.00011186592
5.2494218e-07
-6.7001637e-06
0.00011807926
3.8093792e-07
-9.699555e-06
0.00012572714
2.6296349e-07
-1.1975312e-05
0.00013043046
2.4156999e-07
-7.9836981e-06
0.00013369026
2.6624549e-07
-5.0815782e-06
0.00013580453
2.7405398e-07
-2.5633482e-06
0.00013657664
2.6382437e-07
7.1424706e-08
0.00013574686
2.4281829e-07
2.8651207e-06
0.00013378993
2.1867322e-07
4.8674595e-06
0.00013119666
1.9010531e-07
5.9864737e-06
0.00012826384
1.5707048e-07
6.4973831e-06
0.00012520216
1.2363054e-07
6.5917916e-06
0.00012215094
9.3429308e-08
6.4146932e-06
0.00011919492
6.8269672e-08
6.0783323e-06
0.00011638062
4.9396401e-08
5.6628997e-06
0.00011373562
3.7541963e-08
5.2141226e-06
0.0001112765
3.3971192e-08
4.7621908e-06
0.00010902127
4.2824273e-08
4.3242322e-06
0.00010699628
7.6065205e-08
3.9052608e-06
1.6031147e-07
3.4883822e-06
8.4680933e-05
-1.791439e-06
1.7539649e-06
8.9871014e-05
-2.0661372e-06
2.6190477e-06
9.4594223e-05
-1.9395777e-06
2.9124214e-06
9.8757151e-05
-1.7341144e-06
2.8686212e-06
0.00010238369
-1.4985219e-06
2.5439461e-06
0.00010559931
-1.2699424e-06
1.961064e-06
0.00010860877
-1.0745763e-06
1.1203505e-06
0.00011163179
-9.2122755e-07
1.4931286e-08
0.00011498893
-7.8956022e-07
-1.5517406e-06
0.00011895438
-6.5975104e-07
-3.5300826e-06
0.00012391081
-5.249419e-07
-6.0190132e-06
0.00013028967
-3.8093762e-07
-8.9298778e-06
0.00013798274
-2.6296319e-07
-1.1263783e-05
0.00014292922
-2.4156972e-07
-7.796546e-06
0.00014664852
-2.6624526e-07
-5.3495343e-06
0.00014944364
-2.7405381e-07
-3.230741e-06
0.00015104269
-2.6382429e-07
-8.9223678e-07
0.00015111276
-2.4281832e-07
1.7201139e-06
0.00015010206
-2.1867339e-07
3.6084413e-06
0.00014840085
-1.9010562e-07
4.7738031e-06
0.00014624765
-1.5707097e-07
5.4335175e-06
0.00014381549
-1.236312e-07
5.7416431e-06
0.00014122588
-9.3430166e-08
5.810015e-06
0.00013856262
-6.8270731e-08
5.7257386e-06
0.00013588308
-4.9397677e-08
5.5511922e-06
0.00013323463
-3.7543477e-08
5.3200696e-06
0.00013065962
-3.3972969e-08
5.0565052e-06
0.00012820956
-4.2826332e-08
4.774478e-06
0.00012596574
-7.6067526e-08
4.4761473e-06
-1.603139e-07
4.1390613e-06
8.3685379e-05
-4.3736111e-06
1.7291817e-06
8.7394588e-05
-4.7184531e-06
2.5604151e-06
9.0526631e-05
-4.2347099e-06
2.8174686e-06
9.3136879e-05
-3.6582224e-06
2.7276852e-06
9.5335037e-05
-3.0664282e-06
2.3504015e-06
9.7288431e-05
-2.5269335e-06
1.7106212e-06
9.9206821e-05
-2.0855852e-06
8.0999531e-07
0.00010132667
-1.7473914e-06
-3.9904157e-07
0.00010391495
-1.4596915e-06
-2.0277059e-06
0.00010729265
-1.1758782e-06
-4.0988815e-06
0.00011186592
-8.8593466e-07
-6.7001637e-06
0.00011807926
-5.8810322e-07
-9.6995549e-06
0.00012572714
-3.616406e-07
-1.1975312e-05
0.00013043046
-4.1283911e-07
-7.983698e-06
0.00013369026
-5.1098349e-07
-5.0815781e-06
0.00013580453
-5.437129e-07
-2.5633481e-06
0.00013657664
-5.3315929e-07
7.1424772e-08
0.00013574686
-5.0386417e-07
2.8651207e-06
0.00013378993
-4.6168996e-07
4.8674595e-06
0.00013119666
-4.0173554e-07
5.9864738e-06
0.00012826384
-3.2976768e-07
6.4973831e-06
0.00012520216
-2.5904177e-07
6.5917915e-06
0.00012215094
-1.9825935e-07
6.4146931e-06
0.00011919492
-1.5015072e-07
6.0783321e-06
0.00011638062
-1.160307e-07
5.6628993e-06
0.00011373562
-9.5661671e-08
5.2141221e-06
0.0001112765
-8.9899073e-08
4.7621901e-06
0.00010902127
-1.0556899e-07
4.3242315e-06
0.00010699627
-1.5906185e-07
3.9052599e-06
-3.257551e-07
3.4883812e-06
7.6665958e-05
1.5323425e-06
7.2871077e-05
2.136169e-06
6.9362719e-05
2.2435593e-06
6.6288711e-05
1.9871057e-06
6.3772331e-05
1.4524589e-06
6.1893271e-05
6.985029e-07
6.0699366e-05
-2.6676838e-07
6.0283876e-05
-1.5085713e-06
6.0799955e-05
-3.0080885e-06
6.2478828e-05
-4.8144831e-06
6.5643424e-05
-6.9320921e-06
7.0534199e-05
-9.091014e-06
7.651647e-05
-1.0088489e-05
7.8812259e-05
-4.8387349e-06
7.9355239e-05
-1.5623876e-06
7.8690858e-05
9.893198e-07
7.6942275e-05
3.2231159e-06
7.3811727e-05
5.5751013e-06
7.0076155e-05
6.6962564e-06
6.6328404e-05
6.7996283e-06
6.2885987e-05
6.3059824e-06
5.9899325e-05
5.5172202e-06
5.7401464e-05
4.6430293e-06
5.5352784e-05
3.8132511e-06
5.3689906e-05
3.0796216e-06
5.2342085e-05
2.4608151e-06
5.1239899e-05
1.956656e-06
5.0316497e-05
1.5571018e-06
4.9498399e-05
1.2458474e-06
9.8496261e-07
7.6493451e-05
4.3902731e-06
6.4861844e-07
7.2806581e-05
4.7734432e-06
1.049596e-06
6.9584697e-05
4.3036749e-06
1.1617681e-06
6.6825893e-05
3.7390074e-06
1.0069019e-06
6.4532396e-05
3.1524003e-06
5.9355569e-07
6.2719374e-05
2.6009573e-06
-8.9432028e-08
6.1367752e-05
2.1111413e-06
-1.0262882e-06
6.0522659e-05
1.6781661e-06
-2.3416443e-06
6.0398925e-05
1.2759236e-06
-4.1602783e-06
6.144198e-05
8.3340884e-07
-6.6909471e-06
6.4528702e-05
2.5298333e-07
-1.0271797e-05
7.0948453e-05
-4.8610708e-07
-1.5024657e-05
8.1087034e-05
-1.0291268e-06
-1.9197944e-05
8.4829991e-05
-4.5419034e-07
-8.1275013e-06
8.5878103e-05
1.2087416e-07
-2.7313732e-06
8.546581e-05
6.3811437e-07
7.6349777e-07
8.347509e-05
1.0858469e-06
4.1279885e-06
7.8254428e-05
1.4716377e-06
9.3241262e-06
7.2908765e-05
1.621891e-06
1.0420028e-05
6.8157077e-05
1.542983e-06
1.0008333e-05
6.4342203e-05
1.3431312e-06
8.7777257e-06
6.1449143e-05
1.1025231e-06
7.3077577e-06
5.931173e-05
8.6412416e-07
5.9163183e-06
5.7761483e-05
6.504285e-07
4.7130691e-06
5.6650552e-05
4.7037568e-07
3.7201781e-06
5.5862e-05
3.2612333e-07
2.9232444e-06
5.5303941e-05
2.1867573e-07
2.2960397e-06
5.4905918e-05
1.4592353e-07
1.8092022e-06
5.4606922e-05
1.1853893e-07
1.4263049e-06
1.7127298e-07
1.0792535e-06
8.3575567e-05
1.7996461e-06
7.4424153e-07
8.7534476e-05
2.093443e-06
1.2815066e-06
9.1163155e-05
1.9738773e-06
1.518587e-06
9.4369905e-05
1.7740052e-06
1.4859369e-06
9.7142627e-05
1.5408341e-06
1.1892462e-06
9.9543203e-05
1.306438e-06
6.0456407e-07
0.00010169238
1.08785e-06
-3.1589159e-07
0.00010372375
8.8717424e-07
-1.639416e-06
0.00010584562
6.9738617e-07
-3.5710426e-06
0.00010848882
4.8804725e-07
-6.3967229e-06
0.00011239869
2.1632549e-07
-1.0573368e-05
0.00011892229
-1.7195743e-07
-1.6537312e-05
0.00012978427
-5.1564688e-07
-2.3350771e-05
0.00013548555
-3.3702426e-07
-1.3802144e-05
0.00013900949
-5.1737682e-08
-8.4329032e-06
0.00014152962
1.8915243e-07
-4.6345187e-06
0.00014276284
4.2822496e-07
-5.0417147e-07
0.00014055537
6.3717274e-07
5.9070597e-06
0.00013758518
7.559875e-07
8.7035468e-06
0.00013445821
7.6940524e-07
9.8870246e-06
0.00013151288
7.1691019e-07
1.0068936e-05
0.00012890738
6.2929573e-07
9.6705144e-06
0.00012664488
5.2788389e-07
9.0134324e-06
0.00012468553
4.2655163e-07
8.2615598e-06
0.00012298431
3.3319051e-07
7.5013096e-06
0.00012149626
2.5227491e-07
6.7760145e-06
0.00012018934
1.8618097e-07
6.1016079e-06
0.00011904657
1.3726376e-07
5.4756696e-06
0.00011808049
1.1209496e-07
4.8777787e-06
1.2693876e-07
4.2640773e-06
8.4592221e-05
-1.7996461e-06
7.6103574e-07
9.0076354e-05
-2.093443e-06
1.3218013e-06
9.5350987e-05
-1.9738773e-06
1.5855433e-06
0.00010017985
-1.7740052e-06
1.5877701e-06
0.00010446969
-1.5408341e-06
1.335771e-06
0.0001082356
-1.3064379e-06
8.0803055e-07
0.00011159369
-1.0878499e-06
-6.2037079e-08
0.00011467914
-8.8717411e-07
-1.2961697e-06
0.00011764385
-6.9738599e-07
-3.121685e-06
0.00012089279
-4.8804703e-07
-5.8029196e-06
0.00012511107
-2.1632525e-07
-9.8046483e-06
0.00013150679
1.7195766e-07
-1.5669513e-05
0.00014205714
5.1564703e-07
-2.2845427e-05
0.0001477526
3.3702437e-07
-1.416605e-05
0.00015165994
5.1737735e-08
-9.3603487e-06
0.00015482305
-1.8915245e-07
-6.015545e-06
0.00015691809
-4.2822508e-07
-2.1308366e-06
0.00015601123
-6.3717298e-07
3.901326e-06
0.00015437755
-7.5598791e-07
6.754094e-06
0.00015247155
-7.6940587e-07
8.2186195e-06
0.00015052682
-7.1691108e-07
8.8120637e-06
0.00014869918
-6.2929691e-07
8.8278775e-06
0.00014699988
-5.2788538e-07
8.5650802e-06
0.00014541137
-4.2655346e-07
8.1673593e-06
0.00014391876
-3.3319267e-07
7.7101864e-06
0.00014250862
-2.5227744e-07
7.2347625e-06
0.00014117698
-1.8618385e-07
6.760503e-06
0.00013993668
-1.3726699e-07
6.2893156e-06
0.00013883852
-1.120985e-07
5.798499e-06
-1.2694247e-07
5.234021e-06
8.3575567e-05
-4.3902731e-06
7.4424153e-07
8.7534476e-05
-4.7734432e-06
1.2815066e-06
9.1163155e-05
-4.3036749e-06
1.518587e-06
9.4369906e-05
-3.7390074e-06
1.4859369e-06
9.7142627e-05
-3.1524003e-06
1.1892462e-06
9.9543203e-05
-2.6009573e-06
6.0456407e-07
0.00010169238
-2.1111413e-06
-3.1589159e-07
0.00010372375
-1.678166e-06
-1.639416e-06
0.00010584562
-1.2759235e-06
-3.5710426e-06
0.00010848883
-8.3340874e-07
-6.3967228e-06
0.00011239869
-2.5298321e-07
-1.0573368e-05
0.0001189223
4.8610718e-07
-1.6537312e-05
0.00012978427
1.0291269e-06
-2.335077e-05
0.00013548555
4.5419038e-07
-1.3802144e-05
0.00013900949
-1.2087414e-07
-8.4329032e-06
0.00014152962
-6.3811438e-07
-4.6345187e-06
0.00014276284
-1.085847e-06
-5.0417144e-07
0.00014055537
-1.4716379e-06
5.9070597e-06
0.00013758518
-1.6218912e-06
8.7035468e-06
0.00013445821
-1.5429833e-06
9.8870247e-06
0.00013151288
-1.3431316e-06
1.0068936e-05
0.00012890738
-1.1025236e-06
9.6705142e-06
0.00012664488
-8.6412479e-07
9.013432e-06
0.00012468553
-6.5042925e-07
8.2615593e-06
0.00012298431
-4.7037655e-07
7.5013087e-06
0.00012149626
-3.2612435e-07
6.7760134e-06
0.00012018934
-2.1867694e-07
6.1016066e-06
0.00011904656
-1.4592493e-07
5.475668e-06
0.00011808048
-1.1854049e-07
4.8777768e-06
-1.7127473e-07
4.2640752e-06
7.6493451e-05
6.4861844e-07
7.2806581e-05
1.049596e-06
6.9584697e-05
1.1617681e-06
6.6825893e-05
1.0069019e-06
6.4532396e-05
5.9355569e-07
6.2719374e-05
-8.9432029e-08
6.1367752e-05
-1.0262882e-06
6.0522659e-05
-2.3416443e-06
6.0398926e-05
-4.1602783e-06
6.1441981e-05
-6.690947e-06
6.4528703e-05
-1.0271797e-05
7.0948453e-05
-1.5024657e-05
8.1087035e-05
-1.9197944e-05
8.4829992e-05
-8.1275013e-06
8.5878103e-05
-2.7313731e-06
8.5465811e-05
7.6349781e-07
8.3475091e-05
4.1279885e-06
7.8254428e-05
9.3241262e-06
7.2908766e-05
1.0420028e-05
6.8157078e-05
1.0008333e-05
6.4342203e-05
8.7777256e-06
6.1449142e-05
7.3077573e-06
5.9311729e-05
5.9163177e-06
5.7761482e-05
4.7130683e-06
5.665055e-05
3.7201772e-06
5.5861998e-05
2.9232433e-06
5.5303939e-05
2.2960384e-06
5.4905915e-05
1.8092007e-06
5.4606918e-05
1.4263033e-06
1.0792518e-06
7.6009249e-05
4.395045e-06
2.4432409e-07
7.1859581e-05
4.791792e-06
4.0747213e-07
6.827723e-05
4.3137431e-06
4.3037642e-07
6.52413e-05
3.7341544e-06
3.0867698e-07
6.2666967e-05
3.1341649e-06
3.3723874e-08
6.0466431e-05
2.5736087e-06
-4.6250489e-07
5.8584116e-05
2.0811686e-06
-1.2251412e-06
5.7011849e-05
1.6285703e-06
-2.3979473e-06
5.593977e-05
1.1412272e-06
-4.2294272e-06
5.5971416e-05
4.6453665e-07
-7.1871296e-06
5.8471794e-05
-5.6785824e-07
-1.2204317e-05
6.5959074e-05
-2.0925687e-06
-2.0419368e-05
7.7818238e-05
-2.4438734e-06
-2.8613235e-05
6.745166e-05
2.2390766e-06
6.1311118e-05
3.4091686e-06
5.8932164e-05
3.1424514e-06
5.9871412e-05
3.1887407e-06
5.4817248e-05
3.5056446e-06
1.0872646e-05
5.1112137e-05
3.3321253e-06
1.0793014e-05
4.8607752e-05
2.8208951e-06
9.6918225e-06
4.7540672e-05
2.2196827e-06
7.625123e-06
4.7346391e-05
1.6700288e-06
5.8320102e-06
4.764149e-05
1.2003239e-06
4.4208949e-06
4.8208241e-05
8.0694256e-07
3.3393758e-06
4.8906552e-05
5.012592e-07
2.5206079e-06
4.9661331e-05
2.6385574e-07
1.9046098e-06
5.0434328e-05
7.8556025e-08
1.4444862e-06
5.1206463e-05
-7.0686799e-08
1.107754e-06
5.1949017e-05
-1.8297256e-07
8.6672437e-07
-2.7535921e-07
6.2759725e-07
8.3054933e-05
1.8010004e-06
2.8335309e-07
8.6520589e-05
2.1031969e-06
5.0444546e-07
8.9786197e-05
1.981476e-06
5.8524629e-07
9.2711857e-05
1.7756288e-06
5.1880294e-07
9.5208199e-05
1.5365048e-06
2.9056409e-07
9.7229021e-05
1.2977239e-06
-1.4037302e-07
9.8796336e-05
1.077035e-06
-8.7907279e-07
9.9974719e-05
8.6646881e-07
-2.0556976e-06
0.00010087939
6.3867459e-07
-3.9731594e-06
0.0001018204
3.3082069e-07
-7.204016e-06
0.00010370724
-1.6307586e-07
-1.2864995e-05
0.00010888044
-9.7759214e-07
-2.282549e-05
0.00012060391
-1.470364e-06
-3.6047752e-05
0.00010826826
7.7258887e-07
0.00010166361
1.5809109e-06
9.8627488e-05
1.5440576e-06
9.9750801e-05
1.5612563e-06
9.6923631e-05
1.7042545e-06
1.0535619e-05
9.58538e-05
1.7139876e-06
1.1391516e-05
9.5628583e-05
1.5323535e-06
1.1400783e-05
9.6407328e-05
1.2813676e-06
1.0228505e-05
9.7721202e-05
1.0290672e-06
8.9976022e-06
9.927703e-05
7.9930336e-07
7.8586246e-06
0.00010089972
5.9813503e-07
6.8476772e-06
0.00010249539
4.2666694e-07
5.9802306e-06
0.00010400578
2.8425019e-07
5.2452355e-06
0.000105396
1.6708905e-07
4.622856e-06
0.00010664645
6.5115617e-08
4.0894136e-06
0.00010774905
-2.1293494e-08
3.6134997e-06
-8.8864743e-08
3.1092365e-06
8.4071669e-05
-1.8010004e-06
2.9136801e-07
8.9076276e-05
-2.1031969e-06
5.2358797e-07
9.4007193e-05
-1.981476e-06
6.1757768e-07
9.8577364e-05
-1.7756288e-06
5.6885686e-07
0.00010262242
-1.5365047e-06
3.6372773e-07
0.00010605164
-1.2977238e-06
-2.5748716e-08
0.00010886977
-1.077035e-06
-7.2609383e-07
0.00011114802
-8.6646868e-07
-1.8414827e-06
0.00011297288
-6.3867442e-07
-3.6691983e-06
0.00011459571
-3.3082048e-07
-6.7641041e-06
0.00011673711
1.6307605e-07
-1.2272198e-05
0.00012134253
9.7759223e-07
-2.2230122e-05
0.00013214724
1.4703639e-06
-3.6590867e-05
0.00011952637
-7.7258894e-07
0.00011332784
-1.580911e-06
0.00011040041
-1.5440578e-06
0.00011139209
-1.5612566e-06
0.00010918764
-1.7042551e-06
9.5142833e-06
0.00010893282
-1.7139884e-06
1.0436887e-05
0.00010953103
-1.5323548e-06
1.0685126e-05
0.00011104383
-1.2813694e-06
9.8619997e-06
0.00011299611
-1.0290695e-06
8.9337341e-06
0.00011508696
-7.9930609e-07
8.0728358e-06
0.00011715166
-5.9813821e-07
7.2989357e-06
0.00011910309
-4.2667056e-07
6.6120929e-06
0.00012089822
-2.8425422e-07
6.0081376e-06
0.00012251743
-1.6709344e-07
5.47547e-06
0.00012393997
-6.5120339e-08
4.9970189e-06
0.00012514903
2.1288995e-08
4.5468502e-06
8.886017e-08
4.0377796e-06
8.3054933e-05
-4.395045e-06
2.8335309e-07
8.6520589e-05
-4.791792e-06
5.0444546e-07
8.9786197e-05
-4.3137431e-06
5.8524629e-07
9.2711857e-05
-3.7341544e-06
5.1880294e-07
9.5208199e-05
-3.1341649e-06
2.9056409e-07
9.7229021e-05
-2.5736086e-06
-1.4037302e-07
9.8796336e-05
-2.0811685e-06
-8.790728e-07
9.9974719e-05
-1.6285702e-06
-2.0556976e-06
0.00010087939
-1.1412271e-06
-3.9731594e-06
0.0001018204
-4.6453655e-07
-7.204016e-06
0.00010370724
5.6785833e-07
-1.2864995e-05
0.00010888044
2.0925687e-06
-2.282549e-05
0.00012060392
2.4438733e-06
-3.6047752e-05
0.00010826826
-2.2390767e-06
0.00010166361
-3.4091686e-06
9.8627489e-05
-3.1424515e-06
9.9750801e-05
-3.1887408e-06
9.6923631e-05
-3.5056448e-06
1.053562e-05
9.5853799e-05
-3.3321257e-06
1.1391516e-05
9.5628582e-05
-2.8208957e-06
1.1400783e-05
9.6407327e-05
-2.2196834e-06
1.0228505e-05
9.7721199e-05
-1.6700297e-06
8.9976016e-06
9.9277027e-05
-1.200325e-06
7.8586236e-06
0.00010089972
-8.0694377e-07
6.8476757e-06
0.00010249539
-5.012606e-07
5.9802286e-06
0.00010400577
-2.6385736e-07
5.245233e-06
0.00010539599
-7.8557881e-08
4.622853e-06
0.00010664644
7.0684645e-08
4.0894101e-06
0.00010774904
1.8297049e-07
3.6134959e-06
2.7535722e-07
3.1092323e-06
7.6009249e-05
2.4432409e-07
7.1859581e-05
4.0747213e-07
6.827723e-05
4.3037642e-07
6.52413e-05
3.0867698e-07
6.2666967e-05
3.3723872e-08
6.0466431e-05
-4.6250489e-07
5.8584116e-05
-1.2251413e-06
5.7011849e-05
-2.3979473e-06
5.5939771e-05
-4.2294272e-06
5.5971417e-05
-7.1871296e-06
5.8471795e-05
-1.2204317e-05
6.5959075e-05
-2.0419368e-05
7.7818238e-05
-2.8613235e-05
6.745166e-05
6.1311119e-05
5.8932165e-05
5.9871413e-05
5.4817248e-05
1.0872646e-05
5.1112136e-05
1.0793014e-05
4.8607751e-05
9.6918223e-06
4.7540671e-05
7.6251225e-06
4.7346389e-05
5.8320094e-06
4.7641488e-05
4.4208938e-06
4.8208239e-05
3.3393743e-06
4.8906549e-05
2.5206061e-06
4.9661327e-05
1.9046077e-06
5.0434324e-05
1.4444839e-06
5.1206458e-05
1.1077514e-06
5.194901e-05
8.6672154e-07
6.2759425e-07
7.5842106e-05
4.4022177e-06
6.8342941e-15
7.1441757e-05
4.8078217e-06
1.4121694e-14
6.7536029e-05
4.3361047e-06
2.1545302e-14
6.4086235e-05
3.7584709e-06
3.136457e-14
6.0963477e-05
3.1564813e-06
4.9677063e-14
5.7922274e-05
2.5786982e-06
8.5897719e-14
5.4650007e-05
2.0471261e-06
1.5105299e-13
5.0757133e-05
1.4949257e-06
2.505016e-13
4.5807214e-05
7.2049133e-07
3.7919046e-13
3.9224093e-05
-6.0400917e-07
5.2102588e-13
3.012662e-05
-3.1068443e-06
6.4827737e-13
1.7004701e-05
-7.2974503e-06
7.5236136e-13
-1.1608534e-05
6.8103896e-13
5.1092044e-06
5.7634413e-06
1.4618315e-13
1.1647571e-05
4.2546466e-06
7.4912231e-13
1.8411963e-05
2.9274297e-06
1.153373e-12
2.4325737e-05
1.7113473e-06
1.3908144e-12
2.9404916e-05
7.5283008e-07
1.4923166e-12
3.369693e-05
1.2887932e-07
1.4899723e-12
3.7340454e-05
-3.0415033e-07
1.4694553e-12
4.0440442e-05
-5.7938108e-07
1.3868002e-12
4.3083071e-05
-7.3802059e-07
1.2265887e-12
4.5352517e-05
-8.2496074e-07
9.8782254e-13
4.7338854e-05
-8.7858383e-07
7.3584782e-13
4.9129625e-05
-9.2404704e-07
4.8328828e-13
-1.058494e-06
2.9493794e-13
8.2881512e-05
1.8040589e-06
7.8428929e-15
8.6082291e-05
2.1114876e-06
1.6587428e-14
8.9009949e-05
1.9936932e-06
2.5647545e-14
9.1498032e-05
1.7891907e-06
3.7316258e-14
9.3396897e-05
1.5481805e-06
5.7515265e-14
9.4535862e-05
1.2993605e-06
9.5831995e-14
9.4646143e-05
1.0577714e-06
1.6540825e-13
9.3287948e-05
7.9742256e-07
2.8105533e-13
8.9596378e-05
4.3890212e-07
4.5270701e-13
8.199382e-05
-2.0546753e-07
6.7721591e-13
6.7487937e-05
-1.4659572e-06
9.1708602e-13
4.1129279e-05
-3.7642837e-06
1.1073572e-12
-6.5270086e-06
1.0041291e-12
1.3214301e-05
3.08476e-06
1.9388155e-13
2.6434643e-05
2.4258188e-06
1.1549475e-12
3.9026777e-05
1.7360774e-06
1.876468e-12
4.9825955e-05
1.1406725e-06
2.3623481e-12
5.894005e-05
6.3633404e-07
2.6341219e-12
6.6645594e-05
2.819574e-07
2.7120252e-12
7.3174708e-05
1.4410215e-08
2.5705384e-12
7.8740909e-05
-1.6535407e-07
2.2685358e-12
8.353812e-05
-2.8999755e-07
1.861673e-12
8.7710835e-05
-3.7482145e-07
1.366282e-12
9.1358413e-05
-4.3674901e-07
7.5437932e-13
9.4544536e-05
-4.9667014e-07
2.9899792e-14
-5.8260104e-07
-5.9821965e-13
8.3899486e-05
-1.8040589e-06
7.916974e-15
8.8646049e-05
-2.1114876e-06
1.6754609e-14
9.3251013e-05
-1.9936932e-06
2.5821747e-14
9.7398251e-05
-1.7891906e-06
3.7212102e-14
0.00010085834
-1.5481804e-06
5.6297722e-14
0.00010343131
-1.2993604e-06
9.1859911e-14
0.00010482076
-1.0577713e-06
1.5596577e-13
0.00010457412
-7.9742245e-07
2.66042e-13
0.00010178273
-4.3890198e-07
4.3582765e-13
9.4607688e-05
2.0546767e-07
6.6906375e-13
7.9403575e-05
1.4659572e-06
9.3883396e-13
4.9644885e-05
3.7642835e-06
1.1808265e-12
6.5270081e-06
1.1071565e-12
1.5683804e-05
-3.0847607e-06
1.6282778e-13
3.0972329e-05
-2.4258202e-06
1.1466596e-12
4.512961e-05
-1.7360791e-06
1.8120287e-12
5.7272955e-05
-1.1406745e-06
2.1868049e-12
6.7479357e-05
-6.3633618e-07
2.2756876e-12
7.6116107e-05
-2.8195961e-07
2.1232853e-12
8.3443864e-05
-1.4412546e-08
1.7397942e-12
8.972525e-05
1.6535212e-07
1.1677851e-12
9.5153393e-05
2.8999581e-07
4.3291767e-13
9.9879222e-05
3.7482e-07
-4.161079e-13
0.00010400275
4.3674786e-07
-1.35029e-12
0.00010755626
4.9666931e-07
-2.3559262e-12
5.8260048e-07
-3.3010982e-12
8.2881512e-05
-4.4022177e-06
7.7688071e-15
8.6082291e-05
-4.8078217e-06
1.6393311e-14
8.9009949e-05
-4.3361047e-06
2.5184666e-14
9.1498032e-05
-3.7584709e-06
3.6332484e-14
9.3396897e-05
-3.1564813e-06
5.5604105e-14
9.4535862e-05
-2.5786981e-06
9.2664491e-14
9.4646143e-05
-2.047126e-06
1.6081302e-13
9.3287949e-05
-1.4949256e-06
2.7589409e-13
8.9596378e-05
-7.2049126e-07
4.4893494e-13
8.199382e-05
6.0400924e-07
6.7931066e-13
6.7487937e-05
3.1068443e-06
9.3133475e-13
4.112928e-05
7.2974502e-06
1.1346179e-12
1.1608534e-05
1.0350756e-12
1.32143e-05
-5.7634417e-06
2.4363916e-13
2.6434642e-05
-4.2546472e-06
1.0380537e-12
3.9026775e-05
-2.9274304e-06
1.4329637e-12
4.9825952e-05
-1.7113481e-06
1.5098519e-12
5.8940047e-05
-7.5283085e-07
1.2861958e-12
6.664559e-05
-1.2888006e-07
8.2829955e-13
7.3174704e-05
3.0414959e-07
1.8538049e-13
7.8740904e-05
5.7938047e-07
-5.8848304e-13
8.3538115e-05
7.3802008e-07
-1.4709989e-12
8.771083e-05
8.2496033e-07
-2.4241451e-12
9.1358407e-05
8.7858353e-07
-3.4020966e-12
9.454453e-05
9.2404685e-07
-4.3753807e-12
1.0584939e-06
-5.2072344e-12
7.5842106e-05
6.774709e-15
7.1441757e-05
1.3952038e-14
6.7536029e-05
2.1137154e-14
6.4086235e-05
3.0430863e-14
6.0963477e-05
4.7828682e-14
5.7922274e-05
8.2794645e-14
5.4650007e-05
1.4694169e-13
5.0757133e-05
2.4679772e-13
4.5807215e-05
3.7958678e-13
3.9224094e-05
5.3077016e-13
3.012662e-05
6.7278592e-13
1.7004701e-05
7.9035357e-13
7.1575943e-13
5.109204e-06
2.0127202e-13
1.164757e-05
6.3792911e-13
1.8411961e-05
7.019413e-13
2.4325735e-05
5.632491e-13
2.9404914e-05
2.6120486e-13
3.3696927e-05
-1.066643e-13
3.7340452e-05
-5.1666378e-13
4.0440439e-05
-9.3808228e-13
4.3083068e-05
-1.3533424e-12
4.5352514e-05
-1.7518314e-12
4.7338851e-05
-2.1369023e-12
4.9129622e-05
-2.4990995e-12
-2.7269019e-12
7.5842106e-05
4.4022177e-06
-2.4432407e-07
7.1441757e-05
4.8078217e-06
-4.0747211e-07
6.7536029e-05
4.3361047e-06
-4.3037638e-07
6.4086235e-05
3.7584709e-06
-3.0867692e-07
6.0963477e-05
3.1564813e-06
-3.3723792e-08
5.7922274e-05
2.5786982e-06
4.6250504e-07
5.4650007e-05
2.0471261e-06
1.2251415e-06
5.0757133e-05
1.4949257e-06
2.3979478e-06
4.5807215e-05
7.2049134e-07
4.229428e-06
3.9224094e-05
-6.0400915e-07
7.1871306e-06
3.012662e-05
-3.1068443e-06
1.2204319e-05
1.7004701e-05
-7.2974502e-06
2.041937e-05
-1.1608534e-05
2.8613236e-05
5.1092043e-06
5.7634411e-06
-1.0872645e-05
1.1647571e-05
4.2546468e-06
-1.0793013e-05
1.8411963e-05
2.9274301e-06
-9.6918206e-06
2.4325737e-05
1.711348e-06
-7.6251209e-06
2.9404916e-05
7.5283094e-07
-5.8320081e-06
3.369693e-05
1.2888042e-07
-4.420893e-06
3.7340454e-05
-3.0414892e-07
-3.339374e-06
4.0440441e-05