/*--------------------------------*- C++ -*----------------------------------*\
| =========                 |                                                 |
| \\      /  F ield         | OpenFOAM: The Open Source CFD Toolbox           |
|  \\    /   O peration     | Version:  2412                                  |
|   \\  /    A nd           | Website:  www.openfoam.com                      |
|    \\/     M anipulation  |                                                 |
\*---------------------------------------------------------------------------*/
FoamFile
{
    version     2.0;
    format      ascii;
    arch        "LSB;label=32;scalar=64";
    class       volScalarField;
    location    "100/bottomWater";
    object      T;
}
// * * * * * * * * * * * * * * * * * * * * * * * * * * * * * * * * * * * * * //

dimensions      [0 0 0 1 0 0 0];

internalField   nonuniform List<scalar> 
1460
(
300
300
300
300
300
299.99999
299.99999
299.99999
299.99999
300
300.00011
300.00192
300.01812
300.03189
300.03584
300.0353
300.03356
300.03075
300.02716
300.02306
300.01881
300.01476
300.01116
300.00814
300.00577
300.00399
300.00268
300.00177
300.00115
300.00075
300
300
300
300
300
300
300
300
299.99999
300
300.00001
300.00026
300.00381
300.00935
300.01444
300.01752
300.01898
300.0202
300.0211
300.02158
300.02154
300.02093
300.01974
300.01803
300.01594
300.01365
300.01132
300.00911
300.00713
300.00546
300
300
300
300
300.00001
300.00001
300.00001
300.00001
300.00001
300.00001
300.00002
300.0001
300.00166
300.00464
300.00809
300.01112
300.01332
300.01565
300.01796
300.02006
300.02172
300.02273
300.02293
300.02224
300.02075
300.01863
300.01612
300.01347
300.01094
300.00873
300.00002
300.00005
300.00008
300.00011
300.00014
300.00017
300.0002
300.00024
300.00027
300.00032
300.00038
300.00062
300.00397
300.02756
300.05782
300.09107
300.12455
300.15577
300.18193
300.20043
300.20945
300.20828
300.19755
300.17899
300.15561
300.13017
300.10523
300.08313
300.06496
300.05164
300.00035
300.00066
300.00098
300.00132
300.00173
300.00225
300.00289
300.00368
300.00461
300.00565
300.00683
300.00957
300.05235
301.34979
302.36815
303.12573
303.63501
303.90899
303.96539
303.82474
303.52337
303.11215
302.64821
302.18258
301.75705
301.39189
301.09546
300.86658
300.70025
300.59189
300
300
300
300
300
299.99999
299.99999
299.99999
299.99999
300.00002
300.00084
300.01744
300.21
300.33793
300.38576
300.38166
300.36806
300.34548
300.31599
300.28167
300.2446
300.20668
300.16971
300.13519
300.10462
300.07864
300.0575
300.04098
300.02854
300.01961
300
300
300
300
300
300
300
299.99999
299.99999
300
300.00008
300.00265
300.05397
300.11464
300.16903
300.20533
300.21284
300.21779
300.22032
300.22069
300.21905
300.21545
300.20981
300.20198
300.19194
300.17959
300.16504
300.14856
300.13063
300.11213
300
300
300
300.00001
300.00001
300.00001
300.00001
300.00001
300.00001
300.00002
300.00004
300.00112
300.02765
300.06223
300.09725
300.12606
300.13988
300.14617
300.15169
300.15644
300.16033
300.16317
300.1647
300.16457
300.1625
300.1582
300.15149
300.14235
300.13095
300.11788
300.00002
300.00005
300.00008
300.00012
300.00015
300.00018
300.00022
300.00026
300.0003
300.00036
300.00046
300.0022
300.03792
300.09185
300.1511
300.20494
300.24295
300.27999
300.3134
300.34038
300.35868
300.36701
300.3651
300.35328
300.33322
300.30642
300.2749
300.24078
300.20621
300.17379
300.00036
300.00067
300.00098
300.00131
300.00171
300.00221
300.00284
300.00364
300.00463
300.00583
300.00754
300.01617
300.12262
301.24157
302.1605
302.89898
303.4731
303.86967
304.08434
304.11608
303.97783
303.69723
303.31358
302.87018
302.41416
301.97933
301.59114
301.26435
301.00484
300.81494
300
300
300
300
300
299.99999
299.99999
299.99999
300
300.00015
300.00448
300.10365
301.52695
302.3003
302.66756
302.68122
302.64077
302.50556
302.30453
302.06597
301.81023
301.55174
301.30059
301.06383
300.84898
300.66018
300.5002
300.36962
300.26687
300.18993
300
300
300
300
300
300
300
299.99999
300
300.00001
300.00053
300.0199
300.51544
300.96498
301.36378
301.66939
301.75722
301.7736
301.75877
301.71983
301.66296
301.59309
301.51364
301.42639
301.33289
301.23361
301.1292
301.0206
300.90918
300.79827
300
300
300
300.00001
300.00001
300.00001
300.00001
300.00001
300.00001
300.00002
300.00024
300.01006
300.3114
300.61089
300.89696
301.14614
301.27686
301.29679
301.30104
301.29334
301.2762
301.25115
301.21895
301.17963
301.13318
301.07917
301.01743
300.94812
300.87192
300.79123
300.00002
300.00005
300.00009
300.00012
300.00016
300.0002
300.00024
300.00029
300.00034
300.0004
300.00077
300.01405
300.36315
300.68211
300.97012
301.20481
301.3025
301.36169
301.40224
301.41933
301.41081
301.37733
301.32142
301.24617
301.15643
301.05581
300.94826
300.8375
300.72712
300.62183
300.00037
300.0007
300.00102
300.00138
300.00182
300.00238
300.00312
300.00409
300.00535
300.00704
300.0108
300.0553
300.72368
302.29229
303.47904
304.30889
304.926
305.2993
305.45143
305.39356
305.14566
304.74091
304.22447
303.64566
303.05873
302.50272
302.0069
301.58795
301.252
301.00122
300
300
300
300
300
299.99999
299.99999
299.99999
300.00001
300.00051
300.01531
300.38521
306.8596
310.07752
313.61738
317.0793
319.38593
316.84316
313.97255
311.35991
309.15145
307.33474
305.83928
304.60031
303.57754
302.73855
302.06092
301.52828
301.11935
300.81568
300
300
300
300
300
300
300
299.99999
300
300.00005
300.00222
300.09402
302.94616
304.96368
307.26812
309.67565
312.02073
311.69483
310.89767
309.93039
308.95008
308.0304
307.19037
306.42543
305.72732
305.08427
304.48808
303.93172
303.41213
302.93649
300
300
300
300.00001
300.00001
300.00001
300.00001
300.00001
300.00002
300.00004
300.00107
300.05362
301.99111
303.47016
305.10213
306.79426
308.46211
308.35204
307.97038
307.47216
306.93645
306.40592
305.89531
305.40636
304.93884
304.48904
304.05478
303.63527
303.23111
302.84897
300.00002
300.00006
300.00009
300.00013
300.00017
300.00022
300.00027
300.00032
300.00038
300.00046
300.00196
300.06606
302.0984
303.48557
305.07337
306.72088
308.3009
308.04348
307.49021
306.82369
306.13723
305.47798
304.86183
304.29035
303.76485
303.28122
302.83715
302.43068
302.06123
301.73332
300.00038
300.00073
300.00107
300.00147
300.00196
300.00261
300.00348
300.00467
300.00629
300.00868
300.01756
300.18352
303.25636
306.2745
309.32385
312.00342
313.6505
312.71231
311.37024
309.9332
308.51689
307.17472
305.93495
304.81856
303.84927
303.03157
302.36313
301.83443
301.43009
301.13669
300
300
300
300
299.99999
299.99999
299.99999
299.99999
300.00003
300.00119
300.03621
300.97814
322.31355
345.91422
320.70835
313.23098
309.49732
307.07284
305.32397
304.03278
303.06244
302.31845
301.74385
301.30057
300.96102
300.71039
300
300
300
300
300
300
300
299.99999
300
300.00012
300.00621
300.2868
311.43495
339.86547
322.87882
316.52942
313.17228
310.97517
309.34259
308.01372
306.88408
305.89841
305.02789
304.25538
303.57015
302.97295
300
300
300
300.00001
300.00001
300.00001
300.00001
300.00002
300.00002
300.00007
300.00324
300.17764
308.33099
331.70861
319.1693
314.23408
311.52195
309.71137
308.35189
307.25094
306.31807
305.50185
304.77511
304.12188
303.53264
303.00792
300.00002
300.00006
300.0001
300.00014
300.00018
300.00023
300.00028
300.00034
300.0004
300.00051
300.00473
300.20329
308.20044
324.80855
314.09468
310.17402
308.06147
306.64284
305.57091
304.70095
303.97591
303.35518
302.81737
302.34945
301.94294
301.59619
300.00039
300.00075
300.00111
300.00152
300.00205
300.00276
300.00374
300.00511
300.00707
300.01026
300.02837
300.45952
310.84956
324.92208
313.91171
310.23245
308.05579
306.43519
305.1431
304.09708
303.25542
302.57884
302.03932
301.61475
301.28764
301.04831
300
300
300
300
299.99999
299.99999
299.99999
299.99999
300.00003
300.00119
300.03621
300.97814
322.31355
345.91469
320.70873
313.23122
309.49744
307.07288
305.32397
304.03277
303.06243
302.31845
301.74385
301.30057
300.96102
300.71039
300
300
300
300
300
300
300
299.99999
300
300.00012
300.00621
300.2868
311.43495
339.86568
322.87901
316.52958
313.17241
310.97525
309.34264
308.01374
306.88409
305.89841
305.02789
304.25537
303.57015
302.97295
300
300
300
300.00001
300.00001
300.00001
300.00001
300.00002
300.00002
300.00007
300.00324
300.17764
308.33099
331.70875
319.16945
314.23421
311.52205
309.71146
308.35195
307.25097
306.31809
305.50186
304.77511
304.12189
303.53265
303.00792
300.00002
300.00006
300.0001
300.00014
300.00018
300.00023
300.00028
300.00034
300.0004
300.00051
300.00473
300.20329
308.20044
324.80894
314.09504
310.17433
308.06171
306.643
305.571
304.701
303.97593
303.35519
302.81737
302.34945
301.94295
301.5962
300.00039
300.00075
300.00111
300.00152
300.00205
300.00276
300.00374
300.00511
300.00707
300.01026
300.02837
300.45952
310.84956
324.92293
313.91236
310.23285
308.05599
306.43528
305.1431
304.09707
303.25541
302.57884
302.03932
301.61475
301.28764
301.04832
300
300
300
300
300
299.99999
299.99999
299.99999
300.00001
300.00051
300.01531
300.38521
306.85959
310.07732
313.61713
317.07906
319.38581
316.84409
313.97352
311.36071
309.15198
307.33501
305.83927
304.60027
303.57751
302.73854
302.06091
301.52828
301.11935
300.81568
300
300
300
300
300
300
300
299.99999
300
300.00005
300.00222
300.09402
302.94616
304.96363
307.26806
309.67558
312.02068
311.69511
310.898
309.93074
308.95041
308.03067
307.19053
306.42552
305.72736
305.08429
304.48809
303.93172
303.41214
302.9365
300
300
300
300.00001
300.00001
300.00001
300.00001
300.00001
300.00002
300.00004
300.00107
300.05362
301.99111
303.47011
305.10208
306.79421
308.46207
308.35225
307.97062
307.47241
306.9367
306.40615
305.89547
305.40648
304.93891
304.48908
304.0548
303.63528
303.23112
302.84898
300.00002
300.00006
300.00009
300.00013
300.00017
300.00022
300.00027
300.00032
300.00038
300.00046
300.00196
300.06606
302.0984
303.48545
305.07324
306.72074
308.3008
308.0441
307.49092
306.8244
306.13787
305.47849
304.86213
304.29052
303.76495
303.28126
302.83717
302.43069
302.06125
301.73334
300.00038
300.00073
300.00107
300.00147
300.00196
300.00261
300.00348
300.00467
300.00629
300.00868
300.01756
300.18352
303.25634
306.27411
309.32345
312.00307
313.65038
312.71441
311.37215
309.93467
308.51782
307.1752
305.93471
304.81838
303.84918
303.03156
302.36314
301.83445
301.4301
301.1367
300
300
300
300
300
299.99999
299.99999
299.99999
300
300.00015
300.00448
300.10365
301.52694
302.3002
302.66744
302.6811
302.64067
302.50584
302.30488
302.06632
301.81052
301.55191
301.30009
301.06394
300.84909
300.66028
300.50028
300.36967
300.2669
300.18995
300
300
300
300
300
300
300
299.99999
300
300.00001
300.00053
300.0199
300.51544
300.96497
301.36376
301.66937
301.7572
301.77363
301.75882
301.7199
301.66304
301.59317
301.51351
301.42647
301.33297
301.23368
301.12927
301.02068
300.90926
300.79834
300
300
300
300.00001
300.00001
300.00001
300.00001
300.00001
300.00001
300.00002
300.00024
300.01006
300.3114
300.61088
300.89694
301.14612
301.27684
301.2968
301.30106
301.29337
301.27623
301.25118
301.21889
301.17968
301.13322
301.07922
301.01748
300.94818
300.87199
300.7913
300.00002
300.00005
300.00009
300.00012
300.00016
300.0002
300.00024
300.00029
300.00034
300.0004
300.00077
300.01405
300.36315
300.68208
300.97007
301.20477
301.30246
301.3618
301.40238
301.41951
301.41101
301.37752
301.32117
301.24633
301.15657
301.05594
300.94837
300.83761
300.72722
300.62192
300.00037
300.0007
300.00102
300.00138
300.00182
300.00238
300.00312
300.00409
300.00536
300.00704
300.01081
300.0553
300.72366
302.29214
303.47887
304.30874
304.92593
305.30045
305.4526
305.39461
305.14647
304.74134
304.22264
303.64613
303.05919
302.50313
302.00721
301.58815
301.2521
301.00127
300
300
300
300
300
299.99999
299.99999
299.99999
299.99999
300.00002
300.00084
300.01744
300.21
300.3379
300.38573
300.38163
300.36804
300.34556
300.31608
300.28176
300.24467
300.20672
300.16961
300.13522
300.10465
300.07866
300.05752
300.04099
300.02854
300.01961
300
300
300
300
300
300
300
299.99999
299.99999
300
300.00008
300.00265
300.05397
300.11464
300.16903
300.20533
300.21284
300.21779
300.22033
300.22071
300.21907
300.21546
300.20979
300.202
300.19195
300.17961
300.16506
300.14858
300.13065
300.11215
300
300
300
300.00001
300.00001
300.00001
300.00001
300.00001
300.00001
300.00002
300.00004
300.00112
300.02765
300.06223
300.09725
300.12606
300.13987
300.14617
300.15169
300.15644
300.16033
300.16318
300.16469
300.16457
300.16251
300.15821
300.1515
300.14236
300.13097
300.1179
300.00002
300.00005
300.00008
300.00012
300.00015
300.00018
300.00022
300.00026
300.0003
300.00036
300.00046
300.0022
300.03792
300.09184
300.15109
300.20493
300.24295
300.28005
300.31347
300.34047
300.35877
300.36709
300.36497
300.35335
300.33328
300.30648
300.27495
300.24083
300.20625
300.17382
300.00036
300.00067
300.00098
300.00131
300.00171
300.00221
300.00284
300.00364
300.00463
300.00583
300.00754
300.01617
300.12261
301.24152
302.16045
302.89894
303.47312
303.87076
304.08539
304.11697
303.97847
303.69755
303.31198
302.87061
302.41457
301.97968
301.59139
301.26449
301.00492
300.81497
300
300
300
300
300
299.99999
299.99999
299.99999
299.99999
300
300.00011
300.00192
300.01812
300.03188
300.03583
300.0353
300.03355
300.03077
300.02718
300.02307
300.01882
300.01476
300.01114
300.00815
300.00578
300.00399
300.00269
300.00177
300.00115
300.00075
300
300
300
300
300
300
300
300
299.99999
300
300.00001
300.00026
300.00381
300.00935
300.01444
300.01752
300.01898
300.0202
300.0211
300.02158
300.02155
300.02094
300.01974
300.01803
300.01595
300.01365
300.01132
300.00911
300.00713
300.00546
300
300
300
300
300.00001
300.00001
300.00001
300.00001
300.00001
300.00001
300.00002
300.0001
300.00166
300.00464
300.00809
300.01112
300.01332
300.01565
300.01796
300.02007
300.02173
300.02274
300.02292
300.02224
300.02075
300.01864
300.01612
300.01347
300.01094
300.00874
300.00002
300.00005
300.00008
300.00011
300.00014
300.00017
300.0002
300.00024
300.00027
300.00032
300.00038
300.00062
300.00397
300.02756
300.05781
300.09107
300.12456
300.15585
300.18201
300.2005
300.20951
300.20832
300.19741
300.17902
300.15565
300.1302
300.10526
300.08314
300.06497
300.05164
300.00035
300.00066
300.00098
300.00132
300.00173
300.00225
300.00289
300.00368
300.00461
300.00565
300.00683
300.00957
300.05234
301.34975
302.36812
303.12571
303.63508
303.91036
303.96651
303.8255
303.52378
303.11224
302.64676
302.18303
301.7574
301.3921
301.09555
300.86661
300.70027
300.59189
)
;

boundaryField
{
    minX
    {
        type            fixedValue;
        value           uniform 300;
    }
    maxX
    {
        type            inletOutlet;
        inletValue      uniform 300;
        value           nonuniform List<scalar> 
50
(
300.00074
300.00545
300.00872
300.05156
300.59125
300.01957
300.11203
300.11779
300.17357
300.81403
300.18968
300.79773
300.79078
300.62123
301.0001
300.8148
302.93463
302.84728
301.73183
301.13544
300.70952
302.97031
303.00528
301.59447
301.04718
300.70952
302.97031
303.00528
301.59447
301.04718
300.8148
302.93464
302.8473
301.73185
301.13545
300.18969
300.7978
300.79085
300.62133
301.00015
300.01958
300.11204
300.1178
300.17361
300.81406
300.00074
300.00545
300.00872
300.05156
300.59125
)
;
    }
    minY
    {
        type            zeroGradient;
    }
    minZ
    {
        type            zeroGradient;
    }
    maxZ
    {
        type            zeroGradient;
    }
    bottomWater_to_rightSolid
    {
        type            compressible::turbulentTemperatureRadCoupledMixed;
        refValue        nonuniform List<scalar> 
130
(
326.93074
324.1087
321.19683
318.34975
315.68133
313.26633
311.14753
309.34426
307.86025
306.69017
305.82462
305.25386
304.97035
329.28341
325.93057
322.55151
319.32786
316.3733
313.74934
311.48204
309.57528
308.02028
306.80242
305.90576
305.31624
305.02382
334.04111
329.46492
325.07842
321.09168
317.58642
314.57656
312.04382
309.95683
308.28087
306.98309
306.03522
305.41528
305.10862
341.14818
334.26396
328.24972
323.17373
318.95304
315.47577
312.63785
310.3516
308.54587
307.16435
306.16384
305.51312
305.19222
349.43457
338.7535
330.81271
324.69867
319.88883
316.0632
313.01306
310.59496
308.70645
307.27296
306.24048
305.57139
305.24215
349.43458
338.7535
330.81272
324.69867
319.88883
316.0632
313.01306
310.59496
308.70645
307.27296
306.24049
305.5714
305.24216
341.14819
334.26398
328.24975
323.17376
318.95306
315.47579
312.63786
310.3516
308.54587
307.16435
306.16385
305.51312
305.19224
334.04115
329.46496
325.07846
321.09171
317.58644
314.57657
312.04384
309.95684
308.28088
306.9831
306.03523
305.41529
305.10863
329.28345
325.93062
322.55155
319.3279
316.37332
313.74935
311.48206
309.57529
308.0203
306.80243
305.90577
305.31625
305.02383
326.9308
324.10876
321.19688
318.34979
315.68135
313.26634
311.14755
309.34427
307.86026
306.69018
305.82463
305.25387
304.97036
)
;
        refGradient     uniform 0;
        valueFraction   uniform 0.99248593;
        source          uniform 0;
        logInterval     -1;
        writePrecision  8;
        updateHeader    1;
        writeToFile     0;
        useUserTime     1;
        kappaMethod     fluidThermo;
        value           nonuniform List<scalar> 
130
(
326.75774
323.95733
321.06628
318.23833
315.58687
313.18653
311.08015
309.28724
307.81164
306.64812
305.78735
305.21963
304.93745
329.09244
325.7664
322.41297
319.21251
316.27803
313.67091
311.41732
309.52145
307.97488
306.76325
305.87087
305.28383
304.99219
333.82514
329.28447
324.93049
320.97184
317.48988
314.49876
311.9807
309.90498
308.23744
306.94568
306.00179
305.38398
305.07774
340.93449
334.09191
328.11206
323.06357
318.86451
315.40406
312.57907
310.30272
308.50442
307.12825
306.1313
305.48243
305.16174
349.25035
338.5668
330.65803
324.57358
319.78771
315.98112
312.94604
310.5398
308.66039
307.23362
306.20571
305.53919
305.21063
349.25035
338.56681
330.65805
324.57359
319.78772
315.98112
312.94605
310.53979
308.66039
307.23362
306.20572
305.5392
305.21064
340.93452
334.09195
328.11211
323.06361
318.86453
315.40407
312.57908
310.30272
308.50442
307.12826
306.1313
305.48243
305.16175
333.82518
329.28452
324.93054
320.97188
317.48991
314.49875
311.98072
309.90499
308.23745
306.9457
306.0018
305.38399
305.07776
329.09249
325.76646
322.41302
319.21255
316.27806
313.67091
311.41734
309.52147
307.97489
306.76327
305.87088
305.28384
304.9922
326.75781
323.95739
321.06633
318.23837
315.58689
313.18653
311.08017
309.28725
307.81165
306.64813
305.78737
305.21964
304.93746
)
;
    }
    bottomWater_to_leftSolid
    {
        type            compressible::turbulentTemperatureRadCoupledMixed;
        refValue        nonuniform List<scalar> 
130
(
300.01529
300.01636
300.01852
300.0218
300.02625
300.0319
300.03873
300.04666
300.05544
300.06465
300.0736
300.08132
300.08663
300.0156
300.01673
300.01901
300.02252
300.02733
300.03352
300.04116
300.05027
300.0607
300.07214
300.08388
300.09471
300.10267
300.01609
300.01732
300.01983
300.02371
300.02912
300.03626
300.04534
300.05659
300.07021
300.0862
300.10422
300.12305
300.1395
300.01659
300.01793
300.02066
300.02494
300.031
300.03916
300.04986
300.06368
300.08132
300.10366
300.1316
300.16565
300.203
300.01691
300.0183
300.02118
300.02572
300.0322
300.04105
300.05288
300.06855
300.08935
300.11721
300.15524
300.20855
300.28228
300.01691
300.0183
300.02118
300.02572
300.0322
300.04105
300.05288
300.06855
300.08935
300.11721
300.15524
300.20855
300.28228
300.01659
300.01793
300.02066
300.02494
300.031
300.03916
300.04986
300.06368
300.08132
300.10366
300.1316
300.16565
300.203
300.01609
300.01732
300.01983
300.02371
300.02912
300.03626
300.04534
300.05659
300.07021
300.0862
300.10422
300.12305
300.1395
300.0156
300.01673
300.01901
300.02252
300.02733
300.03352
300.04116
300.05026
300.0607
300.07214
300.08388
300.09471
300.10267
300.01529
300.01636
300.01852
300.0218
300.02625
300.0319
300.03873
300.04666
300.05544
300.06465
300.0736
300.08132
300.08662
)
;
        refGradient     uniform 0;
        valueFraction   uniform 0.99248593;
        source          uniform 0;
        logInterval     -1;
        writePrecision  8;
        updateHeader    1;
        writeToFile     0;
        useUserTime     1;
        kappaMethod     fluidThermo;
        value           nonuniform List<scalar> 
130
(
300.01518
300.01624
300.01838
300.02164
300.02606
300.03168
300.03846
300.04634
300.05506
300.06421
300.0731
300.08078
300.08637
300.01548
300.0166
300.01888
300.02236
300.02713
300.03328
300.04088
300.04991
300.06028
300.07164
300.08331
300.09412
300.10282
300.01597
300.0172
300.01969
300.02354
300.02892
300.036
300.04502
300.0562
300.06972
300.08561
300.10352
300.12255
300.14389
300.01647
300.0178
300.02051
300.02476
300.03078
300.03889
300.04952
300.06323
300.08075
300.10294
300.13074
300.16578
300.22595
300.01678
300.01817
300.02103
300.02554
300.03197
300.04076
300.05251
300.06808
300.08873
300.11641
300.15428
300.21043
300.36167
300.01678
300.01817
300.02103
300.02554
300.03197
300.04076
300.05251
300.06808
300.08873
300.11641
300.15428
300.21043
300.36167
300.01647
300.0178
300.02051
300.02476
300.03078
300.03889
300.04952
300.06323
300.08075
300.10294
300.13074
300.16578
300.22595
300.01597
300.0172
300.01969
300.02354
300.02892
300.036
300.04502
300.0562
300.06972
300.08561
300.10352
300.12255
300.14389
300.01548
300.0166
300.01888
300.02236
300.02713
300.03328
300.04088
300.04991
300.06028
300.07164
300.08331
300.09412
300.10282
300.01518
300.01624
300.01838
300.02164
300.02606
300.03168
300.03846
300.04634
300.05506
300.06421
300.0731
300.08078
300.08637
)
;
    }
    bottomWater_to_heater
    {
        type            compressible::turbulentTemperatureRadCoupledMixed;
        refValue        nonuniform List<scalar> 
92
(
333.79631
333.03999
331.56745
329.47765
337.55098
336.64951
334.88283
332.35862
345.45947
344.27597
341.89698
338.39039
483.93537
484.70893
484.75197
484.11862
455.93091
456.89423
456.91382
456.09273
431.32158
432.08361
431.91101
430.99709
409.83595
410.17395
409.51619
408.25256
358.27785
391.53036
356.77237
391.15845
353.54039
389.43595
348.30909
386.91186
483.93537
484.11862
455.93091
456.09273
431.32158
430.99709
409.83595
408.25256
391.53036
386.91186
483.93536
483.93536
484.70892
484.75196
484.11862
484.11862
455.9309
455.9309
456.89422
456.91381
456.09273
456.09273
431.32156
431.32156
432.0836
431.911
430.99709
430.99709
409.83593
409.83593
410.17394
409.51619
408.25256
408.25256
391.53034
391.53034
391.15844
389.43595
386.91187
386.91187
358.27785
356.77237
353.5404
348.3091
345.45947
344.27597
341.897
338.39041
337.55098
336.64952
334.88285
332.35865
333.79628
333.04
331.56747
329.47771
)
;
        refGradient     uniform 0;
        valueFraction   uniform 0.99248593;
        source          uniform 0;
        logInterval     -1;
        writePrecision  8;
        updateHeader    1;
        writeToFile     0;
        useUserTime     1;
        kappaMethod     fluidThermo;
        value           nonuniform List<scalar> 
92
(
333.5525
332.80952
331.35373
329.28346
337.27814
336.39036
334.6425
332.14156
345.13511
343.96941
341.61454
338.13892
482.62899
483.42333
483.49206
482.8808
454.79653
455.76993
455.80746
455.01016
430.36089
431.12946
430.97087
430.07635
409.03682
409.38422
408.74378
407.50151
357.88709
390.88973
356.41583
390.54353
353.22827
388.8541
348.04865
386.36135
482.72093
483.08011
454.84516
455.21936
430.39742
430.251
409.07225
407.62552
390.92411
386.44602
482.72092
482.62898
483.42332
483.49205
483.08011
482.8808
454.84514
454.79652
455.76992
455.80745
455.21936
455.01016
430.3974
430.36087
431.12945
430.97087
430.251
430.07635
409.07223
409.0368
409.38421
408.74377
407.62553
407.50151
390.92409
390.88972
390.54352
388.8541
386.44604
386.36136
357.88709
356.41583
353.22827
348.04866
345.13511
343.96942
341.61455
338.13895
337.27814
336.39036
334.64252
332.1416
333.55247
332.80952
331.35375
329.28352
)
;
    }
}


// ************************************************************************* //
