/*--------------------------------*- C++ -*----------------------------------*\
| =========                 |                                                 |
| \\      /  F ield         | OpenFOAM: The Open Source CFD Toolbox           |
|  \\    /   O peration     | Version:  2412                                  |
|   \\  /    A nd           | Website:  www.openfoam.com                      |
|    \\/     M anipulation  |                                                 |
\*---------------------------------------------------------------------------*/
FoamFile
{
    version     2.0;
    format      ascii;
    arch        "LSB;label=32;scalar=64";
    class       volVectorField;
    location    "100/bottomWater";
    object      U;
}
// * * * * * * * * * * * * * * * * * * * * * * * * * * * * * * * * * * * * * //

dimensions      [0 1 -1 0 0 0 0];

internalField   nonuniform List<vector> 
1460
(
(0.00091160903 5.9002199e-05 4.1903079e-05)
(0.00088266445 6.2140782e-05 4.8960462e-05)
(0.0007842189 5.3755269e-05 4.5448342e-05)
(0.00070012536 4.3326569e-05 3.8411757e-05)
(0.00063588289 3.3253438e-05 3.011226e-05)
(0.00058778905 2.4941653e-05 2.181687e-05)
(0.00055425914 1.8762153e-05 1.3888672e-05)
(0.0005348453 1.450789e-05 6.0180356e-06)
(0.00052957751 1.2001195e-05 -2.0112199e-06)
(0.00053738457 1.0773242e-05 -9.5228432e-06)
(0.0005580324 9.7029447e-06 -1.5200843e-05)
(0.0005907988 8.0131213e-06 -1.6602018e-05)
(0.00063307091 5.2248357e-06 -1.0047949e-05)
(0.00066724012 2.0131132e-06 1.155705e-05)
(0.0006819635 -1.1569836e-06 2.883313e-05)
(0.00068026201 -3.6243091e-06 3.7756673e-05)
(0.00066439918 -4.7003368e-06 4.1612726e-05)
(0.0006357797 -4.6431798e-06 4.3271847e-05)
(0.00059783571 -4.2412756e-06 4.1818498e-05)
(0.00055638715 -3.8399942e-06 3.756296e-05)
(0.00051660628 -3.4406176e-06 3.192115e-05)
(0.00048130571 -2.9589534e-06 2.605536e-05)
(0.00045141482 -2.3684203e-06 2.0635089e-05)
(0.00042683502 -1.6881288e-06 1.5968013e-05)
(0.00040697209 -9.5833532e-07 1.2116304e-05)
(0.0003910373 -2.338605e-07 9.0258152e-06)
(0.00037819734 4.4036669e-07 6.6209444e-06)
(0.00036779683 1.0962195e-06 4.8613434e-06)
(0.00035961881 1.6878618e-06 3.5320376e-06)
(0.0003451212 3.6300413e-06 3.066111e-06)
(0.00097350323 5.5465808e-05 4.6172103e-05)
(0.0009927147 5.9813143e-05 5.9203454e-05)
(0.00097483799 5.5850389e-05 5.8447861e-05)
(0.00094979142 4.82124e-05 5.3526248e-05)
(0.00092694075 3.9344634e-05 4.6492368e-05)
(0.00090705404 3.1114439e-05 3.838633e-05)
(0.00089145785 2.4276327e-05 2.983854e-05)
(0.00088253554 1.8948827e-05 2.0855686e-05)
(0.00088280194 1.5262197e-05 1.1024847e-05)
(0.00089655389 1.3197799e-05 4.16038e-07)
(0.00092469606 1.1832816e-05 -9.3469679e-06)
(0.00096805124 1.0225436e-05 -1.5646163e-05)
(0.0010247452 7.9808139e-06 -1.4122878e-05)
(0.0010778249 5.16981e-06 3.5775148e-06)
(0.0011139912 2.3410205e-06 2.2168733e-05)
(0.0011302234 -3.0134044e-07 3.5537758e-05)
(0.0011289463 -1.9718211e-06 4.3995713e-05)
(0.001112673 -2.5692219e-06 4.9140074e-05)
(0.0010827599 -2.7309284e-06 5.0915589e-05)
(0.0010436827 -2.8611549e-06 4.9466569e-05)
(0.0010002922 -3.0171548e-06 4.5788238e-05)
(0.00095606441 -3.1088008e-06 4.0908759e-05)
(0.00091315763 -3.0622079e-06 3.5586347e-05)
(0.00087289663 -2.8372209e-06 3.0315584e-05)
(0.00083601477 -2.4191557e-06 2.5394312e-05)
(0.00080280379 -1.8140439e-06 2.0981473e-05)
(0.00077327121 -1.0300992e-06 1.7178255e-05)
(0.00074725443 -1.3444578e-08 1.4101902e-05)
(0.0007252957 1.4869095e-06 1.1669293e-05)
(0.00069515973 4.099374e-06 1.0921438e-05)
(0.00097822581 2.0538144e-14 4.6129504e-05)
(0.0010099002 3.1613522e-14 5.9847074e-05)
(0.0010097731 6.0598249e-14 5.9907632e-05)
(0.001001421 1.2582124e-13 5.5780857e-05)
(0.00099262406 2.4671741e-13 4.9353117e-05)
(0.00098382066 4.3644034e-13 4.1620867e-05)
(0.00097634733 6.9733136e-13 3.3277051e-05)
(0.0009728413 1.0027068e-12 2.4446236e-05)
(0.00097603899 1.3119891e-12 1.4673572e-05)
(0.00099090121 1.5644331e-12 4.0585549e-06)
(0.0010195556 1.7093473e-12 -5.8856844e-06)
(0.0010628413 1.7041814e-12 -1.2481168e-05)
(0.0011191217 1.554316e-12 -1.1512726e-05)
(0.0011729406 1.2555706e-12 4.6340168e-06)
(0.0012117678 8.4986025e-13 2.18512e-05)
(0.0012324545 3.7916673e-13 3.4402868e-05)
(0.0012355042 -1.2852455e-13 4.2714046e-05)
(0.001224444 -6.5870509e-13 4.785102e-05)
(0.0011999812 -1.2160888e-12 4.9850115e-05)
(0.0011661191 -1.8011448e-12 4.8937376e-05)
(0.0011271315 -2.4267619e-12 4.5985175e-05)
(0.0010860148 -3.1062369e-12 4.1873091e-05)
(0.0010446928 -3.8566672e-12 3.7255631e-05)
(0.0010044875 -4.6906772e-12 3.2564392e-05)
(0.00096629762 -5.5788613e-12 2.807002e-05)
(0.00093069035 -6.4096366e-12 2.3929708e-05)
(0.00089800429 -6.9776881e-12 2.0261954e-05)
(0.00086854581 -6.9383406e-12 1.7214111e-05)
(0.00084313031 -7.0810659e-12 1.4717787e-05)
(0.00080913747 -6.3049912e-12 1.3935088e-05)
(0.00097350323 -5.5465808e-05 4.6172103e-05)
(0.0009927147 -5.9813143e-05 5.9203454e-05)
(0.00097483799 -5.5850389e-05 5.8447861e-05)
(0.00094979142 -4.82124e-05 5.3526248e-05)
(0.00092694075 -3.9344634e-05 4.6492368e-05)
(0.00090705404 -3.1114439e-05 3.838633e-05)
(0.00089145785 -2.4276326e-05 2.9838541e-05)
(0.00088253555 -1.8948826e-05 2.0855686e-05)
(0.00088280194 -1.5262195e-05 1.1024847e-05)
(0.0008965539 -1.3197798e-05 4.1603818e-07)
(0.00092469606 -1.1832813e-05 -9.3469677e-06)
(0.00096805124 -1.0225434e-05 -1.5646162e-05)
(0.0010247452 -7.980812e-06 -1.4122878e-05)
(0.0010778249 -5.1698084e-06 3.5775151e-06)
(0.0011139912 -2.3410195e-06 2.2168733e-05)
(0.0011302234 3.0134076e-07 3.5537758e-05)
(0.0011289463 1.9718207e-06 4.3995713e-05)
(0.001112673 2.5692207e-06 4.9140074e-05)
(0.0010827599 2.7309265e-06 5.0915589e-05)
(0.0010436827 2.8611523e-06 4.9466568e-05)
(0.0010002922 3.0171515e-06 4.5788237e-05)
(0.00095606441 3.1087967e-06 4.0908758e-05)
(0.00091315763 3.0622029e-06 3.5586346e-05)
(0.00087289663 2.8372149e-06 3.0315582e-05)
(0.00083601476 2.4191486e-06 2.5394309e-05)
(0.00080280378 1.8140358e-06 2.098147e-05)
(0.0007732712 1.0300906e-06 1.7178251e-05)
(0.00074725442 1.3435823e-08 1.4101899e-05)
(0.00072529568 -1.486918e-06 1.166929e-05)
(0.00069515971 -4.0993814e-06 1.0921438e-05)
(0.00091160903 -5.9002199e-05 4.1903079e-05)
(0.00088266445 -6.2140782e-05 4.8960462e-05)
(0.0007842189 -5.3755269e-05 4.5448342e-05)
(0.00070012536 -4.3326569e-05 3.8411757e-05)
(0.00063588289 -3.3253438e-05 3.011226e-05)
(0.00058778905 -2.4941653e-05 2.181687e-05)
(0.00055425914 -1.8762152e-05 1.3888672e-05)
(0.0005348453 -1.450789e-05 6.0180357e-06)
(0.00052957751 -1.2001195e-05 -2.0112197e-06)
(0.00053738457 -1.0773242e-05 -9.522843e-06)
(0.0005580324 -9.7029444e-06 -1.5200842e-05)
(0.00059079881 -8.013121e-06 -1.6602017e-05)
(0.00063307092 -5.2248355e-06 -1.0047949e-05)
(0.00066724013 -2.0131131e-06 1.155705e-05)
(0.00068196351 1.1569837e-06 2.883313e-05)
(0.00068026202 3.624309e-06 3.7756673e-05)
(0.00066439918 4.7003365e-06 4.1612726e-05)
(0.0006357797 4.6431794e-06 4.3271847e-05)
(0.00059783571 4.2412751e-06 4.1818497e-05)
(0.00055638715 3.8399937e-06 3.756296e-05)
(0.00051660628 3.440617e-06 3.192115e-05)
(0.00048130571 2.9589528e-06 2.605536e-05)
(0.00045141482 2.3684195e-06 2.0635088e-05)
(0.00042683502 1.6881279e-06 1.5968012e-05)
(0.00040697208 9.5833441e-07 1.2116303e-05)
(0.00039103729 2.3385961e-07 9.0258134e-06)
(0.00037819734 -4.4036748e-07 6.6209426e-06)
(0.00036779682 -1.0962204e-06 4.8613422e-06)
(0.0003596188 -1.6878621e-06 3.5320375e-06)
(0.00034512118 -3.6300414e-06 3.0661127e-06)
(0.00094650856 6.2272771e-05 4.7764797e-05)
(0.00094116147 6.9507413e-05 6.1021448e-05)
(0.00089224508 6.1540335e-05 6.2017428e-05)
(0.00084629469 5.1851159e-05 5.492069e-05)
(0.00081065361 4.2313856e-05 4.2582292e-05)
(0.00078347523 3.3878175e-05 2.6836816e-05)
(0.00076434422 2.7150662e-05 8.3227835e-06)
(0.00075426937 2.2103457e-05 -1.3286454e-05)
(0.00075433695 1.7906367e-05 -3.820959e-05)
(0.00076735262 1.3849215e-05 -6.622892e-05)
(0.00079676774 9.7361322e-06 -9.6099561e-05)
(0.00084627558 5.6630593e-06 -0.00012327301)
(0.0009209818 2.5837479e-06 -0.00013587722)
(0.00097857975 4.4728656e-06 -9.5876727e-05)
(0.00099558769 6.3276161e-06 -4.9868655e-05)
(0.00099177405 7.0152187e-06 -7.1225545e-06)
(0.00097579091 7.0338587e-06 3.186913e-05)
(0.00094530479 6.8654891e-06 6.697007e-05)
(0.00090133225 6.36619e-06 8.6370433e-05)
(0.00085278258 5.5428225e-06 9.1491087e-05)
(0.00080670545 4.5269519e-06 8.7192073e-05)
(0.00076610486 3.5408154e-06 7.7827569e-05)
(0.00073178486 2.7254342e-06 6.650407e-05)
(0.00070349375 2.1164701e-06 5.5122366e-05)
(0.00068048418 1.7182339e-06 4.4706582e-05)
(0.00066186166 1.5048778e-06 3.5715157e-05)
(0.0006467386 1.463188e-06 2.8288136e-05)
(0.0006343533 1.6658584e-06 2.2426022e-05)
(0.0006241224 2.2269781e-06 1.807053e-05)
(0.00060843037 4.5647274e-06 1.4673381e-05)
(0.001016854 5.9002441e-05 5.3055062e-05)
(0.0010675983 6.6028626e-05 7.1603037e-05)
(0.0011131183 6.1407246e-05 7.5147643e-05)
(0.0011491676 5.4710012e-05 7.1693971e-05)
(0.0011787727 4.7198306e-05 6.2956626e-05)
(0.0012043093 3.9967516e-05 4.9875878e-05)
(0.0012279885 3.37981e-05 3.280933e-05)
(0.0012525765 2.8935716e-05 1.1333001e-05)
(0.0012817967 2.4754013e-05 -1.5646121e-05)
(0.0013179082 2.0618898e-05 -4.8564257e-05)
(0.0013663596 1.6343516e-05 -8.6893524e-05)
(0.0014325444 1.1780944e-05 -0.00012734106)
(0.0015228752 8.054803e-06 -0.00015790791)
(0.0016060087 7.4592279e-06 -0.00013873538)
(0.0016572268 8.3352346e-06 -0.00010366992)
(0.0016890053 8.6410467e-06 -6.4291622e-05)
(0.0017064067 8.3593414e-06 -2.3345454e-05)
(0.001706155 7.7176502e-06 1.8373669e-05)
(0.0016882147 6.9843145e-06 5.0280346e-05)
(0.0016583876 6.0851379e-06 7.0659206e-05)
(0.0016226213 5.0356861e-06 8.1808655e-05)
(0.0015844416 3.9747494e-06 8.6282741e-05)
(0.0015458465 3.0174232e-06 8.6191347e-05)
(0.0015080751 2.2185979e-06 8.3143346e-05)
(0.0014718818 1.6165852e-06 7.8321004e-05)
(0.0014376949 1.2338113e-06 7.2578338e-05)
(0.001405773 1.1089201e-06 6.6514488e-05)
(0.0013763832 1.3648742e-06 6.0560682e-05)
(0.0013500301 2.3479241e-06 5.5049463e-05)
(0.0013165852 4.791821e-06 4.9952524e-05)
(0.0010225278 2.1725216e-14 5.3766184e-05)
(0.0010877808 3.4122479e-14 7.3108883e-05)
(0.0011536583 6.7913496e-14 7.743348e-05)
(0.0012101508 1.4407713e-13 7.4953326e-05)
(0.0012585404 2.8455374e-13 6.7251405e-05)
(0.001300862 5.0903223e-13 5.5197698e-05)
(0.0013392304 8.3291462e-13 3.9153363e-05)
(0.0013761792 1.2531961e-12 1.8828544e-05)
(0.0014158492 1.740529e-12 -6.9184793e-06)
(0.0014606414 2.2193753e-12 -3.8712735e-05)
(0.001515159 2.5997834e-12 -7.6065805e-05)
(0.0015847726 2.7844045e-12 -0.0001160697)
(0.0016754635 2.7393249e-12 -0.000148097)
(0.0017599132 2.5410264e-12 -0.00013544444)
(0.0018157615 2.1832225e-12 -0.00010721343)
(0.0018545547 1.6084257e-12 -7.3475298e-05)
(0.0018818441 8.0132605e-13 -3.6511486e-05)
(0.0018923789 -2.1564397e-13 2.0193643e-06)
(0.0018861713 -1.4614938e-12 3.2335597e-05)
(0.0018680629 -2.9137095e-12 5.2850092e-05)
(0.0018429366 -4.5353498e-12 6.5646745e-05)
(0.001813665 -6.2852233e-12 7.2823957e-05)
(0.0017819249 -8.152063e-12 7.6048137e-05)
(0.0017488567 -1.0147149e-11 7.6559135e-05)
(0.0017152907 -1.2308355e-11 7.5250946e-05)
(0.0016818564 -1.46511e-11 7.2773274e-05)
(0.0016490996 -1.7113626e-11 6.9596276e-05)
(0.0016176504 -1.9510377e-11 6.6076617e-05)
(0.0015884896 -2.1516365e-11 6.2496332e-05)
(0.0015515252 -2.2147962e-11 5.8777962e-05)
(0.001016854 -5.9002441e-05 5.3055062e-05)
(0.0010675983 -6.6028626e-05 7.1603037e-05)
(0.0011131183 -6.1407246e-05 7.5147643e-05)
(0.0011491676 -5.4710012e-05 7.1693971e-05)
(0.0011787727 -4.7198305e-05 6.2956626e-05)
(0.0012043093 -3.9967515e-05 4.9875878e-05)
(0.0012279885 -3.3798099e-05 3.280933e-05)
(0.0012525765 -2.8935715e-05 1.1333001e-05)
(0.0012817967 -2.4754011e-05 -1.5646121e-05)
(0.0013179082 -2.0618896e-05 -4.8564257e-05)
(0.0013663596 -1.6343513e-05 -8.6893523e-05)
(0.0014325444 -1.178094e-05 -0.00012734106)
(0.0015228752 -8.0547995e-06 -0.00015790791)
(0.0016060087 -7.4592247e-06 -0.00013873538)
(0.0016572268 -8.3352319e-06 -0.00010366992)
(0.0016890053 -8.6410448e-06 -6.4291621e-05)
(0.0017064067 -8.3593406e-06 -2.3345454e-05)
(0.001706155 -7.7176507e-06 1.837367e-05)
(0.0016882147 -6.9843166e-06 5.0280347e-05)
(0.0016583876 -6.0851418e-06 7.0659206e-05)
(0.0016226214 -5.0356921e-06 8.1808654e-05)
(0.0015844416 -3.9747575e-06 8.628274e-05)
(0.0015458465 -3.0174336e-06 8.6191346e-05)
(0.0015080751 -2.2186106e-06 8.3143344e-05)
(0.0014718818 -1.6166005e-06 7.8321e-05)
(0.0014376948 -1.2338295e-06 7.2578332e-05)
(0.001405773 -1.1089415e-06 6.651448e-05)
(0.0013763831 -1.3648987e-06 6.0560673e-05)
(0.00135003 -2.3479516e-06 5.5049454e-05)
(0.0013165851 -4.7918498e-06 4.9952515e-05)
(0.00094650856 -6.2272771e-05 4.7764797e-05)
(0.00094116147 -6.9507413e-05 6.1021448e-05)
(0.00089224508 -6.1540335e-05 6.2017428e-05)
(0.00084629469 -5.1851159e-05 5.492069e-05)
(0.00081065361 -4.2313856e-05 4.2582292e-05)
(0.00078347523 -3.3878175e-05 2.6836816e-05)
(0.00076434422 -2.7150662e-05 8.3227835e-06)
(0.00075426937 -2.2103457e-05 -1.3286454e-05)
(0.00075433695 -1.7906366e-05 -3.820959e-05)
(0.00076735263 -1.3849214e-05 -6.622892e-05)
(0.00079676775 -9.7361317e-06 -9.609956e-05)
(0.00084627558 -5.6630588e-06 -0.00012327301)
(0.00092098181 -2.5837475e-06 -0.00013587722)
(0.00097857975 -4.4728652e-06 -9.5876726e-05)
(0.0009955877 -6.3276159e-06 -4.9868654e-05)
(0.00099177406 -7.0152186e-06 -7.1225538e-06)
(0.00097579092 -7.0338587e-06 3.186913e-05)
(0.0009453048 -6.8654893e-06 6.6970071e-05)
(0.00090133225 -6.3661904e-06 8.6370433e-05)
(0.00085278259 -5.5428231e-06 9.1491087e-05)
(0.00080670546 -4.5269527e-06 8.7192073e-05)
(0.00076610486 -3.5408162e-06 7.7827567e-05)
(0.00073178486 -2.725435e-06 6.6504068e-05)
(0.00070349375 -2.116471e-06 5.5122363e-05)
(0.00068048417 -1.7182349e-06 4.4706578e-05)
(0.00066186165 -1.504879e-06 3.5715151e-05)
(0.00064673859 -1.4631897e-06 2.8288129e-05)
(0.00063435328 -1.6658607e-06 2.2426016e-05)
(0.00062412237 -2.2269811e-06 1.8070525e-05)
(0.00060843033 -4.5647315e-06 1.4673378e-05)
(0.00094525903 6.2440013e-05 1.360904e-05)
(0.00093868063 7.0164935e-05 2.2329143e-05)
(0.00089286949 6.242528e-05 2.5049818e-05)
(0.00085115472 5.2918747e-05 2.2142816e-05)
(0.00081915736 4.3465227e-05 1.4003669e-05)
(0.00079401913 3.4870688e-05 8.6922247e-07)
(0.0007744086 2.7473021e-05 -1.7351097e-05)
(0.00076050007 2.1142639e-05 -4.0992076e-05)
(0.00075385871 1.5389242e-05 -7.1265085e-05)
(0.00075818468 9.12104e-06 -0.00010972918)
(0.00078119361 9.2473087e-07 -0.00015755687)
(0.00083484003 -9.0504855e-06 -0.00020869657)
(0.00095251081 -1.5320808e-05 -0.00022933754)
(0.0010516942 -4.8463057e-06 -7.2430091e-05)
(0.0010753373 4.3127113e-06 -3.768051e-06)
(0.0010763005 1.153605e-05 4.69654e-05)
(0.0010611926 1.7262601e-05 9.1815817e-05)
(0.0010171705 2.2211359e-05 0.00014506523)
(0.00094701721 2.3139647e-05 0.00016372456)
(0.00088002442 2.0840012e-05 0.00016229239)
(0.00082535217 1.6983428e-05 0.00014847312)
(0.00078355746 1.2878543e-05 0.00012888813)
(0.00075261054 9.1636285e-06 0.00010811303)
(0.00073007406 6.1039654e-06 8.865481e-05)
(0.00071386178 3.7498788e-06 7.1653822e-05)
(0.00070231721 2.0485154e-06 5.7428491e-05)
(0.00069415301 8.9208854e-07 4.5876931e-05)
(0.0006884013 2.2664736e-07 3.6646529e-05)
(0.00068419267 1.3701614e-07 2.9200599e-05)
(0.00067927652 1.1993874e-06 2.2711735e-05)
(0.0010162108 5.9287377e-05 1.5851586e-05)
(0.0010668261 6.6920058e-05 2.7742869e-05)
(0.0011172297 6.2508413e-05 3.3294298e-05)
(0.0011606765 5.5984171e-05 3.3144256e-05)
(0.0011979897 4.8551919e-05 2.7543678e-05)
(0.0012301959 4.1148918e-05 1.6402152e-05)
(0.0012584635 3.4273172e-05 -8.1710164e-07)
(0.0012842597 2.7971387e-05 -2.5058704e-05)
(0.0013095852 2.2006439e-05 -5.7595493e-05)
(0.0013381794 1.544667e-05 -0.00010098213)
(0.001377277 6.9398518e-06 -0.00015829543)
(0.0014375254 -4.8506859e-06 -0.00022704937)
(0.0015500072 -1.4848952e-05 -0.00027562528)
(0.0016684755 -9.3953539e-06 -0.00014157119)
(0.0017235345 -1.208636e-06 -7.7123027e-05)
(0.0017565157 6.3161337e-06 -2.7593495e-05)
(0.0017824394 1.3639258e-05 2.6432933e-05)
(0.0017781165 2.0019215e-05 9.0336363e-05)
(0.0017433807 2.3669511e-05 0.00013007311)
(0.0017011343 2.4004913e-05 0.0001517024)
(0.0016614393 2.2286577e-05 0.00016023149)
(0.001626433 1.9515179e-05 0.00015999186)
(0.001596093 1.6343772e-05 0.00015425943)
(0.0015698685 1.3191947e-05 0.00014536091)
(0.0015471458 1.0298461e-05 0.00013488943)
(0.0015273508 7.7953419e-06 0.00012389852)
(0.0015099964 5.7458008e-06 0.00011299334)
(0.0014947961 4.2164813e-06 0.00010243267)
(0.0014816329 3.3950588e-06 9.2142143e-05)
(0.0014668904 3.7576147e-06 8.1652501e-05)
(0.0010219959 2.2292229e-14 1.6140135e-05)
(0.0010875413 3.3229379e-14 2.8527584e-05)
(0.0011588806 6.6505951e-14 3.466799e-05)
(0.0012235385 1.4371717e-13 3.5283565e-05)
(0.0012806236 2.8645204e-13 3.0635813e-05)
(0.0013308107 5.134889e-13 2.0643445e-05)
(0.0013751547 8.3699397e-13 4.7800956e-06)
(0.0014151374 1.2453613e-12 -1.8012598e-05)
(0.0014524196 1.6958077e-12 -4.8718563e-05)
(0.0014902735 2.0832259e-12 -8.9625696e-05)
(0.0015350735 2.2531213e-12 -0.00014362012)
(0.0015973735 2.0174518e-12 -0.00020944364)
(0.0017048575 1.3870909e-12 -0.00025844355)
(0.0018202812 9.1591499e-13 -0.00013748553)
(0.0018784966 4.2438291e-13 -8.2951233e-05)
(0.0019178211 -2.5140663e-13 -4.2823119e-05)
(0.001951903 -1.1490007e-12 4.2615962e-06)
(0.0019629859 -2.3023389e-12 6.2250549e-05)
(0.001945154 -3.8639559e-12 0.00010062851)
(0.0019191474 -5.8882468e-12 0.00012393907)
(0.0018934974 -8.3267996e-12 0.00013640358)
(0.0018696635 -1.1101665e-11 0.00014149735)
(0.0018476516 -1.4112842e-11 0.00014170774)
(0.0018271804 -1.7274582e-11 0.00013875065)
(0.0018079889 -2.0549359e-11 0.00013382319)
(0.0017898907 -2.3898986e-11 0.00012775194)
(0.0017727787 -2.7173921e-11 0.00012104715)
(0.0017567173 -3.0173602e-11 0.00011392661)
(0.001741994 -3.259307e-11 0.00010622988)
(0.0017250013 -3.3597208e-11 9.732992e-05)
(0.0010162108 -5.9287377e-05 1.5851586e-05)
(0.0010668261 -6.6920058e-05 2.7742869e-05)
(0.0011172297 -6.2508413e-05 3.3294298e-05)
(0.0011606765 -5.598417e-05 3.3144256e-05)
(0.0011979897 -4.8551919e-05 2.7543678e-05)
(0.0012301959 -4.1148918e-05 1.6402152e-05)
(0.0012584635 -3.4273171e-05 -8.1710164e-07)
(0.0012842597 -2.7971385e-05 -2.5058704e-05)
(0.0013095852 -2.2006437e-05 -5.7595493e-05)
(0.0013381794 -1.5446668e-05 -0.00010098213)
(0.001377277 -6.9398488e-06 -0.00015829543)
(0.0014375254 4.8506886e-06 -0.00022704937)
(0.0015500072 1.4848954e-05 -0.00027562528)
(0.0016684756 9.395355e-06 -0.00014157119)
(0.0017235345 1.2086366e-06 -7.7123025e-05)
(0.0017565157 -6.316134e-06 -2.7593493e-05)
(0.0017824394 -1.3639259e-05 2.6432935e-05)
(0.0017781165 -2.0019217e-05 9.0336364e-05)
(0.0017433807 -2.3669516e-05 0.00013007311)
(0.0017011343 -2.400492e-05 0.0001517024)
(0.0016614393 -2.2286587e-05 0.00016023149)
(0.001626433 -1.9515193e-05 0.00015999186)
(0.001596093 -1.6343789e-05 0.00015425943)
(0.0015698685 -1.3191968e-05 0.00014536091)
(0.0015471458 -1.0298486e-05 0.00013488942)
(0.0015273507 -7.7953707e-06 0.00012389851)
(0.0015099964 -5.7458339e-06 0.00011299333)
(0.001494796 -4.2165188e-06 0.00010243265)
(0.0014816328 -3.3951002e-06 9.214212e-05)
(0.0014668903 -3.7576586e-06 8.1652474e-05)
(0.00094525903 -6.2440013e-05 1.360904e-05)
(0.00093868063 -7.0164935e-05 2.2329143e-05)
(0.00089286949 -6.242528e-05 2.5049818e-05)
(0.00085115472 -5.2918747e-05 2.2142816e-05)
(0.00081915736 -4.3465227e-05 1.4003669e-05)
(0.00079401913 -3.4870688e-05 8.6922245e-07)
(0.0007744086 -2.7473021e-05 -1.7351097e-05)
(0.00076050007 -2.1142639e-05 -4.0992076e-05)
(0.00075385871 -1.5389242e-05 -7.1265085e-05)
(0.00075818468 -9.1210395e-06 -0.00010972918)
(0.00078119362 -9.2473029e-07 -0.00015755687)
(0.00083484004 9.0504859e-06 -0.00020869657)
(0.00095251082 1.5320808e-05 -0.00022933754)
(0.0010516942 4.8463058e-06 -7.2430089e-05)
(0.0010753373 -4.3127113e-06 -3.7680491e-06)
(0.0010763005 -1.153605e-05 4.6965401e-05)
(0.0010611926 -1.7262601e-05 9.1815819e-05)
(0.0010171705 -2.2211359e-05 0.00014506523)
(0.00094701721 -2.3139648e-05 0.00016372456)
(0.00088002442 -2.0840013e-05 0.00016229239)
(0.00082535217 -1.6983429e-05 0.00014847312)
(0.00078355746 -1.2878545e-05 0.00012888812)
(0.00075261054 -9.1636303e-06 0.00010811303)
(0.00073007405 -6.1039673e-06 8.8654801e-05)
(0.00071386176 -3.7498811e-06 7.1653809e-05)
(0.00070231719 -2.0485183e-06 5.7428475e-05)
(0.00069415298 -8.9209237e-07 4.5876912e-05)
(0.00068840127 -2.2665237e-07 3.6646508e-05)
(0.00068419263 -1.3702206e-07 2.9200578e-05)
(0.00067927647 -1.1993949e-06 2.2711715e-05)
(0.00094267498 6.2586466e-05 9.3445816e-06)
(0.00092959519 7.0445543e-05 1.5386983e-05)
(0.00087842676 6.25624e-05 1.6913972e-05)
(0.00083286334 5.2820935e-05 1.4188576e-05)
(0.00079763661 4.3155601e-05 7.1558649e-06)
(0.00076854347 3.4421876e-05 -4.6723346e-06)
(0.00074346091 2.7004631e-05 -2.2653128e-05)
(0.0007219714 2.0436616e-05 -4.9275043e-05)
(0.00070517325 1.3499432e-05 -8.858007e-05)
(0.00069664904 3.9634846e-06 -0.00014743406)
(0.00071053547 -1.0990602e-05 -0.00023831778)
(0.00076338677 -3.0697561e-05 -0.00037372878)
(0.00091302221 -3.2118385e-05 -0.00052375927)
(0.00096561648 3.4671588e-05 -0.00025403542)
(0.00077688503 4.6227393e-05 -0.0001068741)
(0.00073638764 4.1855952e-05 -2.1798845e-05)
(0.00074110282 4.263282e-05 5.6421179e-05)
(0.00073315436 4.725567e-05 0.00020713122)
(0.00065737894 4.2842032e-05 0.00022468718)
(0.00061819865 3.4537477e-05 0.00021211314)
(0.00059739676 2.5323771e-05 0.00017812969)
(0.00059058634 1.7379523e-05 0.00014277266)
(0.00059215351 1.0983941e-05 0.0001117003)
(0.00059820044 6.0342027e-06 8.6375646e-05)
(0.00060650808 2.3207822e-06 6.6432725e-05)
(0.00061582385 -3.8415535e-07 5.1018615e-05)
(0.00062539973 -2.3633446e-06 3.9260993e-05)
(0.00063513579 -3.7805927e-06 3.0445128e-05)
(0.0006444583 -4.4942061e-06 2.3829957e-05)
(0.00065841874 -5.1847334e-06 1.7508888e-05)
(0.0010135887 5.9304189e-05 1.0632298e-05)
(0.0010572771 6.7194868e-05 1.8555157e-05)
(0.0011019477 6.2710966e-05 2.1911149e-05)
(0.0011414424 5.5999135e-05 2.096129e-05)
(0.0011755512 4.8385087e-05 1.5614188e-05)
(0.0012039823 4.0847098e-05 5.1786657e-06)
(0.0012265001 3.3901279e-05 -1.1893978e-05)
(0.0012437004 2.728104e-05 -3.8524804e-05)
(0.0012567545 2.0110034e-05 -7.9947965e-05)
(0.0012685301 1.0400869e-05 -0.00014517251)
(0.0012866995 -5.1046654e-06 -0.00024952449)
(0.00132676 -3.0158072e-05 -0.00041443557)
(0.0014280653 -4.4431012e-05 -0.00064244481)
(0.0014951708 2.5475768e-05 -0.00040871744)
(0.0012909173 4.9970823e-05 -0.00025547378)
(0.0012303025 4.8533673e-05 -0.0001547171)
(0.0012248978 4.9076308e-05 -4.785594e-05)
(0.0012423999 5.3785652e-05 0.00013559645)
(0.0012046587 5.3674794e-05 0.00019386695)
(0.0011929403 4.7749125e-05 0.00021799568)
(0.0011974353 3.9790816e-05 0.00021462712)
(0.0012116511 3.1857127e-05 0.00019965338)
(0.0012304515 2.4656398e-05 0.00018094608)
(0.0012508383 1.8377845e-05 0.00016198143)
(0.0012712283 1.3036645e-05 0.00014433096)
(0.0012908039 8.5846446e-06 0.00012851122)
(0.0013091045 4.8966165e-06 0.00011451747)
(0.0013256093 1.840835e-06 0.00010204469)
(0.0013401798 -7.081747e-07 9.0530458e-05)
(0.0013589181 -2.7567619e-06 7.8522394e-05)
(0.0010193789 2.3288713e-14 1.0929112e-05)
(0.0010780605 3.3013825e-14 1.921792e-05)
(0.0011438655 6.536244e-14 2.2976706e-05)
(0.0012048476 1.4292587e-13 2.2555101e-05)
(0.0012590525 2.8744653e-13 1.7901262e-05)
(0.0013059397 5.1670331e-13 8.3701123e-06)
(0.001345074 8.3977429e-13 -7.5171613e-06)
(0.0013770189 1.2362522e-12 -3.258116e-05)
(0.0014028321 1.6393649e-12 -7.1928517e-05)
(0.0014247644 1.8904133e-12 -0.00013429951)
(0.001449484 1.7701562e-12 -0.00023560697)
(0.0014917869 8.6645727e-13 -0.00039999959)
(0.001573381 -6.4671391e-13 -0.00064257339)
(0.0016346498 -6.5077857e-13 -0.00042769759)
(0.0014370874 -9.3175483e-13 -0.00028574891)
(0.0013765201 -1.8496199e-12 -0.00019236213)
(0.0013699311 -3.1462887e-12 -8.9022744e-05)
(0.0013893849 -5.3018159e-12 8.880487e-05)
(0.0013635785 -8.6154704e-12 0.00015209588)
(0.0013618728 -1.2697705e-11 0.00018500096)
(0.0013760388 -1.7245263e-11 0.0001921138)
(0.0013989046 -2.1939661e-11 0.00018699319)
(0.0014250724 -2.6541353e-11 0.00017695717)
(0.0014515393 -3.092008e-11 0.00016523393)
(0.0014768768 -3.4958141e-11 0.00015329368)
(0.0015004125 -3.829286e-11 0.00014182951)
(0.0015218159 -4.0500654e-11 0.00013105715)
(0.0015408443 -4.2361583e-11 0.00012086418)
(0.0015572856 -4.3888529e-11 0.00011075931)
(0.0015770405 -4.3168926e-11 9.9237031e-05)
(0.0010135887 -5.9304189e-05 1.0632298e-05)
(0.0010572771 -6.7194868e-05 1.8555157e-05)
(0.0011019477 -6.2710966e-05 2.1911149e-05)
(0.0011414424 -5.5999135e-05 2.096129e-05)
(0.0011755512 -4.8385087e-05 1.5614188e-05)
(0.0012039823 -4.0847097e-05 5.1786657e-06)
(0.0012265001 -3.3901278e-05 -1.1893978e-05)
(0.0012437004 -2.7281038e-05 -3.8524804e-05)
(0.0012567545 -2.0110032e-05 -7.9947965e-05)
(0.0012685301 -1.0400866e-05 -0.00014517251)
(0.0012866995 5.1046677e-06 -0.00024952449)
(0.00132676 3.0158073e-05 -0.00041443557)
(0.0014280653 4.4431012e-05 -0.00064244481)
(0.0014951708 -2.5475769e-05 -0.00040871744)
(0.0012909173 -4.9970824e-05 -0.00025547378)
(0.0012303026 -4.8533675e-05 -0.0001547171)
(0.0012248978 -4.9076312e-05 -4.785594e-05)
(0.0012423999 -5.3785658e-05 0.00013559645)
(0.0012046587 -5.3674804e-05 0.00019386695)
(0.0011929402 -4.7749139e-05 0.00021799568)
(0.0011974352 -3.9790835e-05 0.00021462712)
(0.0012116511 -3.1857151e-05 0.00019965337)
(0.0012304515 -2.4656427e-05 0.00018094608)
(0.0012508383 -1.8377879e-05 0.00016198141)
(0.0012712282 -1.3036684e-05 0.00014433094)
(0.0012908038 -8.5846889e-06 0.00012851119)
(0.0013091044 -4.8966658e-06 0.00011451744)
(0.0013256092 -1.8408881e-06 0.00010204465)
(0.0013401797 7.0812053e-07 9.0530412e-05)
(0.001358918 2.7567089e-06 7.8522342e-05)
(0.00094267498 -6.2586466e-05 9.3445816e-06)
(0.00092959519 -7.0445543e-05 1.5386983e-05)
(0.00087842676 -6.25624e-05 1.6913972e-05)
(0.00083286334 -5.2820935e-05 1.4188576e-05)
(0.00079763661 -4.3155601e-05 7.1558649e-06)
(0.00076854347 -3.4421876e-05 -4.6723347e-06)
(0.00074346091 -2.7004631e-05 -2.2653128e-05)
(0.0007219714 -2.0436616e-05 -4.9275043e-05)
(0.00070517325 -1.3499432e-05 -8.858007e-05)
(0.00069664905 -3.9634841e-06 -0.00014743406)
(0.00071053548 1.0990602e-05 -0.00023831778)
(0.00076338678 3.0697561e-05 -0.00037372878)
(0.00091302222 3.2118385e-05 -0.00052375927)
(0.00096561649 -3.4671588e-05 -0.00025403542)
(0.00077688503 -4.6227394e-05 -0.0001068741)
(0.00073638764 -4.1855953e-05 -2.1798845e-05)
(0.00074110282 -4.2632821e-05 5.6421179e-05)
(0.00073315437 -4.7255671e-05 0.00020713122)
(0.00065737894 -4.2842033e-05 0.00022468718)
(0.00061819864 -3.4537479e-05 0.00021211314)
(0.00059739675 -2.5323774e-05 0.00017812968)
(0.00059058633 -1.7379526e-05 0.00014277265)
(0.00059215349 -1.0983944e-05 0.00011170029)
(0.00059820041 -6.0342055e-06 8.6375629e-05)
(0.00060650804 -2.3207856e-06 6.6432703e-05)
(0.00061582381 3.8415014e-07 5.1018589e-05)
(0.00062539968 2.3633364e-06 3.9260963e-05)
(0.00063513572 3.7805839e-06 3.0445092e-05)
(0.00064445822 4.4941996e-06 2.3829917e-05)
(0.00065841865 5.1847276e-06 1.7508844e-05)
(0.00094186343 6.2683301e-05 4.5659622e-07)
(0.00092623588 7.06246e-05 6.5401006e-07)
(0.0008713912 6.2791283e-05 -2.3197378e-08)
(0.00082125651 5.3057669e-05 -1.9618481e-06)
(0.00078015681 4.3371299e-05 -5.6515617e-06)
(0.00074276841 3.4425577e-05 -1.1705295e-05)
(0.00070436607 2.6487057e-05 -2.1464086e-05)
(0.00066071594 1.8545347e-05 -3.7506692e-05)
(0.00060648361 7.7516752e-06 -6.4674408e-05)
(0.00053524906 -1.1227304e-05 -0.0001128581)
(0.00044423892 -4.5593238e-05 -0.00020294973)
(0.00030347308 -9.8953679e-05 -0.00036233387)
(0.00013391589 -0.00014075022 -0.00049846621)
(5.5443558e-05 6.7941094e-05 0.00018608343)
(8.1905447e-05 4.8706922e-05 0.0001725462)
(0.00019967238 3.2151669e-05 0.00014564876)
(0.00026656082 1.5856569e-05 0.00010754365)
(0.00033720508 3.8726528e-06 7.8065548e-05)
(0.00039558359 -4.0251254e-06 5.6361192e-05)
(0.00044520356 -8.8247134e-06 4.0900305e-05)
(0.00048732617 -1.129857e-05 2.9844572e-05)
(0.00052308514 -1.2232607e-05 2.1873568e-05)
(0.00055362956 -1.2323646e-05 1.6123494e-05)
(0.00057993606 -1.2132778e-05 1.2083033e-05)
(0.00060153037 -1.17178e-05 9.4191058e-06)
(0.00063510941 -1.3162798e-05 6.700941e-06)
(0.0010127424 5.9405293e-05 6.6342929e-07)
(0.0010537453 6.7462244e-05 1.181284e-06)
(0.0010945775 6.310314e-05 8.6251972e-07)
(0.0011292641 5.6435716e-05 -7.200213e-07)
(0.0011570853 4.8772511e-05 -4.0686324e-06)
(0.0011766242 4.0939975e-05 -9.9139575e-06)
(0.0011852699 3.3367227e-05 -1.9539618e-05)
(0.0011788101 2.5232497e-05 -3.5658316e-05)
(0.0011502168 1.4024104e-05 -6.3757011e-05)
(0.0010855574 -5.7615268e-06 -0.00011529613)
(0.00096213821 -4.3589378e-05 -0.00021492876)
(0.00071072228 -0.0001116171 -0.00040744176)
(0.00034539238 -0.00019197104 -0.00064299973)
(0.00012900524 9.663243e-05 0.0002429851)
(0.00021983374 7.514734e-05 0.00022638855)
(0.0004244216 5.3694188e-05 0.00020441067)
(0.00055872838 3.5180331e-05 0.00017122259)
(0.00068212364 1.951981e-05 0.00014173184)
(0.00078786543 8.3030361e-06 0.0001177671)
(0.0008765014 3.551324e-07 9.8467581e-05)
(0.00095167135 -5.2282759e-06 8.3099243e-05)
(0.0010161242 -9.0274654e-06 7.0864448e-05)
(0.0010719179 -1.1581838e-05 6.1062844e-05)
(0.0011204334 -1.3425561e-05 5.310805e-05)
(0.0011616016 -1.5197935e-05 4.6394647e-05)
(0.0012145877 -1.766236e-05 3.9593725e-05)
(0.001018528 2.2836293e-14 6.8535765e-07)
(0.0010745617 2.929215e-14 1.2631548e-06)
(0.0011366516 5.6358482e-14 1.0412081e-06)
(0.0011929982 1.2581801e-13 -3.9253561e-07)
(0.0012410948 2.5773577e-13 -3.529278e-06)
(0.001279301 4.6679032e-13 -9.0999074e-06)
(0.0013049218 7.5387688e-13 -1.827895e-05)
(0.0013135587 1.0819287e-12 -3.364986e-05)
(0.0012976089 1.3320507e-12 -6.0452566e-05)
(0.0012418644 1.2658566e-12 -0.00010971369)