/*--------------------------------*- C++ -*----------------------------------*\
| =========                 |                                                 |
| \\      /  F ield         | OpenFOAM: The Open Source CFD Toolbox           |
|  \\    /   O peration     | Version:  2412                                  |
|   \\  /    A nd           | Website:  www.openfoam.com                      |
|    \\/     M anipulation  |                                                 |
\*---------------------------------------------------------------------------*/
FoamFile
{
    version     2.0;
    format      ascii;
    arch        "LSB;label=32;scalar=64";
    class       volVectorField;
    location    "2.9";
    object      flux;
}
// * * * * * * * * * * * * * * * * * * * * * * * * * * * * * * * * * * * * * //

dimensions      [0 1 -1 1 0 0 0];

internalField   nonuniform List<vector> 
5712
(
(-0.307114 0.500396 0.28203)
(-0.375022 0.274913 0.857462)
(-0.702701 0.872567 0.213724)
(-1.09637 0.570778 0.938688)
(-1.06057 0.839838 0.117135)
(-2.06902 0.713393 0.995406)
(-0.734636 1.23984 0.200405)
(-2.20904 1.5335 1.57966)
(-0.757915 1.88572 0.32793)
(-1.77166 2.38468 1.9842)
(-0.931443 0.99827 0.335757)
(-1.53044 0.876213 1.40591)
(-0.712977 0.614872 0.358106)
(-0.941594 0.423215 1.24864)
(-0.3834 0.405389 0.35275)
(-0.388708 0.23075 1.07187)
(-0.49647 0.835506 0.165897)
(-0.55989 0.758398 0.0893389)
(-0.683067 0.753848 0.500032)
(-0.618505 0.749252 0.2348)
(-0.476478 0.959356 0.154779)
(-0.717826 0.9245 0.0707944)
(-0.71081 1.10584 0.540058)
(-0.71262 0.955267 0.216946)
(-0.200218 0.295327 0.215248)
(-0.144242 0.208162 0.157754)
(-0.271643 0.153621 0.635902)
(-0.193556 0.106309 0.462669)
(-0.453592 0.430778 0.144209)
(-0.291925 0.279363 0.112653)
(-0.840606 0.238505 0.639789)
(-0.583913 0.154555 0.482143)
(-0.700705 0.844737 0.323591)
(-0.708566 0.896874 0.117271)
(-0.708862 0.760774 0.243739)
(-0.712003 0.624981 0.0876691)
(-0.160313 0.617174 0.110838)
(-0.145169 0.479693 0.299016)
(-1.63501 0.520684 1.54293)
(-2.02275 0.496753 0.471777)
(-0.8693 0.697613 0.462239)
(-1.16102 0.684402 0.214015)
(-2.1122 1.41473 1.87623)
(-2.59939 1.5571 0.588665)
(-0.979268 1.01703 0.432672)
(-1.20478 1.07381 0.203917)
(-1.22231 0.728688 1.01915)
(-1.59898 0.57354 0.339896)
(-0.972915 0.746646 0.518854)
(-1.34923 0.524851 0.236701)
(-0.5577 0.317105 0.827425)
(-0.707696 0.273263 0.263337)
(-0.113013 0.235017 0.185799)
(-0.0356658 0.343426 0.100918)
(-0.147326 0.116747 0.334513)
(-0.0509039 0.157095 0.134768)
(-0.252659 0.311868 0.164002)
(-0.103697 0.459435 0.104374)
(-0.440184 0.195504 0.351508)
(-0.161179 0.265481 0.131984)
(-0.28689 0.319116 0.221053)
(-0.0952316 0.551649 0.140622)
(-0.292367 0.242831 0.219815)
(-0.0826253 0.395154 0.0916407)
(-0.576336 0.076307 0.394763)
(-0.167573 0.266133 0.142114)
(-0.756419 0.0135756 0.155576)
(-0.23674 0.190863 0.0572993)
(-0.980224 0.721712 0.480462)
(-0.558621 0.868801 0.359568)
(-0.830249 0.753959 0.292289)
(-0.573584 0.857891 0.261032)
(-1.01047 0.913017 0.543798)
(-0.650698 0.932704 0.475913)
(-0.802276 0.926811 0.295113)
(-0.650825 0.907379 0.314834)
(-0.639698 0.66861 0.268893)
(-0.460733 0.808329 0.229062)
(-0.699765 0.670913 0.347556)
(-0.440916 0.798183 0.295616)
(-0.807261 0.753867 0.218406)
(-0.597049 0.849993 0.187219)
(-0.834459 0.739007 0.127393)
(-0.613729 0.843423 0.109092)
(-0.786559 0.931522 0.21942)
(-0.667963 0.892452 0.218883)
(-0.817218 0.930348 0.126116)
(-0.682343 0.883932 0.126134)
(-0.66186 0.626952 0.208006)
(-0.490596 0.809021 0.161893)
(-0.714325 0.57165 0.122035)
(-0.510055 0.804973 0.0853652)
(-0.703335 0.683153 0.229724)
(-0.287201 0.725883 0.129068)
(-0.398959 0.860889 0.229196)
(-0.453193 1.19535 0.25443)
(-0.754893 0.714408 0.302772)
(-0.32985 0.833445 0.23087)
(-0.392984 0.855207 0.326084)
(-0.470869 1.29977 0.433323)
(-0.706772 0.647051 0.168886)
(-0.26894 0.645157 0.0719971)
(-0.419914 0.857081 0.147834)
(-0.448914 1.13833 0.1535)
(-0.731441 0.622225 0.0960406)
(-0.271167 0.593529 0.0333881)
(-0.442792 0.856241 0.06783)
(-0.454237 1.11044 0.0589098)
(-0.109144 0.168386 0.209088)
(-0.122273 0.211022 0.426105)
(-0.0382488 0.457677 0.153644)
(-0.0747428 0.739119 0.482948)
(-0.315024 0.203076 0.226006)
(-0.368904 0.226047 0.432448)
(-0.128351 0.568505 0.183372)
(-0.241637 0.833392 0.515096)
(-0.511721 0.243546 0.300175)
(-0.607245 0.253267 0.431217)
(-0.22732 0.697862 0.25531)
(-0.40544 0.946065 0.526088)
(-0.690159 0.98308 0.340551)
(-0.365688 1.10272 0.416742)
(-0.690687 0.817933 0.256488)
(-0.820483 0.740526 0.25615)
(-0.408383 0.990938 0.316747)
(-0.27021 1.12526 0.274827)
(-0.43202 0.965619 0.296746)
(-0.483383 0.820203 0.405286)
(-0.833122 0.686451 0.470497)
(-0.519405 1.11497 0.69258)
(-0.38957 1.03156 0.37067)
(-0.506624 0.943504 0.293701)
(-0.556683 0.783873 0.276323)
(-0.533646 0.792163 0.350424)
(-0.661429 1.45824 0.562641)
(-0.121458 0.0616025 0.531512)
(-0.124993 0.0810409 0.514641)
(-0.0745856 0.162939 0.621649)
(-0.0798073 0.330804 0.625448)
(-0.360362 0.0876611 0.519814)
(-0.346617 0.120927 0.520928)
(-0.229088 0.218058 0.624526)
(-0.233603 0.389869 0.621126)
(-0.540754 0.132961 0.481144)
(-0.500052 0.128487 0.49975)
(-0.33811 0.294311 0.60044)
(-0.341424 0.468651 0.606219)
(-0.384533 1.10389 0.346357)
(-0.431267 1.11396 0.36762)
(-0.607876 0.909626 0.332081)
(-0.645072 0.880772 0.350342)
(-0.666638 0.757252 0.401614)
(-0.62829 0.682675 0.400427)
(-0.785454 0.548471 0.46757)
(-0.724109 0.490887 0.453696)
(-0.532665 0.415313 0.5886)
(-0.531941 0.612238 0.594453)
(-0.514604 0.975434 0.316417)
(-0.565392 0.891139 0.34658)
(-0.661748 0.894286 0.353493)
(-0.614541 0.848281 0.37466)
(-0.618792 0.747693 0.391333)
(-0.526805 0.69876 0.419386)
(-0.549386 0.635396 0.448609)
(-0.448045 0.567492 0.489375)
(-0.602509 0.496232 0.589533)
(-0.484385 0.675187 0.637769)
(-0.563148 0.914415 0.368811)
(-0.312416 0.976862 0.251423)
(-0.441215 0.944215 0.298818)
(-0.434335 1.03935 0.302887)
(-0.622282 0.929131 0.417086)
(-0.730961 0.862407 0.477628)
(-0.635587 0.939947 0.339217)
(-0.83277 0.904614 0.451405)
(-0.370432 0.818498 0.272036)
(-0.369971 0.829764 0.278231)
(-0.508321 0.808105 0.345578)
(-0.242348 0.805996 0.24755)
(-0.42448 0.959266 0.124825)
(-0.674021 1.06398 0.218753)
(-0.437278 0.950669 0.0510303)
(-0.716913 1.05204 0.0813057)
(-0.644166 0.950173 0.210011)
(-1.01855 0.940997 0.335033)
(-0.664214 0.937402 0.0824375)
(-1.03903 0.932236 0.125549)
(-0.356747 0.810786 0.103321)
(-0.588388 0.823466 0.190406)
(-0.367226 0.820116 0.0382443)
(-0.635135 0.828792 0.0690732)
(-0.437859 0.69651 0.257374)
(-0.331431 0.690114 0.220288)
(-0.555681 0.475768 0.262073)
(-0.255759 0.567113 0.163306)
(-0.47664 0.702192 0.361884)
(-0.190834 0.679712 0.257429)
(-0.52648 0.488432 0.41045)
(-0.140438 0.584402 0.272923)
(-0.452465 0.67782 0.11897)
(-0.46938 0.680653 0.14039)
(-0.580666 0.470484 0.148834)
(-0.302209 0.568714 0.0839782)
(-0.406521 0.683868 0.092539)
(-0.539023 0.673133 0.101736)
(-0.532223 0.466221 0.103507)
(-0.382886 0.555498 0.0786127)
(-0.118071 0.0711426 0.445818)
(-0.110871 0.0590234 0.292656)
(-0.0972998 0.0441554 0.0952555)
(-0.0760682 0.0402278 0.482974)
(-0.074984 0.0351903 0.302957)
(-0.0663742 0.0347671 0.104556)
(-0.321786 0.105951 0.439712)
(-0.281594 0.0770756 0.286425)
(-0.249504 0.0612164 0.0968799)
(-0.207918 0.0933211 0.483256)
(-0.17664 0.0845253 0.302338)
(-0.151349 0.0742882 0.102144)
(-0.42382 0.114346 0.42119)
(-0.365372 0.113449 0.270087)
(-0.338024 0.12212 0.0903558)
(-0.298915 0.168618 0.476246)
(-0.245294 0.149166 0.298146)
(-0.225121 0.138278 0.102342)
(-0.391501 1.07867 0.261352)
(-0.324411 0.977016 0.14786)
(-0.311678 0.90306 0.0378911)
(-0.605884 0.891937 0.305061)
(-0.461359 0.849263 0.207984)
(-0.380735 0.810645 0.0674679)
(-0.538766 0.606145 0.347129)
(-0.403601 0.588509 0.244661)
(-0.318834 0.579789 0.0824139)
(-0.59571 0.425009 0.381929)
(-0.475892 0.409095 0.247763)
(-0.407049 0.403453 0.0809238)
(-0.451626 0.273817 0.462375)
(-0.313074 0.206682 0.289346)
(-0.238042 0.171515 0.102293)
(-0.731935 0.852357 0.289884)
(-0.605613 0.799061 0.15786)
(-0.544999 0.758435 0.0513421)
(-0.531938 0.844568 0.273438)
(-0.429556 0.799646 0.175973)
(-0.362317 0.773051 0.060667)
(-0.463701 0.625431 0.304468)
(-0.355819 0.565831 0.1999)
(-0.285473 0.532511 0.0678969)
(-0.408885 0.446509 0.361134)
(-0.312024 0.400611 0.231173)
(-0.252939 0.380303 0.0785898)
(-0.432992 0.291215 0.438229)
(-0.264339 0.219784 0.254092)
(-0.168875 0.182311 0.0876191)
(-0.451064 1.11199 -0.0197424)
(-0.737767 1.15881 0.0394817)
(-0.381026 1.18046 0.0175221)
(-0.547984 1.0889 0.105038)
(-0.363312 1.08349 0.0691387)
(-0.750805 1.08822 0.0705166)
(-0.303258 1.28943 0.178816)
(-0.614314 1.11551 0.157574)
(-0.00874894 0.710462 0.0238271)
(-0.0695392 0.78486 0.0390061)
(0.00848406 0.70693 0.0252541)
(-0.0406938 0.697926 0.0409273)
(-0.143129 0.943196 0.0132711)
(-0.267903 0.832767 0.0376608)
(-0.0898265 0.920384 0.0247859)
(-0.160944 0.728198 0.055286)
(-0.075948 1.01309 0.0753831)
(-0.160425 1.06068 0.0451333)
(-0.436973 0.871171 0.152722)
(-0.654198 0.983155 0.10779)
(-0.346678 1.14572 0.0701131)
(-0.254523 1.00117 0.115194)
(-0.457758 1.12992 0.116434)
(-0.400073 1.17092 0.0341839)
(-0.610089 1.19443 0.230377)
(-0.652307 1.27796 0.0738158)
(0.0199053 0.968966 -0.160302)
(0.212632 0.992997 -0.021475)
(-0.332514 0.844776 0.0291259)
(-0.234749 0.831703 0.0299007)
(-0.255271 0.963855 0.00298401)
(-0.147342 0.929179 0.00976824)
(-0.064151 0.654195 0.414279)
(-0.0411849 0.364917 0.186979)
(-0.050858 0.608955 0.110234)
(-0.0308565 0.404556 0.0671295)
(-0.157407 0.634853 0.408412)
(-0.0527402 0.356748 0.189968)
(-0.0777538 0.585614 0.120132)
(-0.00996079 0.390911 0.0791853)
(-0.398416 0.580994 0.396864)
(-0.123398 0.329646 0.209425)
(-0.296381 0.543976 0.162809)
(-0.0932966 0.371283 0.118479)
(-0.33444 0.533406 0.123939)
(-0.101311 0.386064 0.0828251)
(-0.378291 0.511535 0.070837)
(-0.125872 0.385421 0.0649317)
(-0.487571 0.895866 0.52289)
(-0.485275 0.712691 0.457869)
(-0.380416 0.872896 0.2298)
(-0.483023 0.713926 0.293757)
(-0.728686 1.0004 0.57911)
(-0.660002 0.900933 0.541251)
(-0.597554 0.99792 0.281912)
(-0.629712 0.881923 0.338608)
(-0.287483 0.804156 0.212124)
(-0.381312 0.561886 0.256167)
(-0.335381 0.840567 0.448793)
(-0.351342 0.545794 0.372282)
(-0.356511 0.886268 0.146686)
(-0.48197 0.71393 0.191935)
(-0.374821 0.908076 0.0852977)
(-0.487607 0.711167 0.11207)
(-0.570835 1.01803 0.188787)
(-0.619581 0.873601 0.220908)
(-0.591683 1.03313 0.109715)
(-0.625197 0.868173 0.127034)
(-0.254766 0.779562 0.121558)
(-0.388212 0.567169 0.169227)
(-0.247309 0.77244 0.0691776)
(-0.394195 0.566192 0.103144)
(-0.0444727 0.475153 0.191583)
(-0.0705541 0.320657 0.140343)
(-0.315172 0.422947 0.21871)
(-0.189445 0.257508 0.152805)
(-0.0444456 0.44037 0.327947)
(-0.0622629 0.28566 0.203217)
(-0.276185 0.397121 0.294091)
(-0.16149 0.234277 0.201583)
(-0.0430186 0.484922 0.114775)
(-0.0633203 0.340892 0.0957316)
(-0.333595 0.43395 0.151776)
(-0.20808 0.270518 0.104786)
(-0.0549857 0.487167 0.0654428)
(-0.0679518 0.354613 0.0605297)
(-0.337911 0.436462 0.0958852)
(-0.219533 0.278296 0.0642211)
(0.00503942 0.103453 0.488245)
(0.0102659 0.0550108 0.337295)
(-0.020498 0.187083 0.246947)
(-0.0155638 0.0981336 0.265278)
(0.0282217 0.107102 0.484433)
(0.0483713 0.0640638 0.335512)
(-0.0356557 0.189231 0.244974)
(-0.0274657 0.109292 0.260615)
(-0.0572425 0.117093 0.490546)
(-0.0172212 0.0867487 0.32087)
(-0.113311 0.186921 0.250801)
(-0.103758 0.127907 0.242554)
(0.305165 0.541007 0.527101)
(0.155817 0.905651 0.503512)
(0.174297 0.346671 0.497265)
(0.107027 0.311614 0.387887)
(-0.0140795 0.211634 0.232623)
(0.281899 0.928306 0.307519)
(0.414683 0.598831 0.376173)
(0.194109 0.332248 0.404488)
(0.1883 0.293955 0.386213)
(-0.0132638 0.160742 0.282174)
(-0.369588 0.894916 0.43585)
(-0.276317 0.649796 0.395866)
(-0.235568 0.475272 0.333312)
(-0.249233 0.343646 0.275166)
(-0.158643 0.196965 0.187845)
(0.0194 0.0395273 0.29982)
(0.0150405 0.0394369 0.306899)
(-0.00999556 0.0635687 0.307217)
(-0.0160099 0.0607836 0.382492)
(0.0537594 0.049783 0.296774)
(0.0622887 0.0385139 0.295033)
(-0.0291596 0.0795566 0.299408)
(-0.0406451 0.0731042 0.372854)
(0.0415765 0.0713237 0.279916)
(0.0691327 0.0642132 0.274753)
(-0.070705 0.0989943 0.283261)
(-0.0893018 0.0884995 0.354775)
(0.126134 0.946504 0.346188)
(0.0695824 0.91561 0.327662)
(0.323688 0.606231 0.328708)
(0.233714 0.562577 0.284883)
(0.16834 0.379204 0.252722)
(0.12266 0.372455 0.256294)
(0.145882 0.288502 0.250668)
(0.122589 0.283257 0.266079)
(-0.0289675 0.146115 0.247321)
(-0.0666063 0.131706 0.332739)
(-0.194848 0.825428 0.253328)
(-0.133877 0.71719 0.287488)
(0.0178233 0.604683 0.216151)
(0.0910069 0.528677 0.246995)
(0.0193723 0.451877 0.197818)
(0.0754801 0.419861 0.228024)
(-0.0302879 0.315678 0.200246)
(0.0157319 0.31135 0.243691)
(-0.0545374 0.181817 0.189993)
(-0.0756658 0.213144 0.305407)
(-0.165939 0.570475 0.190014)
(-0.183948 0.459603 0.152632)
(-0.393786 0.574467 0.129861)
(-0.251401 0.432438 0.0683838)
(-0.343458 0.724678 0.286999)
(-0.337409 0.542857 0.218456)
(-0.518173 0.732837 0.231808)
(-0.407207 0.531529 0.145548)
(-0.310964 0.468835 0.102208)
(-0.195343 0.386062 0.0593764)
(-0.110792 0.464274 0.151411)
(-0.139039 0.412821 0.137588)
(-0.46594 0.591686 0.169425)
(-0.198094 0.411302 0.0731358)
(-0.499248 0.595328 0.0792278)
(-0.182134 0.414626 0.0435492)
(-0.5954 0.766338 0.217546)
(-0.391463 0.543856 0.123735)
(-0.632943 0.762814 0.0897811)
(-0.374639 0.546634 0.0617717)
(-0.373119 0.471463 0.140066)
(-0.144821 0.361618 0.0607147)
(-0.404895 0.478049 0.0713946)
(-0.125953 0.375681 0.036124)
(-0.24876 0.330161 0.0906614)
(-0.210045 0.310665 0.109923)
(-0.205525 0.204079 0.115467)
(-0.354455 0.290874 0.196522)
(-0.130529 0.335273 0.136565)
(-0.171393 0.326561 0.168461)
(-0.14185 0.207871 0.140968)
(-0.300769 0.287625 0.256878)
(-0.272617 0.328941 0.105847)
(-0.199206 0.301613 0.0796097)
(-0.245727 0.197593 0.0836444)
(-0.405486 0.304868 0.139477)
(-0.324101 0.346072 0.0488322)
(-0.191174 0.303632 0.0206628)
(-0.283474 0.206517 0.0201933)
(-0.40411 0.301258 0.0368366)
(0.0228372 0.10605 0.245228)
(0.0323507 0.0853892 0.112445)
(0.0387951 0.0670622 0.0322436)
(-0.0103966 0.408105 0.268146)
(0.00583584 0.198587 0.071387)
(0.0085859 0.151795 0.0187823)
(0.0852419 0.0964563 0.23657)
(0.108676 0.0912889 0.115898)
(0.119228 0.0779397 0.0360286)
(-0.016856 0.423736 0.265126)
(0.0254384 0.229365 0.073107)
(0.0320258 0.184732 0.0201175)
(0.10215 0.118295 0.212353)
(0.154861 0.126868 0.104556)
(0.177704 0.127717 0.0268685)
(-0.0494684 0.440308 0.250819)
(0.0448817 0.27998 0.0672939)
(0.0648018 0.245513 0.0151399)
(0.0418331 0.836713 0.221014)
(0.0646324 0.769072 0.120038)
(0.0590325 0.718551 0.0313195)
(0.187902 0.540695 0.190995)
(0.205424 0.516277 0.101903)
(0.192387 0.498293 0.028195)
(0.146251 0.395198 0.192801)
(0.177246 0.385772 0.0963318)
(0.173391 0.379914 0.0272953)
(0.152766 0.350833 0.195562)
(0.201872 0.336232 0.0920811)
(0.211991 0.329916 0.0211436)
(-0.0338627 0.49994 0.236237)
(0.0654379 0.362932 0.0588817)
(0.0643175 0.32588 0.00996048)
(-0.156164 0.620741 0.245775)
(-0.0737988 0.565712 0.128687)
(-0.0404423 0.527528 0.0395806)
(0.0625639 0.477535 0.21681)
(0.115987 0.442967 0.118018)
(0.133273 0.421991 0.0387941)
(0.0694666 0.424192 0.201049)
(0.130025 0.388287 0.105088)
(0.145761 0.360764 0.0344201)
(0.0381346 0.410614 0.199202)
(0.113789 0.371143 0.0809026)
(0.130231 0.349427 0.021665)
(-0.0892199 0.641438 0.243498)
(0.0441542 0.4507 0.0598093)
(0.0545676 0.412824 0.0188239)
(-0.00340456 0.188857 0.0737765)
(0.000281075 0.111516 0.028448)
(0.00169737 0.084008 0.0131869)
(0.0036895 0.0839849 4.00848e-05)
(0.00441152 0.214257 0.0298477)
(0.00447327 0.121719 0.0121757)
(0.00523951 0.0879201 0.00615912)
(0.00554227 0.0861607 0.00110451)
(-0.00933992 0.1826 0.0764134)
(0.000246183 0.109424 0.0305485)
(0.00451578 0.0836083 0.0157278)
(0.00972311 0.0849948 0.00273654)
(0.0101182 0.212434 0.0361937)
(0.0102913 0.121977 0.0164161)
(0.0114859 0.0887236 0.0103561)
(0.0127024 0.0865447 0.00485002)
(-0.0189695 0.171498 0.0879955)
(-0.00240457 0.106243 0.036636)
(0.00499389 0.08385 0.0206339)
(0.0149363 0.0832002 0.00624851)
(0.000976465 0.206116 0.0625678)
(0.00848571 0.122953 0.0325688)
(0.0106604 0.0907411 0.0187974)
(0.0147663 0.0843487 0.00893025)
(0.00148577 0.217151 0.046247)
(0.00557401 0.12869 0.0293035)
(0.00455349 0.092037 0.0151128)
(0.00506199 0.0904254 0.00525373)
(-0.0072718 0.223772 0.0483545)
(-0.000455647 0.134663 0.0335449)
(0.00228535 0.0964221 0.0203997)
(0.00527852 0.0944598 0.0116842)
(-0.0468713 0.183502 0.0740619)
(-0.0138777 0.113203 0.0353987)
(-0.00404989 0.0870122 0.0184547)
(0.00911921 0.0841175 0.00190826)
(-0.0706432 0.141406 0.0710662)
(-0.0220582 0.0956139 0.0327225)
(-0.011232 0.0796245 0.0188792)
(0.0126944 0.0792208 -0.00187212)
(-0.0400239 0.155524 0.0933191)
(-0.0106169 0.100335 0.0393125)
(-0.000830754 0.0820161 0.022355)
(0.0146714 0.0765268 0.00478359)
(-0.0578201 0.123744 0.0841968)
(-0.0176541 0.0872619 0.0347447)
(-0.00955604 0.0755442 0.020459)
(0.0127389 0.075101 -0.00317991)
(-0.0432084 0.199978 0.0562212)
(-0.0133431 0.122496 0.0310564)
(-0.00409152 0.0910636 0.0166065)
(0.00767829 0.0890091 0.0022719)
(-0.0777453 0.152223 0.0552522)
(-0.024439 0.102101 0.0290294)
(-0.0119575 0.0827004 0.0177678)
(0.0156442 0.0820213 0.00293227)
(-0.0457329 0.209327 0.0418132)
(-0.0155852 0.128985 0.027144)
(-0.00418448 0.0946179 0.0175906)
(0.00999552 0.0913392 0.0104497)
(-0.081378 0.158271 0.0383657)
(-0.025836 0.106829 0.0243584)
(-0.0126599 0.0853779 0.0170154)
(0.0171261 0.0830261 0.010001)
(-0.00348557 0.13748 0.0951748)
(-0.000239326 0.0941905 0.0347564)
(0.000732822 0.0776 0.0158664)
(0.00336037 0.0789634 -0.00408672)
(-0.00317793 0.0813856 0.100875)
(-0.000154334 0.0731366 0.0340145)
(0.000241699 0.0691915 0.0169945)
(0.00351596 0.0726762 -0.0117308)
(-0.0096089 0.132251 0.0950163)
(-0.000898746 0.092245 0.0352887)
(0.00205719 0.0772657 0.0172205)
(0.00887038 0.0788685 -0.00270759)
(-0.00589718 0.0802831 0.096889)
(0.000565474 0.0727088 0.0328514)
(0.00123047 0.0689887 0.016944)
(0.00958361 0.0730762 -0.0109078)
(-0.032499 0.12412 0.095901)
(-0.00814685 0.0891706 0.0363602)
(-0.000783052 0.0768031 0.0198616)
(0.0137683 0.0781145 -0.00057072)
(-0.02592 0.0826811 0.0868759)
(-0.00532982 0.0736849 0.0297884)
(-0.000549889 0.0689632 0.0168201)
(0.0152577 0.0745899 -0.00804556)
(-0.0180931 0.11465 0.0890091)
(-0.00195054 0.0842422 0.0350479)
(0.00303234 0.0744948 0.0220184)
(0.0148449 0.0776495 0.00543882)
(-0.0123028 0.0828372 0.0956679)
(-0.000660017 0.0734907 0.0337379)
(0.000887659 0.0698696 0.0217776)
(0.0147392 0.0745251 -0.00802807)
(-0.0497183 0.10039 0.0698045)
(-0.0138044 0.0789274 0.0273077)
(-0.00650588 0.0705822 0.0173951)
(0.0171124 0.0723001 0.00159989)
(0.00122541 0.017639 0.0845368)
(0.00123552 0.0529222 0.0250615)
(0.00102403 0.0535231 0.0124112)
(0.00272607 0.016773 -0.0109307)
(0.00536807 -0.0595148 0.0334979)
(0.00240322 0.0414024 0.0089161)
(0.00148149 0.0454194 0.0037813)
(0.00165022 0.0161533 -0.00269692)
(-1.02499e-05 0.0248016 0.0831874)
(0.00232356 0.0555509 0.0253933)
(0.00209129 0.0545416 0.0128928)
(0.00723069 0.0177804 -0.00981261)
(0.0128611 -0.048221 0.0340092)
(0.0061719 0.0445264 0.00937803)
(0.0037473 0.0462857 0.00424107)
(0.00439915 0.0164414 -0.00210887)
(-0.00553699 0.0361915 0.0776822)
(0.00149691 0.0594465 0.0247124)
(0.00236121 0.0555921 0.0135604)
(0.0113291 0.0177181 -0.00773876)
(0.0166496 -0.0309553 0.0325292)
(0.00877287 0.0494496 0.00945158)
(0.00561887 0.0474013 0.00481436)
(0.00677089 0.0165288 -0.00124732)
(-0.00784024 0.0513298 0.0652582)
(0.00188245 0.0640817 0.0212112)
(0.00299891 0.0568621 0.0131012)
(0.0150484 0.0188455 -0.00545777)
(0.015832 -0.0120303 0.0285975)
(0.0101619 0.055269 0.00838473)
(0.00647035 0.0490807 0.00518651)
(0.00808486 0.0171308 -0.000131008)
(-0.0179648 0.0716144 0.0571651)
(-0.000145759 0.0701113 0.0198539)
(0.000343254 0.0592461 0.0130124)
(0.0149456 0.0210983 -0.00233912)
(0.0064632 0.00431631 0.02555)
(0.00897423 0.0604098 0.00848511)
(0.00529887 0.0507095 0.00598248)
(0.00763024 0.0176275 0.00151513)
(-0.052119 0.0848054 0.0451927)
(-0.00643641 0.0769217 0.0194294)
(-0.00337097 0.0609215 0.011493)
(0.0145432 0.0195464 0.000683249)
(-0.0166701 -0.00326693 0.0233043)
(0.00281619 0.0655554 0.0118805)
(0.00224561 0.0540882 0.00749402)
(0.00578815 0.0183862 0.00412167)
(-0.0357376 0.0833662 0.0483205)
(-0.00237841 0.0739583 0.0176077)
(-0.00172002 0.0594289 0.0111352)
(0.0146412 0.0196522 -0.000815737)
(-0.00806865 -1.24539e-05 0.0231306)
(0.00594173 0.0636707 0.00949154)
(0.00375901 0.0522664 0.00652793)
(0.00681297 0.0178835 0.00292878)
(-0.0658128 0.0832771 0.040009)
(-0.0120583 0.0791193 0.020926)
(-0.00594465 0.0626787 0.0127766)
(0.0156532 0.0183813 0.00324172)
(-0.0224771 -0.00885857 0.023723)
(-0.000588052 0.0673824 0.0141845)
(0.000560201 0.0556903 0.00896499)
(0.00521187 0.0184888 0.00572744)
(-0.075357 0.0827184 0.030969)
(-0.0181987 0.0821924 0.0202785)
(-0.0090882 0.0656541 0.0139069)
(0.0155 0.0191139 0.0085606)
(-0.0281264 -0.00183322 0.0219437)
(-0.00500945 0.0705379 0.015386)
(-0.00163442 0.0579085 0.010671)
(0.00442784 0.0190997 0.00811271)
(0.00151765 0.0849294 0.000590585)
(0.000739159 0.0676627 0.000529763)
(0.00040461 0.0486296 0.000364168)
(0.000249523 0.0291865 0.000246336)
(0.000187051 0.00972086 0.000190664)
(0.00205885 0.0850488 0.000356541)
(0.00111652 0.0677196 0.000275796)
(0.000641342 0.0486824 0.000185787)
(0.000404478 0.0292178 0.000126209)
(0.000305316 0.00973086 9.84096e-05)
(0.00326119 0.086439 0.00155419)
(0.00157267 0.0682115 0.00112413)
(0.000856901 0.0488853 0.0007252)
(0.000530131 0.0293038 0.000480806)
(0.000400388 0.00975497 0.000369323)
(0.00544009 0.0863006 0.00170287)
(0.00303747 0.0683572 0.00111108)
(0.00177271 0.0490086 0.00069028)
(0.00113071 0.0293731 0.000451857)
(0.000858415 0.00977682 0.000345796)
(0.00462821 0.0873846 0.00381087)
(0.00226045 0.0688116 0.00257924)
(0.00125448 0.0491704 0.00162391)
(0.000785736 0.0294346 0.0010723)
(0.000597157 0.00979297 0.000823954)
(0.00780218 0.0867186 0.00767312)
(0.00431379 0.0692571 0.00479083)
(0.00254185 0.0494998 0.00296199)
(0.00163488 0.0296136 0.00194104)
(0.00124635 0.00984915 0.00148614)
(0.00265396 0.0896869 0.00792739)
(0.00141979 0.0704686 0.0050628)
(0.000837635 0.0501933 0.00316761)
(0.000541142 0.0299691 0.0020876)
(0.000413244 0.00995833 0.00160391)
(0.00152491 0.0913499 0.0086592)
(0.000776269 0.071618 0.00534957)
(0.000445029 0.0508937 0.00330735)
(0.000285056 0.0303342 0.00217164)
(0.000216665 0.010071 0.00166854)
(0.00408237 0.0897453 0.00510904)
(0.00187801 0.0700244 0.0034608)
(0.00104626 0.0498122 0.00219771)
(0.000660234 0.0297523 0.00145487)
(0.000499815 0.00988941 0.00111448)
(0.000968891 0.0924756 0.00404153)
(0.000283672 0.0704222 0.00272213)
(0.000123969 0.0498827 0.00173031)
(6.97089e-05 0.0297669 0.00114901)
(5.06075e-05 0.00989184 0.000881588)
(0.00595465 0.0882458 0.00528541)
(0.00308509 0.0694597 0.00344873)
(0.00178904 0.0494702 0.00215484)
(0.00114608 0.0295733 0.00142362)
(0.000873153 0.00983353 0.00109256)
(0.00167917 0.0918585 0.00412252)
(0.000690633 0.0700638 0.00244017)
(0.000368852 0.0496737 0.00149676)
(0.000228054 0.0296584 0.000985841)
(0.000170467 0.00985789 0.000753567)
(0.00149662 0.0909212 0.00575991)
(0.00041099 0.0706994 0.00406147)
(0.000166606 0.0502287 0.00260547)
(9.10768e-05 0.0299718 0.00173136)
(6.57666e-05 0.00995771 0.00133171)
(0.00101162 0.0935876 0.00560476)
(0.000317488 0.0710904 0.00375837)
(0.000147773 0.0502868 0.00238408)
(8.7269e-05 0.0299792 0.00158093)
(6.47969e-05 0.00995798 0.00121476)
(0.00145323 0.0920328 0.00772206)
(0.000378255 0.0719024 0.00488646)
(0.000145018 0.0509878 0.00303507)
(7.73824e-05 0.0303702 0.00199521)
(5.38984e-05 0.0100811 0.00153243)
(0.000749736 0.0948911 0.00742026)
(0.000114785 0.0722593 0.00471304)
(1.82133e-05 0.0510256 0.00293138)
(1.64233e-06 0.0303688 0.0019275)
(-1.99386e-06 0.0100792 0.00147848)
(0.00123735 0.0849338 0.00019181)
(0.000558409 0.0676393 0.000416311)
(0.000292921 0.048577 0.000301776)
(0.000175935 0.0291528 0.000206044)
(0.000130434 0.00970997 0.000160081)
(0.00113777 0.0864196 -5.18982e-05)
(0.000523136 0.0677096 0.000155059)
(0.000276717 0.0485514 0.000118795)
(0.000166538 0.0291333 8.28842e-05)
(0.000123536 0.00970355 6.54851e-05)
(0.00283888 0.0859597 0.000765907)
(0.00126434 0.0680832 0.000743146)
(0.000665503 0.048773 0.00049951)
(0.000401565 0.0292394 0.000335582)
(0.000299402 0.00973458 0.00026027)
(0.0026397 0.0873524 7.34505e-05)
(0.00118746 0.0681072 0.000230589)
(0.000630382 0.048724 0.000164816)
(0.000380808 0.0292088 0.000113006)
(0.000282791 0.00972502 8.92964e-05)
(0.00370137 0.0875383 0.00136103)
(0.00154664 0.0686816 0.00115277)
(0.000807635 0.0490284 0.000753124)
(0.000486171 0.0293524 0.000504932)
(0.000362826 0.00976672 0.000392924)
(0.00317104 0.0892953 0.000797459)
(0.00145973 0.0686781 0.000606079)
(0.000793887 0.0489611 0.000378816)
(0.000484629 0.0293131 0.000248097)
(0.000363826 0.0097546 0.000193111)
(0.00426846 0.0898872 0.00441186)
(0.0021811 0.069338 0.0028446)
(0.00125663 0.0493103 0.0017591)
(0.000799713 0.0294806 0.00116491)
(0.000609772 0.00980359 0.000899914)
(0.00209708 0.0912463 0.00219659)
(0.00106605 0.0692114 0.00141366)
(0.000603528 0.0492128 0.000864965)
(0.000375485 0.0294297 0.00057036)
(0.000286043 0.00978764 0.000441732)
(0.00245728 0.0913528 0.00567613)
(0.00131225 0.0697524 0.00313858)
(0.000771089 0.0495087 0.00187606)
(0.00049719 0.0295753 0.00122432)
(0.000379638 0.00983191 0.000936605)
(-0.0203217 0.318929 0.0908565)
(-0.0242337 0.492016 0.157554)
(-0.0558896 0.337321 0.0853617)
(-0.0686725 0.507349 0.152698)
(-0.0853974 0.367911 0.079029)
(-0.109612 0.532429 0.141819)
(-0.104049 0.404469 0.0766441)
(-0.14519 0.57495 0.13609)
(-0.104857 0.445828 0.0843349)
(-0.146078 0.647435 0.156639)
(-0.0944776 0.416256 0.0486976)
(-0.123297 0.513944 0.0730363)
(-0.0893687 0.425681 0.0687363)
(-0.106951 0.547869 0.109992)
(-0.105132 0.415159 0.0316926)
(-0.141403 0.509136 0.0433793)
(-0.107738 0.410828 0.0117896)
(-0.146683 0.508473 0.0169848)
(-0.0187229 0.255156 0.268955)
(-0.00408423 0.0455932 0.0646077)
(-0.000885987 0.0100047 0.014778)
(-0.000187389 0.00224286 0.00326445)
(-4.53357e-05 0.000394543 0.000814854)
(-0.00831133 0.303444 0.071503)
(-0.00292764 0.0836426 0.0189197)
(-0.000331129 0.0203207 0.00505696)
(-9.2069e-05 0.0045982 0.0011297)
(-3.61106e-05 0.000801866 0.000250857)
(-0.0604449 0.261806 0.267418)
(-0.013284 0.0451116 0.0633354)
(-0.00289852 0.00971416 0.014378)
(-0.000617746 0.00215742 0.00315242)
(-0.000150538 0.000377314 0.000783201)
(-0.0216335 0.31055 0.0738402)
(-0.00460634 0.0843242 0.0214688)
(-0.000933351 0.0202184 0.00526598)
(-0.000181961 0.00451496 0.00121776)
(-3.90074e-05 0.000784484 0.000304017)
(-0.106659 0.273958 0.258967)
(-0.0235779 0.0454365 0.060267)
(-0.00517449 0.00953742 0.0135297)
(-0.00111275 0.00208973 0.00294289)
(-0.000273534 0.000362964 0.000726899)
(-0.0376454 0.324182 0.0716803)
(-0.00888808 0.0860891 0.0207851)
(-0.00195294 0.0202627 0.00506002)
(-0.000423164 0.00447027 0.00115829)
(-0.000101725 0.000771056 0.000286423)
(-0.153513 0.288781 0.24418)
(-0.0341266 0.0456385 0.0556949)
(-0.00756249 0.00933747 0.0123855)
(-0.00164488 0.00202559 0.00268307)
(-0.000409358 0.000350737 0.000662051)
(-0.0527222 0.341772 0.0690777)
(-0.0135519 0.0883398 0.0195878)
(-0.00318052 0.0204675 0.00467281)
(-0.000724671 0.00448164 0.00105237)
(-0.000182688 0.000770617 0.000256527)
(-0.214949 0.301772 0.215402)
(-0.0491475 0.0458159 0.0483632)
(-0.0111232 0.00931048 0.0107408)
(-0.00246357 0.00202963 0.00233517)
(-0.000623727 0.000353589 0.000579971)
(-0.070009 0.358504 0.0646036)
(-0.0203203 0.0903901 0.0174785)
(-0.00505679 0.0209064 0.00407402)
(-0.00119071 0.0046014 0.000905879)
(-0.000308356 0.000795633 0.000218753)
(-0.292 0.296678 0.121974)
(-0.0728617 0.0534969 0.0292187)
(-0.0174032 0.0120558 0.00671533)
(-0.00401088 0.00279095 0.001493)
(-0.00104683 0.00050339 0.000377056)
(-0.0808673 0.334487 0.0327897)
(-0.0249711 0.0949307 0.0083179)
(-0.00642665 0.0236916 0.00180092)
(-0.0015421 0.00551076 0.000370077)
(-0.000406203 0.000988781 8.39645e-05)
(-0.265095 0.30023 0.169704)
(-0.064102 0.0504494 0.0395234)
(-0.0149434 0.010836 0.00892448)
(-0.00337756 0.00243282 0.00196027)
(-0.000868034 0.0004308 0.000491201)
(-0.0785128 0.344804 0.0458945)
(-0.0244186 0.0933022 0.0119988)
(-0.0062707 0.0224082 0.00273767)
(-0.00150069 0.00505839 0.000601189)
(-0.000391906 0.00088953 0.000144386)
(-0.305019 0.29504 0.0765763)
(-0.0771556 0.0555454 0.0188121)
(-0.0186592 0.0128775 0.00438507)
(-0.00434783 0.00304179 0.000984172)
(-0.00114465 0.000555834 0.000249887)
(-0.0823483 0.331915 0.0208638)
(-0.0247606 0.0960239 0.0054075)
(-0.00627862 0.0244755 0.00114793)
(-0.00149021 0.00580339 0.000223586)
(-0.000391455 0.00105634 4.81135e-05)
(-0.314644 0.293765 0.0280366)
(-0.0793763 0.0548806 0.00696557)
(-0.0192825 0.0127803 0.00163517)
(-0.00451829 0.00304365 0.000369273)
(-0.00119569 0.000559867 9.42074e-05)
(-0.0821569 0.330427 0.0100639)
(-0.0247939 0.0954924 0.00234947)
(-0.00628486 0.0245118 0.000463936)
(-0.00138485 0.00585791 0.000126428)
(-0.000385772 0.00107217 1.71881e-05)
(-0.0109613 1.38735 -0.0472146)
(-0.25517 1.92725 0.025212)
(-0.25101 1.72629 0.162882)
(-0.14313 1.30588 -0.13884)
(0.143717 0.731447 0.038246)
(0.197952 0.767236 0.0407897)
(0.399351 1.16572 0.102038)
(0.525004 1.16743 0.124416)
(0.224577 0.784865 0.0837634)
(0.456333 0.836936 0.135543)
(0.0881177 1.25032 0.111817)
(0.277162 1.66186 0.169089)
(0.224321 1.84566 0.106507)
(0.372212 2.50126 0.139216)
(0.407633 0.941461 0.0509233)
(0.562195 1.03258 0.0743206)
(0.492373 0.76226 0.0557339)
(0.5598 0.742235 0.0648907)
(0.281177 0.528757 0.0390024)
(0.31802 0.543062 0.0404097)
(-0.751494 0.167247 0.113714)
(-0.564041 0.120786 0.0902976)
(-0.183794 0.0364993 -0.0165278)