/*--------------------------------*- C++ -*----------------------------------*\
| =========                 |                                                 |
| \\      /  F ield         | OpenFOAM: The Open Source CFD Toolbox           |
|  \\    /   O peration     | Version:  2412                                  |
|   \\  /    A nd           | Website:  www.openfoam.com                      |
|    \\/     M anipulation  |                                                 |
\*---------------------------------------------------------------------------*/
FoamFile
{
    version     2.0;
    format      ascii;
    arch        "LSB;label=32;scalar=64";
    class       volScalarField;
    location    "2.9";
    object      gradTx;
}
// * * * * * * * * * * * * * * * * * * * * * * * * * * * * * * * * * * * * * //

dimensions      [0 -1 0 1 0 0 0];

internalField   nonuniform List<scalar> 
5712
(
-7677.85
-9375.56
-17567.5
-27409.1
-26514.2
-51725.6
-18365.9
-55226.1
-18947.9
-44291.5
-23286.1
-38261.1
-17824.4
-23539.9
-9584.99
-9717.7
-12411.8
-13997.3
-17076.7
-15462.6
-11911.9
-17945.7
-17770.2
-17815.5
-5005.46
-3606.04
-6791.06
-4838.89
-11339.8
-7298.13
-21015.2
-14597.8
-17517.6
-17714.2
-17721.6
-17800.1
-4007.83
-3629.21
-40875.2
-50568.7
-21732.5
-29025.6
-52805.1
-64984.7
-24481.7
-30119.4
-30557.7
-39974.5
-24322.9
-33730.8
-13942.5
-17692.4
-2825.32
-891.645
-3683.16
-1272.6
-6316.47
-2592.43
-11004.6
-4029.49
-7172.24
-2380.79
-7309.18
-2065.63
-14408.4
-4189.33
-18910.5
-5918.49
-24505.6
-13965.5
-20756.2
-14339.6
-25261.8
-16267.5
-20056.9
-16270.6
-15992.4
-11518.3
-17494.1
-11022.9
-20181.5
-14926.2
-20861.5
-15343.2
-19664
-16699.1
-20430.4
-17058.6
-16546.5
-12264.9
-17858.1
-12751.4
-17583.4
-7180.03
-9973.97
-11329.8
-18872.3
-8246.24
-9824.59
-11771.7
-17669.3
-6723.49
-10497.8
-11222.8
-18286
-6779.16
-11069.8
-11355.9
-2728.59
-3056.82
-956.221
-1868.57
-7875.61
-9222.59
-3208.76
-6040.92
-12793
-15181.1
-5682.99
-10136
-17254
-9142.21
-17267.2
-20512.1
-10209.6
-6755.25
-10800.5
-12084.6
-20828.1
-12985.1
-9739.24
-12665.6
-13917.1
-13341.2
-16535.7
-3036.45
-3124.82
-1864.64
-1995.18
-9009.04
-8665.42
-5727.21
-5840.07
-13518.9
-12501.3
-8452.75
-8535.6
-9613.34
-10781.7
-15196.9
-16126.8
-16665.9
-15707.2
-19636.3
-18102.7
-13316.6
-13298.5
-12865.1
-14134.8
-16543.7
-15363.5
-15469.8
-13170.1
-13734.6
-11201.1
-15062.7
-12109.6
-14078.7
-7810.4
-11030.4
-10858.4
-15557.1
-18274
-15889.7
-20819.2
-9260.8
-9249.28
-12708
-6058.69
-10612
-16850.5
-10932
-17922.8
-16104.2
-25463.6
-16605.4
-25975.7
-8918.68
-14709.7
-9180.65
-15878.4
-10946.5
-8285.79
-13892
-6393.97
-11916
-4770.84
-13162
-3510.94
-11311.6
-11734.5
-14516.6
-7555.23
-10163
-13475.6
-13305.6
-9572.15
-2951.78
-2771.76
-2432.5
-1901.71
-1874.6
-1659.35
-8044.65
-7039.86
-6237.6
-5197.95
-4416
-3783.72
-10595.5
-9134.3
-8450.61
-7472.88
-6132.34
-5628.02
-9787.53
-8110.27
-7791.95
-15147.1
-11534
-9518.38
-13469.1
-10090
-7970.85
-14892.7
-11897.3
-10176.2
-11290.7
-7826.84
-5951.05
-18298.4
-15140.3
-13625
-13298.5
-10738.9
-9057.93
-11592.5
-8895.47
-7136.81
-10222.1
-7800.59
-6323.48
-10824.8
-6608.47
-4221.86
-11276.6
-18444.2
-9525.64
-13699.6
-9082.8
-18770.1
-7581.45
-15357.8
-218.724
-1738.48
212.101
-1017.35
-3578.23
-6697.59
-2245.66
-4023.61
-1898.7
-4010.63
-10924.3
-16354.9
-8666.94
-6363.08
-11443.9
-10001.8
-15252.2
-16307.7
497.631
5315.8
-8312.85
-5868.73
-6381.78
-3683.56
-1603.78
-1029.62
-1271.45
-771.412
-3935.17
-1318.51
-1943.84
-249.02
-9960.41
-3084.94
-7409.52
-2332.41
-8361.01
-2532.77
-9457.29
-3146.79
-12189.3
-12131.9
-9510.4
-12075.6
-18217.1
-16500.1
-14938.8
-15742.8
-7187.06
-9532.8
-8384.53
-8783.55
-8912.78
-12049.2
-9370.52
-12190.2
-14270.9
-15489.5
-14792.1
-15629.9
-6369.15
-9705.3
-6182.72
-9854.87
-1111.82
-1763.85
-7879.3
-4736.12
-1111.14
-1556.57
-6904.62
-4037.26
-1075.47
-1583.01
-8339.87
-5202.01
-1374.64
-1698.8
-8447.77
-5488.34
125.985
256.648
-512.451
-389.094
705.541
1209.28
-891.392
-686.642
-1431.06
-430.53
-2832.79
-2593.94
7629.13
3895.43
4357.41
2675.67
-351.989
7047.49
10367.1
4852.72
4707.5
-331.594
-9239.7
-6907.93
-5889.19
-6230.82
-3966.08
485
376.013
-249.889
-400.248
1343.99
1557.22
-728.991
-1016.13
1039.41
1728.32
-1767.62
-2232.54
3153.36
1739.56
8092.21
5842.85
4208.51
3066.5
3647.04
3064.71
-724.187
-1665.16
-4871.21
-3346.92
445.582
2275.17
484.307
1887
-757.199
393.299
-1363.44
-1891.65
-4148.49
-4598.7
-9844.66
-6285.02
-8586.44
-8435.22
-12954.3
-10180.2
-7774.09
-4883.57
-2769.81
-3475.98
-11648.5
-4952.34
-12481.2
-4553.36
-14885
-9786.56
-15823.6
-9365.99
-9327.97
-3620.53
-10122.4
-3148.83
-6219.01
-5251.12
-5138.11
-8861.38
-3263.22
-4284.82
-3546.26
-7519.23
-6815.42
-4980.15
-6143.17
-10137.1
-8102.53
-4779.35
-7086.86
-10102.8
570.929
808.768
969.878
-259.915
145.896
214.648
2131.05
2716.9
2980.71
-421.4
635.96
800.646
2553.75
3871.52
4442.59
-1236.71
1122.04
1620.04
1045.83
1615.81
1475.81
4697.56
5135.6
4809.68
3656.27
4431.14
4334.77
3819.16
5046.81
5299.78
-846.568
1635.95
1607.94
-3904.1
-1844.97
-1011.06
1564.1
2899.68
3331.84
1736.66
3250.61
3644.03
953.366
2844.71
3255.77
-2230.5
1103.86
1364.19
-85.114
7.02688
42.4343
92.2375
110.288
111.832
130.988
138.557
-233.498
6.15458
112.894
243.078
252.955
257.283
287.147
317.56
-474.239
-60.1142
124.847
373.407
24.4116
212.143
266.511
369.157
37.1444
139.35
113.837
126.55
-181.795
-11.3912
57.1337
131.963
-1171.78
-346.942
-101.247
227.98
-1766.08
-551.455
-280.799
317.359
-1000.6
-265.422
-20.7689
366.786
-1445.5
-441.353
-238.901
318.472
-1080.21
-333.578
-102.288
191.957
-1943.63
-610.976
-298.937
391.104
-1143.32
-389.629
-104.612
249.888
-2034.45
-645.9
-316.497
428.152
-87.1392
-5.98315
18.3206
84.0093
-79.4482
-3.85836
6.04247
87.8989
-240.223
-22.4686
51.4297
221.759
-147.429
14.1368
30.7618
239.59
-812.474
-203.671
-19.5763
344.208
-648
-133.246
-13.7472
381.441
-452.327
-48.7634
75.8086
371.122
-307.571
-16.5004
22.1915
368.481
-1242.96
-345.11
-162.647
427.81
30.6352
30.888
25.6009
68.1517
134.202
60.0805
37.0372
41.2555
-0.256247
58.089
52.2822
180.767
321.528
154.298
93.6826
109.979
-138.425
37.4227
59.0302
283.228
416.241
219.322
140.472
169.272
-196.006
47.0613
74.9727
376.21
395.8
254.046
161.759
202.122
-449.119
-3.64396
8.58134
373.641
161.58
224.356
132.472
190.756
-1302.98
-160.91
-84.2743
363.581
-416.753
70.4047
56.1403
144.704
-893.439
-59.4602
-43.0004
366.03
-201.716
148.543
93.9754
170.324
-1645.32
-301.457
-148.616
391.329
-561.929
-14.7013
14.005
130.297
-1883.92
-454.967
-227.205
387.499
-703.16
-125.236
-40.8605
110.696
37.9414
18.479
10.1152
6.23808
4.67628
51.4713
27.913
16.0335
10.112
7.63291
81.5299
39.3167
21.4225
13.2533
10.0097
136.002
75.9367
44.3178
28.2677
21.4604
115.705
56.5112
31.3621
19.6434
14.9289
195.055
107.845
63.5462
40.8721
31.1587
66.3491
35.4948
20.9409
13.5285
10.3311
38.1227
19.4067
11.1257
7.1264
5.41662
102.059
46.9503
26.1564
16.5058
12.4954
24.2223
7.0918
3.09922
1.74272
1.26519
148.866
77.1273
44.726
28.6519
21.8288
41.9794
17.2658
9.22131
5.70136
4.26168
37.4154
10.2748
4.16515
2.27692
1.64417
25.2904
7.9372
3.69434
2.18172
1.61992
36.3308
9.45636
3.62545
1.93456
1.34746
18.7434
2.86961
0.455332
0.0410582
-0.0498466
30.9337
13.9602
7.32303
4.39837
3.26084
28.4441
13.0784
6.91792
4.16346
3.0884
70.9719
31.6085
16.6376
10.0391
7.48506
65.9924
29.6865
15.7595
9.5202
7.06976
92.5342
38.6659
20.1909
12.1543
9.07064
79.2759
36.4933
19.8472
12.1157
9.09566
106.712
54.5276
31.4157
19.9928
15.2443
52.427
26.6513
15.0882
9.38712
7.15108
61.4319
32.8062
19.2772
12.4297
9.49094
-508.042
-605.842
-1397.24
-1716.81
-2134.94
-2740.31
-2601.22
-3629.74
-2621.43
-3651.94
-2361.94
-3082.42
-2234.22
-2673.78
-2628.3
-3535.07
-2693.45
-3667.07
-468.071
-102.106
-22.1497
-4.68473
-1.13339
-207.783
-73.1911
-8.27822
-2.30173
-0.902766
-1511.12
-332.099
-72.463
-15.4437
-3.76344
-540.838
-115.159
-23.3338
-4.54903
-0.975185
-2666.47
-589.449
-129.362
-27.8188
-6.83835
-941.134
-222.202
-48.8236
-10.5791
-2.54312
-3837.83
-853.166
-189.062
-41.122
-10.2339
-1318.06
-338.797
-79.5131
-18.1168
-4.56719
-5373.72
-1228.69
-278.08
-61.5893
-15.5932
-1750.22
-508.007
-126.42
-29.7677
-7.70891
-7300.01
-1821.54
-435.08
-100.272
-26.1706
-2021.68
-624.276
-160.666
-38.5526
-10.1551
-6627.37
-1602.55
-373.585
-84.4391
-21.7008
-1962.82
-610.465
-156.767
-37.5173
-9.79764
-7625.48
-1928.89
-466.481
-108.696
-28.6163
-2058.71
-619.014
-156.965
-37.2553
-9.78637
-7866.11
-1984.41
-482.064
-112.957
-29.8923
-2053.92
-619.847
-157.122
-34.6212
-9.64429
-274.033
-6379.24
-6275.26
-3578.25
3592.94
4948.8
9983.77
13125.1
5614.43
11408.3
2202.94
6929.05
5608.02
9305.3
10190.8
14054.9
12309.3
13995
7029.42
7950.51
-18787.4
-14101
-4594.86
-3625.51
-2836.38
-4572.53
-3174.18
-12380.8
-12302.3
-10521.1
-11223.8
-9315.23
-6461.1
-8806.38
-5470.82
-4207.44
-5228.64
-3352.32
-20405
-10268
-3135.86
-5218.65
-7792.32
-5335.03
-6375.1
-4832.86
-2379.67
-4038.43
-3492.69
-4066.05
-18893.9
-11837.8
-11915.9
-7627.63
-8152.17
-8143.02
-4177.09
-5351.67
-5445.02
-12909.5
-12532
-11015.6
-11300.5
-10708
-10165
-7684.94
-6542.47
-5608.67
-2661.04
-4078.03
-3398.4
-2561.32
-1602.37
-546.466
-3246.96
-2727.26
-2059.87
-1283.97
-436.5
-2522.88
-2102
-1574.78
-975.451
-330.618
-4095.35
-3437.72
-2591.63
-1611.26
-546.839
-2825.45
-2357.76
-1771.31
-1100.84
-373.927
-8330.23
-7210.51
-5932.51
-5754.96
-6499.6
-6801.67
-5472.53
-3976.48
-3342.62
-2888.18
-7331.58
-5057.84
-3907.07
-3012.42
-1378.26
-6099.53
-4624.93
-3259.66
-2614.7
-1881.66
-4736.92
-3330.54
-2239.41
-1878.34
-1143.77
-5162.13
-3901.91
-2794.53
-1755.18
-627.101
-6326.18
-4398.98
-3160.75
-2119.27
-863.593
-3840.17
-2527.87
-1721.29
-1098.35
-422.963
-3486.66
-2714.04
-1953.49
-1203.95
-415.177
-4224.45
-3198.31
-2256.75
-1376.55
-474.349
-2808.85
-2204.84
-1587.56
-970.684
-330.861
-14061
-11827.7
-10090.7
-9716.53
-9473.93
-7953.04
-5999.71
-4660.28
-3422.47
-1495.15
-2619.43
-2060.68
-1503.25
-940.139
-327.643
-4444.49
-3572.63
-2661.07
-1692.83
-594.795
-6469.49
-5115.78
-3869.99
-2574.8
-951.282
-4581.97
-3715.3
-2794.3
-1789.61
-625.485
-5570.73
-4577.12
-3442.66
-2174.13
-744.76
-4228.61
-3475.64
-2597.41
-1623.51
-556.002
-2057.81
-1665.84
-1222.15
-750.303
-254.272
-3560.86
-2942.21
-2193.6
-1358.27
-461.162
-2980.63
-2387.25
-1748.58
-1082.05
-370.682
-3531.05
-2880.47
-2140.69
-1335.22
-458.001
-12883
-11753.3
-10327.4
-10299.1
-9518.77
-8864.15
-6729.86
-5572.33
-4518.74
-2109.36
-9683.79
-8001.88
-6514.21
-5249.44
-2418.96
-6286.91
-4814.43
-3747.66
-2625.73
-854.404
-6913.32
-5520.28
-4198.75
-2763.64
-946.235
-6683.09
-5082.23
-3939.97
-2754.16
-871.912
-3620.87
-2952.29
-2205.8
-1389.2
-478.744
-4726.71
-3917.37
-2936.09
-1829.34
-623.371
-4713.85
-3843.96
-2880.59
-1822.95
-630.578
-6087.61
-13338
-10724.6
-34775.5
-10141.9
-45490.4
-6774.62
-17880
-8862.35
-7453.8
-17331.9
-13543
-9057.99
-10924.8
-19007.6
-15836.8
-3815.03
-2595.7
-8761.73
-6142.17
-6701.81
-3497.08
-24160.1
-16992.8
-14689.7
-10245.4
-15210.1
-9905.65
1629.27
-1451.39
-41813.8
-50920
-21108.4
-28927.5
-53409.5
-65218.2
-23719.1
-29935.6
-31211.1
-40346.8
-23722.7
-33713.2
-14983.2
-18107.8
-2043.91
-389.595
-4450.68
-1431.45
-3870.51
-1817.49
-12471.7
-4448.53
-1955.98
-918.885
-5490.62
-1516.52
-14480.4
-4161.96
-19089.9
-5962.24
-18004.3
-11015.5
-18557
-12850.6
-17602.7
-12543.3
-17512.8
-14468.1
-14529
-10426.3
-13331.4
-8948.87
-19301.4
-14231.6
-20643.5
-15143.5
-18623.7
-15892.1
-20142.9
-16824.5
-16012.2
-11742.6
-17738.4
-12599.8
-16770.1
-7005.05
-9219.55
-11072.2
-16337
-7635.27
-8328.97
-11286.6
-17437.9
-6672.53
-10142.5
-11090.9
-18259.7
-6775.32
-10965.9
-11316.5
-632.564
-470.36
105.583
-628.927
-2338.96
-2875.4
-1633.09
-4226.72
-3462.47
-4610.68
-3582.07
-7765.44
-16392.1
-15800.2
-12973.5
-15168.4
-9089.23
-10672.8
-8495.45
-7199.45
-15002.6
-12159.4
-12277.7
-11550.6
-10905.6
-10214.2
-15520.3
-666.069
-847.931
-419.172
-632.286
-2872.2
-2571.82
-3235.69
-3214.71
-2732.14
-1404.66
-5371.3
-5139.36
-11645
-12556.9
-10860.5
-10840.5
-9680.89
-8071.22
-12981.6
-11195.7
-11441.5
-10854.2
-14977.9
-15529.2
-14027.1
-12721.4
-11422.8
-9517.99
-10198.3
-8088.1
-13571.9
-10151.5
-12971.2
-7855.19
-10632.5
-10824.8
-16013.2
-19033.2
-15990.2
-21057.9
-8614.46
-9003.69
-11047.6
-5670.41
-10470.6
-16756.9
-10890.2
-17885
-16189.9
-25667.2
-16615.1
-25979.5
-8661.19
-14516.1
-9109.44
-15819.6
-10352.5
-8032.13
-13572
-6248.9
-10510.8
-4408.37
-12536.7
-3374.39
-11062.1
-11567.8
-14368.6
-7479.88
-10094.2
-13422.7
-13268.8
-9543.09
-1037.3
-787.906
-576.503
-712.294
-1951.17
-906.774
-2700.41
-2689.76
-346.759
-196.03
-4808.07
-4684.57
-13580.6
-11730.7
-10639.9
-8270.56
-6796.69
-4650.24
-8979.05
-6866.22
-9440.37
-6357.05
-19811.8
-16955.6
-10312.7
-8419.94
-7919.13
-5897.96
-6822.16
-4780.18
-7602.58
-3928.32
-5852.56
-11118
-5397.8
-10810.1
-7233.74
-11823.3
-8476.9
-13175
-1649.55
-1571.47
-1483.4
-1502.98
-4614.75
-4849.59
-4331.54
-4510.16
-2058.45
-2406.49
-9149.81
-10081.9
-5561.86
-6268.49
-10403.8
-9779.33
-14263.3
-16039.2
481.28
5144.89
-7788.21
-5831.25
-6179.34
-3720.55
-1415.7
-1352.64
-1536.55
-1319.66
-3189.32
-2208.95
-2540.84
-1613.39
-8345.03
-4251.38
-7786.47
-3855.27
-8513.37
-3402.71
-9549.9
-3503.85
-6778.95
-9738.14
-7602.2
-10768.7
-11282.4
-12795.5
-12514.2
-13918
-6130.17
-8941.04
-5390.63
-7960.66
-8139.13
-11495.1
-9140.73
-12031
-13246.9
-14703.5
-14490.5
-15402.7
-5963.19
-9465.57
-6065.95
-9788.7
-1303.32
-2282.35
-7928.25
-5040.29
-1490.55
-2429.89
-7159.1
-4488
-1301.7
-1995.99
-8388.56
-5419.66
-1471.74
-1870.28
-8449.03
-5584.84
-1304.35
-1496.11
-1375.34
-1590.29
-3207.18
-3601.52
-2487.94
-2913.6
-7753.99
-8461.24
-4677.49
-5214.57
-4320.98
-9412.91
-3044.72
-919.475
-1971.72
-4194.99
-1280.74
-2082.65
1447.33
-1428.9
-13605.7
-10145.5
-8079.82
-8077
-4897.04
-1813.22
-2020.25
-1875.2
-2353.25
-4290.97
-4655.31
-3480.92
-4435.82
-9022.97
-10256.7
-5286.57
-6835.62
-6190.25
-7510.49
-2290.09
-4310.16
-3683.5
-5006.23
-1423.19
-2301.67
-2567.91
-3946.87
-11283.5
-8828.8
-6395.97
-4411.41
-5009.7
-3455.6
-5013.68
-3554.58
-3262.46
-4065.85
-7667.3
-8176.24
-11487.4
-7868.07
-11227.9
-11245.4
-13983.3
-11422.9
-9738.98
-6524.13
-6224.28
-6930.65
-12453.7
-5859.9
-12703.9
-4768.41
-15359.3
-10522.9
-15938
-9519.55
-10343.7
-4560.58
-10418.5
-3393.9
-8156.38
-6819.38
-6886.66
-10711.8
-6302.77
-7344.7
-5772.11
-10429.6
-7866.39
-5923.58
-7208.39
-11258.3
-8429.41
-5068.1
-7430.48
-10400.2
-1720.34
-1782.19
-1697.74
-1335.52
-5068.81
-5701.1
-2770.34
-1547.19
-11141.1
-9209.52
-4187.75
-536.076
-9376.15
-8118.33
-6121.43
-5059.11
-5266.72
-4131.18
-2166.93
-960.929
-2813.92
599.233
-8435.51
-6981.77
-4202.01
-2867.21
-2921.33
-1344.03
-2499.15
-638.687
-4599.78
430.512
-330.916
-141.657
-47.8096
40.5659
-350.926
-180.968
-56.7428
18.2569
-855.187
-369.292
-105.042
135.132
-803.255
-422.975
-169.067
-9.89568
-1299.03
-561.418
-192.218
191.143
-1264.38
-639.94
-362.351
-136.71
-755.694
-402.395
-256.998
-94.4941
-526.904
-254.202
-110.174
27.2762
-1635.14
-649.465
-335.494
41.1538
-1919.99
-617.358
-341.314
324.668
-1654.66
-651.789
-325.763
71.4949
-1643.16
-527.972
-317.151
326.377
-1436.98
-573.386
-255.016
134.877
-2061.49
-664.335
-356.586
362.422
-1296.97
-495.663
-175.596
214.265
-2086.13
-671.681
-339.511
421.232
-312.014
-120.286
-44.589
60.1596
-314.006
-105.21
-54.3866
67.4688
-812.148
-317.159
-112.251
160.774
-799.238
-278.622
-138.216
189.754
-1452.92
-547.084
-225.701
289.4
-1405.96
-491.762
-240.134
319.357
-1464.14
-592.425
-284.519
127.106
-1071.81
-396.632
-198.039
319.321
-1666.89
-551.398
-334.536
376.418
-227.038
-76.3959
-30.1564
41.1798
-128.745
-53.8968
-19.6735
4.04549
-633.738
-213.711
-96.8004
108.949
-366.76
-154.806
-65.856
6.25641
-905.788
-314.471
-148.951
175.108
-539.848
-245.825
-105.007
10.6791
-1097.03
-402.747
-200.193
224.519
-738.91
-337.569
-149.436
8.05841
-1327.53
-455.085
-281.691
200.101
-1007.68
-395.869
-207.553
-27.6155
-2277.47
-739.048
-453.8
147.606
-1215.93
-424.586
-238.007
-40.8677
-1968.96
-642.055
-414.952
146.514
-1268.62
-443.776
-247.038
-50.3507
-2282.09
-705.655
-408.013
244.462
-1051.91
-345.968
-185.5
11.1818
-2098.02
-596.49
-318.169
337.244
-861.251
-238.024
-109.371
70.56
-7.63482
-12.539
-9.42162
-6.6132
-5.19989
-29.8957
-23.2555
-15.5833
-10.5849
-8.25533
-16.2665
-26.3464
-19.7361
-13.7753
-10.7511
-94.5304
-66.5639
-43.203
-28.9261
-22.4278
-40.6404
-42.3722
-29.5915
-20.2035
-15.6447
-145.524
-97.6345
-61.7655
-40.8655
-31.5381
-47.9303
-32.1754
-20.2498
-13.3435
-10.2874
-21.2564
-16.0017
-10.517
-7.03084
-5.47276
-38.0542
-36.4773
-24.5692
-16.555
-12.8602
9.50003
-2.14464
-2.58755
-1.97302
-1.58635
-99.1095
-68.2597
-43.1399
-28.509
-21.9847
-7.15286
-12.3057
-8.70716
-5.96475
-4.67947
15.8116
-1.48437
-2.95113
-2.37199
-1.93162
5.38366
-3.28406
-3.08143
-2.23491
-1.77375
18.6096
-0.552424
-2.4905
-2.10763
-1.81345
17.1726
2.27999
0.102705
-0.214115
-0.280777
0.00722003
-8.30785
-6.85537
-4.94965
-3.92614
-3.44156
-8.49137
-6.61533
-4.72401
-3.73748
-4.08467
-20.254
-15.9628
-11.3708
-8.95794
-10.4924
-20.6314
-15.5063
-10.9502
-8.6393
-3.4251
-26.0353
-20.0147
-14.1585
-11.1201
-27.7563
-29.8141
-20.609
-14.2425
-11.1088
-72.3456
-49.3722
-31.0431
-20.568
-15.8284
-36.4191
-25.1855
-16.0423
-10.8156
-8.32148
-52.0991
-30.8103
-18.7042
-12.2009
-9.37327
-181.096
-297.632
-607.813
-954.901
-1186.98
-1794.26
-1753.88
-2736.1
-1999.49
-3001.69
-2231.32
-2981.53
-1927.12
-2439.3
-2582.24
-3494.06
-2684.68
-3657.66
-470.765
-104.91
-22.9175
-4.85687
-1.17551
-144.235
-66.6401
-6.50195
-2.06897
-0.898299
-1537.97
-343.373
-75.2956
-16.0662
-3.9143
-379.384
-87.7381
-18.6893
-3.75782
-0.818943
-2713.97
-607.395
-133.886
-28.8311
-7.08745
-745.15
-189.093
-43.2734
-9.66853
-2.37175
-3881.05
-871.239
-193.885
-42.2472
-10.5206
-1140.14
-308.368
-74.3851
-17.2823
-4.41447
-5403.04
-1244.19
-282.591
-62.7054
-15.8916
-1631.42
-486.918
-122.875
-29.2164
-7.6177
-7301.29
-1826.15
-436.962
-100.843
-26.3477
-1998.7
-619.079
-159.656
-38.3831
-10.1261
-6641.76
-1612.97
-377.032
-85.368
-21.9658
-1904.78
-598.765
-154.717
-37.2024
-9.74942
-7622.36
-1930.45
-467.335
-108.989
-28.7136
-2051.4
-617.278
-156.595
-37.1875
-9.77294
-7864.91
-1984.82
-482.321
-113.049
-29.9241
-2052.91
-619.601
-157.063
-34.6076
-9.64148
-188.344
-6258.51
-5832.12
-2880.41
-1476.23
-880.269
-3169.73
-2500.79
-5362.19
-5830.67
-3045.03
-2864.41
-436.361
-659.948
-1103.66
-1696.93
-2381.55
-3046.34
-300.06
-621.759
-1255.82
-2117.05
-3092.91
-4053.47
-340.798
-148.411
-598.366
-372.186
-1101.97
-824.255
-1748.58
-1509.94
-2377.73
-2358.76
-2892.83
-3176.69
-3721.64
-4421.49
-5262.12
-7280.77
-7570.63
-9078.79
-4885.13
-5429.12
-5510.4
-5222.15
-4271.08
-3788.34
-394.483
-334.487
-254.287
-158.877
-54.026
-596.319
-505.346
-383.977
-239.817
-81.534
-996.694
-844.122
-641.053
-400.244
-136.058
-1531.25
-1295.78
-983.421
-613.8
-208.633
-2146.38
-1814.12
-1375.69
-858.395
-291.774
-2739.82
-2311.23
-1750.79
-1092.43
-371.447
-271.168
-229.853
-174.688
-109.118
-37.0993
-561.605
-475.745
-361.365
-225.645
-76.707
-1133.74
-959.894
-728.812
-454.996
-154.667
-1909.74
-1615.63
-1226.04
-765.271
-260.142
-2786.54
-2354.65
-1785.66
-1114.51
-378.932
-3644.74
-3074.54
-2329.89
-1454.72
-494.908
-308.163
-261.336
-198.701
-124.161
-42.2262
-134.202
-113.81
-86.5317
-54.0693
-18.3886
-540.809
-458.404
-348.371
-217.604
-73.9883
-336.416
-285.184
-216.746
-135.391
-46.0354
-995.447
-843.282
-640.528
-399.947
-135.961
-744.673
-630.928
-479.277
-299.272
-101.737
-1578.21
-1335.76
-1013.81
-632.716
-215.043
-1362.86
-1153.47
-875.386
-546.254
-185.639
-2143.18
-1811.41
-1373.35
-856.638
-291.097
-2125.61
-1795.92
-1360.91
-848.43
-288.209
-2600.92
-2192.89
-1659.96
-1034.99
-351.741
-2854.37
-2404.2
-1817.37
-1131.49
-384.188
-3334.94
-2804.34
-2121.77
-1325.11
-451.139
-3935.18
-3291.05
-2488.03
-1559.84
-533.106
-4621.81
-3827.14
-2897.28
-1838.44
-634.984
-6241.91
-5080.95
-3883.47
-2546.87
-901.526
-6181.53
-4923.93
-3872.08
-2743.81
-1078.03
-7124.19
-5591.29
-4518.4
-3410.72
-1416.36
-4379.04
-3684.88
-2790.83
-1744.89
-594.566
-4843.62
-4061.64
-3076.26
-1929.93
-659.916
-4878.86
-4070.13
-3086.84
-1951.07
-671.989
-4560.4
-3771.07
-2873.2
-1847.06
-646.3
-3630.82
-2961.71
-2287.09
-1529.59
-560.581
-3116.38
-2502.55
-1969.21
-1383.84
-532.17
-461.305
-735.357
-1230.5
-1873.07
-2603.93
-3295.54
-332.838
-720.655
-1420.48
-2341.26
-3358.33
-4322.99
-367.218
-169.14
-678.62
-436
-1238.97
-936.35
-1944.05
-1681.54
-2637.88
-2650.36
-3194.49
-3679.73
-3982.47
-4684.42
-5521.02
-7455.55
-7688.84
-9123.75
-5110.15
-5563.6
-5534.16
-5148.68
-4177.81
-3747.82
-417.139
-353.81
-269.067
-168.158
-57.1907
-664.861
-563.851
-428.768
-267.963
-91.1364
-1112.14
-942.839
-716.771
-447.901
-152.331
-1691.93
-1433.57
-1089.44
-680.704
-231.511
-2349.98
-1989.49
-1511.25
-944.271
-321.204
-2969.43
-2510.54
-1906.12
-1191.49
-405.528
-300.939
-255.235
-194.095
-121.302
-41.2538
-651.468
-552.425
-420.05
-262.512
-89.2824
-1283.57
-1087.98
-827.031
-516.801
-175.769
-2114.25
-1790.99
-1360.94
-850.388
-289.247
-3029.57
-2564.02
-1947.52
-1217.07
-414.081
-3893.15
-3290.25
-2498.07
-1562.02
-531.834
-332.135
-281.762
-214.309
-133.954
-45.564
-153.003
-129.817
-98.7537
-61.7327
-21
-613.703
-520.573
-395.924
-247.465
-84.1716
-394.342
-334.55
-254.476
-159.068
-54.1066
-1120.08
-949.801
-722.185
-451.317
-153.497
-846.619
-718.017
-546.01
-341.238
-116.06
-1756.55
-1488.71
-1131.5
-706.986
-240.441
-1519.56
-1288.01
-979.024
-611.718
-208.036
-2381.36
-2016.57
-1531.95
-957.11
-325.532
-2392.95
-2026.58
-1539.54
-961.772
-327.09
-2878.91
-2434.25
-1848.1
-1155
-393.031
-3317.24
-2805.41
-2129.65
-1330.51
-452.634
-3578.1
-3018.33
-2290.92
-1434.27
-488.942
-4185.46
-3516.42
-2670.34
-1679.81
-575.104
-4877.46
-4065.87
-3097.39
-1974.26
-683.309
-6435.88
-5279.6
-4064.91
-2679.96
-950.375
-6326.39
-5078.93
-4021.36
-2862.54
-1126.67
-7184.72
-5658.83
-4586.83
-3469.18
-1440.73
-4589.17
-3870.19
-2937.63
-1839.81
-627.477
-4973.72
-4180.93
-3174.49
-1995.49
-683.052
-4910.17
-4106.81
-3123.39
-1978.94
-682.508
-4504.73
-3734.41
-2854.69
-1841.49
-645.669
-3555.5
-2905.92
-2252.47
-1513.97
-557.046
-3083.87
-2478.56
-1954.66
-1377.96
-531.08
-18703.7
-14155.8
-4985.17
-4028.81
-3377.55
-5248.88
-3673.29
-13092.2
-14229.4
-11890.1
-13663.8
-7423.96
-11532.7
-5436.77
-5700.61
-4030.2
-21092.8
-11098.4
-3633.4
-5819.55
-8410.43
-5706.2
-7021.52
-5364.18
-2622.78
-4725.09
-4095.48
-4555.43
-18768.3
-12053.9
-12422.4
-8007.02
-8505.02
-8581.37
-4822.25
-6022.21
-5875.13
-12889.9
-12575.7
-11115.3
-11479.3
-10891.3
-10259
-7793.45
-6659.93
-5722.99
-2712.01
-4451.96
-3737.23
-2836.97
-1784.54
-610.382
-3622.21
-3056.74
-2319.69
-1451.31
-494.389
-3032.1
-2554.95
-1936.86
-1211.45
-412.888
-4724.79
-3990.59
-3027.82
-1892.31
-644.106
-3295.26
-2775.6
-2105.04
-1318.09
-449.58
-9839.68
-9061.4
-7895.23
-7625.97
-8095.51
-10196.9
-9545.78
-8043.33
-6951.49
-5446.19
-9276.67
-7098.96
-5825.67
-4548.31
-2061.05
-10123.5
-8894.28
-7246.32
-6019.97
-3845.02
-6343.7
-5137.6
-3915.68
-2571.46
-940.397
-9404.49
-7290.91
-5668.75
-3974.22
-1631.53
-4739.42
-3900.9
-2957.45
-1894.72
-667.035
-4951.69
-4063.92
-3082.36
-1981.92
-701.231
-3535.94
-2924.91
-2214.75
-1408.63
-490.975
-15395.9
-13445.8
-11813.5
-11368.2
-10802.2
-9006.36
-7122.66
-5720.98
-4251.2
-1845.52
-3162.96
-2603.12
-1979.86
-1276.18
-451.784
-5080.38
-4198.78
-3208.49
-2077.81
-736.384
-7172.63
-5839.92
-4531.56
-3063.76
-1139.87
-4979.37
-4111.12
-3144.86
-2039
-717.449
-6205.42
-5165.47
-3932.1
-2504.12
-861.694
-4760.95
-3978.85
-3022.03
-1912.23
-659.214
-2328.43
-1944.28
-1471.81
-926.739
-318.65
-4223.07
-3546.31
-2687.87
-1686.43
-576.823
-3606.91
-2994.44
-2270.64
-1442.77
-501.424
-4032.72
-3363.64
-2554.41
-1619.7
-560.516
-12975.2
-12014.5
-10716.7
-10822.4
-10093.5
-9167.64
-7057.26
-5899.7
-4803.93
-2241.63
-10432.5
-8844.32
-7371.33
-5990.27
-2770.34
-6720.8
-5257
-4154.1
-2930.98
-957.005
-7319.13
-5939.63
-4585.6
-3050.1
-1051.18
-7211.06
-5624.85
-4447.91
-3140.84
-1008.96
-4256.24
-3542.83
-2697.61
-1721.06
-596.966
-5374.07
-4508.54
-3420.18
-2150.83
-736.627
-5163.87
-4285.06
-3265.15
-2091.97
-728.506
-485.889
-1318.53
-1993.99
-2609.87
-3231.77
-3797.84
-2298.63
-5942.83
-5608.7
-2316.52
-6788.58
-6081.25
-7325.63
-9784.11
-1296.81
-175.646
-2458.26
1156.92
-9608.28
-7946.45
1832.81
-1684.65
-4722.42
-4560.35
-1791.56
-5197.28
-2894.48
-5864.14
-6043.87
-578.63
855.019
-1071.81
3207.31
-6813.57
-4338.76
3592.56
-1053.75
-3251.92
-3369.93
-1246.47
-3290.19
-535.25
-4422.49
-4465.23
-175.202
1044.93
46.8549
3387.56
-4247.85
-476.311
4112.18
-716.968
-2355.8
-2755.02
-972.192
-1822.71
743.043
-3774.83
-4250.34
18.3785
764.929
369.171
2866.25
-3271.86
1448
3948.18
-626.086
-2229.03
-2653.76
-900.455
-1717.39
471.269
-4025.41
-5481.13
92.856
594.859
477.216
2526.04
-3120.7
1484.25
2779.43
-606.876
-2203.88
-2598.52
-877.779
-2097.54
-247.708
-3963.11
-5392.56
139.287
936.146
393.463
2642.69
-3584.99
661.242
2109.34
-1316.02
-3143.17
-4125.29
-1675.71
-6436.39
-11478.7
-6888.16
-12177
-1621.39
-1446.17
-5212.56
-4385.92
-2473.11
-9581.92
-4740.25
-1293.41
-3072.56
-3702.81
-1459.48
-6111.14
-9831.8
-6215.23
-8962.67
-1698.59
-1339.36
-5112.69
-4198.84
-1825.86
-8880.62
-4637.01
-1206.8
-2886.33
-3117.97
-1194.36
-5566.83
-8627.45
-5283.33
-8008.04
-1476.4
-1731.94
-4539.16
-5026.02
-2083.91
-7882.71
-5230.89
-1224.08
-3168.02
-2910.95
-1070.39
-5946.64
-8515.88
-5251.45
-7902.13
-1560.68
-2175.23
-4736.99
-6272.47
-2623.16
-8697.59
-6420.08
-1243.21
-3166.1
-2879.37
-1040.54
-5896.17
-9219.08
-5285.05
-8706.53
-1706.47
-2812.27
-5138.13
-8086.84
-3725.28
-10380.7
-8476.1
-1263.88
-3174.27
-2855.57
-1032.47
-6006.1
-9486.86
-5185.16
-8622.91
-1925.65
-3514.77
-5690.57
-9291.97
-4960.89
-11494.3
-9552.39
7042.98
8523.12
17563.5
27362.6
26517
51709.8
18368.6
55221.6
18951.3
44286.5
23297.9
38256
17854.2
23527.8
8264.23
8355.17
12413.6
13997.5
17072.1
15461.2
11914.3
17947
17770.3
17815.9
4612.82
3338.6
6227.26
4441.77
11346.4
7294.48
20982.1
14570.7
17504
17712.5
17716.1
17797.1
4004.18
3614.85
40876
50569.5
21732.3
29025.8
52804.9
64984.7
24482
30119.6
30558.5
39975.8
24321.8
33731.2
13945
17694
2650.12
843.888
3399.56
1181.31
6301.82
2593.78
10981.2
4024.48
7164.78
2378.61
7298.77
2062.48
14408.5
4189.23
18911.6
5918.85
24504.8
13965.1
20755.3
14339.2
25262.1
16267.7
20057
16270.7
15990.8
11517.6
17492.5
11022
20181.1
14925.9
20861.3
15343
19664
16699.1
20430.5
17058.5
16546
12264.5
17858
12751.1
17580.6
7179.28
9973.04
11329.5
18868.6
8245.32
9823.2
11771.2
17668.7
6723.34
10497.4
11222.7
18286.2
6779.25
11069.6
11355.9
2556.75
2851.8
902.57
1743.66
7849.91
9182.48
3208.22
6024.15
12781.8
15167.1
5679.74
10130.4
17253.1
9141.89
17265.5
20507
10208.5
6754.92
10799.9
12083.4
20822.3
12983.8
9739.21
12665.1
13915.8
13338.6
16534.6
2801.9
2879.94
1701.12
1847.16
8998.88
8642.16
5744.76
5843.87
13512.4
12494
8455.12
8537.11
9613.06
10781.4
15196.2
16126.2
16664.6
15706.3
19633
18099.9
13317.5
13299.7
12864.9
14134.6
16543
15363.1
15468.7
13169.5
13733.1
11200.4
15062.9
12110.1
14078.3
7810.23
11030.1
10858.2
15556.9
18273.9
15889.6
20819.1
9260.37
9249.11
12707.3
6058.47
10611.8
16850.4
10931.8
17922.7
16104.1
25463.5
16605.3
25975.5
8918.42
14709.6
9180.46
15878.3
10946.1
8285.7
13892
6394.03
11915.3
4770.7
13162
3511.12
11311.4
11734.4
14516.7
7555.27
10162.9
13475.5
13305.6
9572.19
2689.98
2523.03
2225.01
1764.91
1740.6
1543.95
8034.05
7029.75
6232.44
5201.72
4419.25
3789.28
10591.5
9131.66
8449.72
7474.24
6133.83
5630.55
9787.37
8110.21
7791.95
15146.7
11533.8
9518.33
13468.5
10089.8
7970.82
14891.1
11896.4
10176.1
11291.5
7827.63
5952.16
18298.2
15140.2
13625
13298.2
10738.8
9057.9
11592.2
8895.34
7136.82
10221.8
7800.43
6323.52
10825.1
6608.73
4222.25
11285.5
18447.7
9537.38
13702.7
9087.48
18772.8
7586.55
15359.8
231.502
1609.42
-168.26
935.322
3540.94
6682.59
2206.42
4013.83
1891
4003.63
10922.5
16352.4
8660.16
6357.09
11445
10002.3
15253.1
16308.1
-498.337
-5315.91
8312.47
5868.91
6381.27
3683.52
1459.81
953.641
1150.33
705.201
3940.42
1311.66
1947.4
247.312
9959.03
3082.02
7408.52
2330.77
8360.53
2532.26
9457.34
3146.68
12190.5
12132.4
9511.23
12075.9
18218.6
16500.7
14939.7
15743.2
7186.86
9532.85
8384.09
8783.51
8913.26
12049.5
9370.91
12190.5
14271.4
15489.8
14792.4
15630.1
6369.19
9705.44
6182.93
9855.11
1111.02
1763.07
7879.17
4735.84
1110.04
1555.14
6904.35
4036.73
1075.08
1582.63
8339.9
5201.91
1374.64
1698.67
8447.94
5488.38
-120.688
-238.005
480.526
364.332
-702.703
-1208.1
883.921
676.807
1430.86
430.577
2829.02
2590.55
-7628.91
-3895.28
-4357.36
-2675.92
350.542
-7047.39
-10366.9
-4852.58
-4707.28
330.329
9239.86
6908.1
5889.1
6230.52
3965.18
-461.569
-351.712
213.975
353.293
-1336.06
-1555.66
734.36
1019.88
-1036.82
-1725.36
1768.77
2235.27
-3153.2
-1739.39
-8091.81
-5842.36
-4208.04
-3065.79
-3645.66
-3062.65
724.401
1666.5
4871.36
3347.06
-445.253
-2274.75
-483.918
-1886.39
757.734
-392.405
1363.53
1892.42
4148.84
4598.99
9844.92
6285.21
8586.69
8435.36
12954.5
10180.3
7774.29
4883.76
2770.11
3476.37
11648.7
4952.5
12481.4
4553.51
14885.1
9786.64
15823.7
9366.04
9328.13
3620.69
10122.6
3148.99
6219.14
5251.31
5138.13
8861.58
3263.48
4285.27
3546.33
7519.7
6815.53
4980.29
6143.21
10137.3
8102.69
4779.51
7086.98
10103
-548.435
-758.841
-907.131
211.667
-155.753
-215.707
-2115.82
-2704.72
-2972.15
437.031
-626.491
-794.62
-2547.44
-3866.1
-4438.67
1241.83
-1118.09
-1617.25
-1045.65
-1615.6
-1475.61
-4696.98
-5135.04
-4809.2
-3655.25
-4430.18
-4334
-3816.04
-5043.87
-5297.46
848.572
-1634.11
-1606.45
3904.24
1845.16
1011.27
-1563.63
-2899.2
-3331.37
-1735.91
-3249.86
-3643.35
-952.205
-2843.52
-3254.69
2231.57
-1102.88
-1363.41
80.7115
-5.55209
-38.1457
-84.3535
-103.573
-104.244
-121.316
-127.682
231.878
-6.79506
-113.541
-243.396
-251.561
-256.784
-286.974
-317.261
473.249
59.6649
-125.276
-373.639
-24.4575
-212.219
-266.706