/*--------------------------------*- C++ -*----------------------------------*\
| =========                 |                                                 |
| \\      /  F ield         | OpenFOAM: The Open Source CFD Toolbox           |
|  \\    /   O peration     | Version:  2412                                  |
|   \\  /    A nd           | Website:  www.openfoam.com                      |
|    \\/     M anipulation  |                                                 |
\*---------------------------------------------------------------------------*/
FoamFile
{
    version     2.0;
    format      ascii;
    arch        "LSB;label=32;scalar=64";
    class       volScalarField;
    location    "2.9";
    object      gradTz;
}
// * * * * * * * * * * * * * * * * * * * * * * * * * * * * * * * * * * * * * //

dimensions      [0 -1 0 1 0 0 0];

internalField   nonuniform List<scalar> 
5712
(
7050.75
21436.6
5343.11
23467.2
2928.37
24885.2
5010.12
39491.5
8198.24
49604.9
8393.92
35147.7
8952.65
31216
8818.75
26796.8
4147.43
2233.47
12500.8
5870.01
3869.48
1769.86
13501.5
5423.66
5381.19
3943.86
15897.6
11566.7
3605.24
2816.31
15994.7
12053.6
8089.79
2931.77
6093.47
2191.73
2770.95
7475.39
38573.3
11794.4
11556
5350.38
46905.7
14716.6
10816.8
5097.93
25478.8
8497.39
12971.4
5917.53
20685.6
6583.42
4644.98
2522.96
8362.83
3369.21
4100.04
2609.34
8787.69
3299.61
5526.32
3515.55
5495.38
2291.02
9869.06
3552.84
3889.41
1432.48
12011.6
8989.2
7307.24
6525.79
13595
11897.8
7377.82
7870.85
6722.33
5726.56
8688.9
7390.4
5460.14
4680.48
3184.83
2727.29
5485.5
5472.09
3152.9
3153.35
5200.14
4047.32
3050.87
2134.13
5743.11
3226.7
5729.9
6360.75
7569.29
5771.76
8152.09
10833.1
4222.15
1799.93
3695.86
3837.51
2401.02
834.703
1695.75
1472.74
5227.2
10652.6
3841.11
12073.7
5650.15
10811.2
4584.29
12877.4
7504.36
10780.4
6382.74
13152.2
8513.77
10418.6
6412.21
6403.74
7918.67
6870.67
7418.64
10132.1
11762.4
17314.5
9266.76
7342.52
6908.09
8760.6
14066
13287.8
12866
15541.2
15636.2
12995.4
13023.2
15613.2
15528.1
12028.6
12493.8
15011
15155.5
8658.92
9190.49
8302.03
8758.55
10040.4
10010.7
11689.2
11342.4
14715
14861.3
7910.42
8664.5
8837.33
9366.49
9783.32
10484.6
11215.2
12234.4
14738.3
15944.2
9220.29
6285.58
7470.45
7572.18
10427.2
11940.7
8480.44
11285.1
6800.91
6955.77
8639.45
6188.76
3120.64
5468.84
1275.76
2032.64
5250.29
8375.83
2060.94
3138.72
2583.02
4760.15
956.107
1726.83
6434.34
5507.2
6551.83
4082.64
9047.1
6435.72
10261.3
6823.08
2974.26
3509.74
3720.84
2099.45
2313.47
2543.39
2587.67
1965.32
11145.4
7316.4
2381.39
12074.4
7573.93
2613.91
10992.8
7160.63
2422
12081.4
7558.45
2553.6
10529.8
6752.17
2258.9
11906.1
7453.66
2558.55
6533.8
3696.5
947.278
7626.53
5199.6
1686.7
8678.22
6116.53
2060.35
9548.22
6194.08
2023.09
11559.4
7233.65
2557.33
7247.1
3946.5
1283.55
6835.95
4399.32
1516.68
7611.69
4997.49
1697.42
9028.36
5779.33
1964.75
10955.7
6352.31
2190.48
-493.56
987.042
438.052
2625.95
1728.47
1762.91
4470.39
3939.36
595.678
975.154
631.353
1023.18
331.777
941.521
619.649
1382.15
1884.58
1128.33
3818.06
2694.74
1752.83
2879.86
2910.84
854.598
5759.42
1845.4
-4007.54
-536.875
728.146
747.518
74.6003
244.206
10357
4674.47
2755.86
1678.24
10210.3
4749.19
3003.3
1979.63
9921.59
5235.62
4070.22
2961.99
3098.48
2070.63
1770.92
1623.29
13072.2
11446.7
5744.99
7343.92
14477.8
13531.3
7047.81
8465.2
5303.11
6404.18
11219.8
9307.05
3667.14
4798.38
2132.44
2801.74
4719.68
5522.7
2742.87
3175.85
3038.95
4230.66
1729.44
2578.59
4789.58
3508.58
5467.75
3820.13
8198.68
5080.41
7352.28
5039.57
2869.37
2393.29
3794.41
2619.66
1636.07
1513.24
2397.13
1605.53
12206.1
8432.38
6173.68
6631.96
12110.8
8387.79
6124.34
6515.38
12263.7
8021.74
6270.02
6063.84
13177.5
12587.8
12431.6
9697.17
5815.58
7687.97
9404.32
10112.2
9655.33
7054.35
10896.3
9896.65
8332.79
6879.16
4696.12
7495.51
7672.47
7680.41
9562.3
7419.35
7375.82
7485.2
9321.35
6997.91
6868.82
7081.52
8869.38
8654.7
8191.56
8217.69
7122.07
6318.04
6407.36
6266.7
6651.98
6183.03
8318.48
6333.21
7187.21
5403.77
6174.89
4945.46
5700.59
5006.15
6092.26
4749.83
7635.16
4750.34
3815.8
3246.53
1709.6
7174.96
5461.4
5795.19
3638.7
2555.2
1484.41
3785.28
3439.7
4235.63
1828.39
1980.7
1088.73
5438.66
3093.38
2244.53
1544.29
3501.66
1517.87
1784.87
903.1
2266.53
2748.08
2886.67
4913.06
3414.12
4211.52
3524.2
6421.95
2646.17
1990.24
2091.11
3486.92
1220.81
516.569
504.833
920.914
6130.69
2811.13
806.09
6703.65
1784.68
469.558
5914.26
2897.44
900.714
6628.16
1827.68
502.938
5308.84
2613.9
671.713
6270.48
1682.35
378.497
5525.36
3000.95
782.986
4774.87
2547.58
704.876
4820.01
2408.3
682.383
4889.05
2302.03
528.59
5905.92
1472.04
249.012
6144.37
3217.18
989.515
5420.25
2950.46
969.852
5026.24
2627.19
860.503
4980.04
2022.57
541.625
6087.46
1495.23
470.597
1844.41
711.199
329.672
1.00212
746.192
304.392
153.978
27.6128
1910.34
763.714
393.195
68.4136
904.843
410.402
258.902
121.25
2199.89
915.9
515.847
156.213
1564.19
814.221
469.935
223.256
1156.17
732.588
377.82
131.343
1208.86
838.622
509.993
292.106
1851.55
884.967
461.366
47.7065
1776.66
818.062
471.981
-46.8029
2332.98
982.812
558.875
119.59
2104.92
868.617
511.475
-79.4978
1405.53
776.41
415.162
56.7974
1381.31
725.735
444.196
73.3067
1045.33
678.601
439.766
261.242
959.141
608.96
425.384
250.026
2379.37
868.911
396.661
-102.168
2521.88
850.361
424.864
-293.271
2375.41
882.218
430.513
-67.6897
2422.23
821.284
423.6
-272.695
2397.52
909.004
496.54
-14.268
2171.9
744.71
420.504
-201.139
2225.23
876.196
550.461
135.971
2391.7
843.447
544.441
-200.702
1745.11
682.692
434.878
39.9972
2113.42
626.538
310.281
-273.267
837.448
222.902
94.5326
-67.423
2079.68
634.833
322.321
-245.315
850.229
234.451
106.027
-52.7219
1942.06
617.811
339.009
-193.469
813.231
236.289
120.359
-31.1831
1631.46
530.279
327.53
-136.444
714.938
209.618
129.663
-3.27519
1429.13
496.348
325.311
-58.4779
638.749
212.128
149.562
37.8783
1129.82
485.734
287.325
17.0812
582.608
297.012
187.351
103.042
1208.01
440.193
278.379
-20.3934
578.265
237.288
163.198
73.2196
1000.23
523.15
319.415
81.0431
593.074
354.612
224.125
143.186
774.224
506.962
347.672
214.015
548.592
384.649
266.774
202.818
14.7646
13.2441
9.1042
6.15839
4.76661
8.91353
6.89491
4.64466
3.15523
2.46024
38.8548
28.1033
18.13
12.0202
9.23308
42.5716
27.7769
17.257
11.2964
8.6449
95.2717
64.4811
40.5977
26.8074
20.5988
191.828
119.771
74.0498
48.5261
37.1534
198.185
126.57
79.1903
52.19
40.0978
216.48
133.739
82.6837
54.2911
41.7136
127.726
86.5199
54.9427
36.3717
27.862
101.038
68.0532
43.2578
28.7253
22.0397
132.135
86.2182
53.871
35.5906
27.3141
103.063
61.0041
37.419
24.646
18.8392
143.998
101.537
65.1367
43.284
33.2928
140.119
93.9593
59.602
39.5232
30.3691
193.051
122.162
75.8767
49.8803
38.3108
185.506
117.826
73.2845
48.1876
36.9619
4.79525
10.4078
7.5444
5.1511
4.00203
-1.29745
3.87647
2.96987
2.07211
1.63713
19.1477
18.5786
12.4878
8.38956
6.50674
1.83626
5.76473
4.1204
2.82515
2.23241
34.0258
28.8193
18.8281
12.6233
9.82309
19.9365
15.152
9.4704
6.20244
4.82777
110.297
71.115
43.9774
29.1227
22.4979
54.9148
35.3414
21.6241
14.259
11.0433
141.903
78.4646
46.9014
30.6081
23.4151
2271.41
3938.84
2134.04
3817.46
1975.73
3545.48
1916.1
3402.25
2108.37
3915.98
1217.44
1825.91
1718.41
2749.81
792.315
1084.48
294.741
424.619
6723.87
1615.19
369.451
81.6111
20.3714
1787.58
472.991
126.424
28.2424
6.27141
6685.44
1583.39
359.449
78.8104
19.58
1846
536.72
131.649
30.4441
7.60042
6474.17
1506.67
338.243
73.5723
18.1725
1792.01
519.629
126.501
28.9573
7.16058
6104.51
1392.37
309.636
67.0767
16.5513
1726.94
489.696
116.82
26.3093
6.41317
5385.04
1209.08
268.519
58.3794
14.4993
1615.09
436.963
101.85
22.647
5.46882
3049.36
730.469
167.883
37.325
9.42641
819.743
207.948
45.023
9.25193
2.09911
4242.61
988.086
223.112
49.0067
12.28
1147.36
299.97
68.4417
15.0297
3.60965
1914.41
470.303
109.627
24.6043
6.24718
521.595
135.187
28.6983
5.58966
1.20284
700.916
174.139
40.8792
9.23183
2.35518
251.598
58.7369
11.5984
3.16069
0.429702
-1180.37
630.301
4072.06
-3471.01
956.149
1019.74
2550.95
3110.4
2094.09
3388.57
2795.42
4227.22
2662.67
3480.4
1273.08
1858.02
1393.35
1622.27
975.061
1010.24
2842.84
2257.44
-413.194
-977.874
-1060.38
-1415.68
-768.657
11752
2971.2
3949.14
3219.48
309.035
-101.885
3257.15
-1073.35
-505.622
-895.962
-315.215
5805.71
2955.28
1273.67
707.7
3261.78
1461.76
179.521
337.81
-1199.11
-1200.37
815.224
685.905
9219.24
4572.16
4433.97
2560.29
3429.65
3105.85
-91.8787
-1178.57
232.63
2016.69
1815.26
1634.4
1577
1256.34
1826.26
1501.83
1245.01
942.461
383.356
-370.31
-307.8
-225.729
-134.95
-44.4914
-874.161
-731.543
-549.27
-340.105
-115.098
-947.756
-792.543
-593.846
-366.677
-123.903
-1266.77
-1061.09
-796.904
-493.229
-166.898
-679.969
-560.66
-412.748
-250.566
-83.8807
8898.85
8396.03
7425.56
7261.39
7103.33
2858.6
2423.96
2296.84
2016.99
960.654
3278.63
2687.28
2339.24
1931.75
936.649
2534.65
2047.03
1750.92
1362.28
535.321
272.483
201.231
229.082
196.279
108.301
-12.8965
63.2039
105.913
99.9052
41.0273
2736.55
2230.18
1778.88
1267.99
494.244
-686.379
-369.399
-188.312
-85.1888
-27.2013
-406.135
-291.026
-177.027
-84.8056
-22.7991
-654.85
-427.213
-252.671
-128.974
-39.8345
-292.408
-247.67
-180.39
-104.989
-33.2935
4086.6
4127.55
3713.65
3822.34
4030.95
2477.55
1992.8
1717.68
1363.56
560.414
1190.96
1068.68
901.401
641.151
239.144
633.058
546.974
451.908
318.487
117.965
2751.69
2222.55
1726.45
1173.07
434.275
1323.61
1129.16
897.861
594.447
197.606
156.632
135.955
119.26
89.9302
33.6106
312.437
278.241
232.509
161.462
57.7317
-1041.68
-842.797
-611.372
-367.864
-122.533
-1057.94
-868.648
-636.845
-385.107
-128.48
730.585
626.738
501.073
337.706
121.808
613.795
525.968
421.097
284.018
101.973
6176.51
5100.75
4658.12
4687.59
4090.67
3613.27
2908.29
2388.07
1817.33
777.275
3576.85
3098.95
2688.46
2286.76
1007.65
2062.41
1729.43
1422.07
1062.3
490.444
2962.55
2439.77
1895.57
1262.08
449.874
2628.52
1921.85
1624.57
1239.45
234.672
-73.9141
-46.841
-11.7148
10.6601
6.54405
-1046.58
-866.611
-640.273
-389.397
-130.34
227.693
216.305
199.575
150.882
53.9893
-27733
-43477.3
-20967.3
-36971.3
-22369.9
-52083.2
-29445.2
-63307.1
-15662.7
-10467.2
-17443
-9343.95
-14654.7
-9611.26
-17610.2
-8334.5
-22750.4
-15949.5
-31598.5
-22736.6
-17892.8
-13061.2
-27223.9
-20351.4
-13764.6
-13933.7
-9607.63
-9209.03
-11631.5
-12362
-41693
-12819.3
-13281.6
-6322.82
-49127.8
-15592.6
-12069.2
-5800.22
-29105.7
-9597.81
-14763.1
-6893.59
-24399.2
-7453.03
-10873.2
-4619.14
-14941.1
-5612.8
-9454.38
-4219.72
-13828.7
-4926.77
-9845.65
-4744.01
-8444.02
-3219.35
-11991.5
-4256.04
-4705.5
-1741.27
-9825.49
-7040.66
-8026.7
-5961.54
-8565.56
-7296.4
-7163.08
-6278.59
-8001.36
-5821.4
-9220.58
-7207.7
-6037.54
-4419.55
-3596.07
-2546.82
-5478.87
-4608.07
-3144.34
-2516.75
-6079.89
-4159.83
-3658.73
-2231.66
-7131.78
-3772.05
-6065.78
-6542.65
-9240.62
-6481.03
-8591.85
-11103.2
-5097.47
-2138.24
-3930.44
-3956.63
-2984.41
-1065.92
-1877.49
-1560.03
-9518.3
-12116.8
-5434.74
-13632.4
-9430.76
-11824.3
-5933.6
-14102.3
-10441.5
-11430.4
-7375.67
-13822.5
-5823.68
-3584.29
-7458.64
-8652.22
-8882.99
-5400.02
-7440.93
-11136.6
-12700.7
-17962.3
-4824.71
-5467.95
-6652.62
-9063.7
-14384.7
-12806.3
-10557.5
-15845
-13143.7
-12442.9
-10847
-15863.5
-13251.7
-11382.4
-10083.3
-15000.8
-13171.1
-7998.18
-7519.21
-7889.19
-7134.79
-9032.59
-8023.29
-10351.5
-9149.28
-14415.4
-13227.9
-6616.5
-7267.21
-7299.52
-7107.78
-8315.06
-8058.09
-10060.3
-9960.95
-14400.8
-14140.6
-7773.23
-5296.43
-6514.33
-6683.51
-8201.1
-10378.2
-6898.35
-9823.14
-6352.86
-6440.4
-7883.63
-5562.36
-2466.72
-4787.56
-698.159
-1461.05
-4081.56
-7289.8
-1082.01
-2247.99
-2287.59
-4370.73
-674.932
-1391.38
-6293.63
-5266.1
-6555.12
-4009.85
-8731.16
-6063.02
-10216.5
-6603.53
-2884.25
-3332.33
-3711.68
-2044.3
-2204.56
-2372.75
-2553.84
-1894.14
-7701.46
-2977.16
-8177.3
-2845.99
-7889.09
-2954.26
-8582.47
-3162.2
-7544.05
-2780.28
-9301.04
-3678.02
-4218.17
-986.166
-4974.83
-1782.46
-5725.88
-2233.81
-6920.08
-2625.5
-9268.62
-3594.52
-5164.66
-824.404
-4365.86
-1456.03
-4994.31
-1837.14
-6491.65
-2407.27
-8391.04
-2739.21
-6051.92
-5913.19
-3827.04
-3747.44
-9548.59
-7598.24
-7330.77
-5821.38
-5345.79
-5014.34
-2037.82
-1698.85
-4998.68
-4902.86
-1729.12
-1665.78
-2358.16
-5668.5
-3612.24
-6841.49
-4738.25
-1925.3
-2969.16
-603.805
-6357.83
-2129.86
4055.37
1340.48
-138.26
83.2888
1127.48
1333.48
-2719.32
-1584.03
-1066.82
-469.615
-2700.15
-1732.93
-1138.87
-438.882
-2967.4
-2084.12
-1210.35
-271.217
-939.571
373.055
430.429
1090.4
-5015.85
-4960.39
-3659.6
-4211.32
-7109.9
-6881.69
-5768.07
-5805.97
-2531.7
-3275.95
-4146.7
-4012.84
-2450.62
-2816.63
-1133.56
-1197.72
-4075.46
-3989.84
-2247.6
-2005.5
-1266.14
-2033.12
-244.018
-693.011
-1681.46
-1102.56
-2704.77
-1719.85
-2879.02
-2293.64
-3390.65
-2652
-665.906
-237.777
-1631.45
-711.195
267.077
558.1
-419.559
238.364
-3152.57
-3327.81
-2791.36
-4516.12
-3242.48
-3475.01
-2944.21
-4628.29
-3821.24
-3592.61
-3342.07
-4531.71
-2163.46
-2522.19
-2861.57
-2916.38
-2866.83
-4269.88
-3503.93
-3479.64
-4440.94
-5012.96
-4356.45
-3408
-3027.81
-2963.9
-2494.65
-4513.34
-5787.63
-7837.27
-13540.8
-4299.89
-4915.28
-7376
-12606.6
-4316.83
-5296.14
-6775.39
-11298.8
-7415.72
-6428.29
-6086.56
-5395.39
-4460.87
-4976.19
-4895.56
-6004.62
-5840.96
-10133.7
-5030.08
-5866.88
-3767.59
-4887.91
-3272.78
-4578.1
-3681.5
-5472.63
-3637.64
-8149.51
-2331.01
-2491.63
-1236.71
-264.758
-4613.59
-4089.26
-3826.79
-2192.16
-680.934
-147.691
-1734.99
-2281.48
-2519.27
-600.665
-456.817
18.8447
-3851.52
-1874.34
-911.601
-473.864
-1831.79
-385.867
-213.297
155.7
-731.753
-1763.58
-1770.68
-4471.2
-1863.17
-3471.06
-2595.22
-6455.08
-1181
-1058.59
-788.882
-2795.07
274.149
449.882
858.069
-94.7429
-4883.87
-1604.61
-9997.31
-1446.84
-4210.91
-1725.55
-9454.04
-1437.26
-3746.87
-1116.2
-7908.27
-798.088
-3483.14
-752.573
-3144.86
-750.093
-3699.21
-1118.42
-3674.59
-627.674
-7093.49
-678.615
-4278.59
-536.645
-3909.01
-594.984
-4069.36
-816.253
-4344.44
-473.158
-6990.55
-736.351
-738
-210.421
-52.2369
201.349
-230.252
-54.1268
-14.9581
59.5141
-711.24
-169.563
-39.8162
200.42
-100.726
37.1983
20.9497
73.5101
-771.143
-136.402
-1.43528
291.722
185.761
294.605
351.008
467.73
734.038
564.434
568.947
584.39
1069.99
784.794
638.922
476.31
-324.905
100.952
257.376
538.465
-330.444
147.552
209.351
600.187
-896.109
-131.754
42.9185
459.038
-722.795
-13.9417
62.4871
607.985
196.81
334.587
388.99
554.799
78.2642
309.563
318.151
527.166
631.78
527.676
460.057
411.695
508.221
464.607
387.217
392.608
-1216.57
-357.76
-131.742
346.616
-1669.2
-442.239
-257.605
556.467
-1188.02
-324.564
-130.062
343.7
-1617.82
-417.922
-251.421
535.98
-1183.4
-284.717
-149.07
332.705
-1458.78
-361.955
-243.036
470.152
-818.042
-97.0736
-63.7255
368.569
-1381.16
-274.805
-245.102
591.932
-616.693
-23.1918
26.7873
524.115
-1655.43
-345.177
-202.59
481.33
-726.435
-127.155
-48.731
135.932
-1488.72
-292.668
-183.34
462.535
-674.994
-110.928
-44.7026
131.124
-1208.84
-198.62
-162.437
410.738
-562.207
-75.8323
-36.6917
124.758
-940.157
-127.133
-137.415
353.23
-473.024
-56.229
-36.0847
111.584
-637.165
-35.4601
-57.1322
339.273
-265.513
6.55042
-2.06262
114.565
-247.301
124.788
165.769
410.866
147.978
203.993
176.261
221.897
-546.529
-15.9935
24.7575
351.216
-37.7746
99.9114
77.0463
157.497
105.67
288.316
278.865
428.705
278.654
296.249
253.855
264.033
441.022
418.37
332.409
342.967
399.478
359.221
279.277
251.574
60.1096
21.6572
10.3669
6.21221
4.65753
25.8201
10.0277
4.94172
2.96183
2.20492
84.0313
36.017
19.256
12.0591
9.17776
61.9761
30.8653
17.7489
11.4013
8.73942
152.61
72.657
41.0018
26.0686
19.8953
227.26
125.836
74.4831
48.1523
36.9709
236.464
134.089
79.5969
51.3795
39.3505
230.418
136.363
82.7247
53.8622
41.316
193.931
97.8144
56.0396
35.8139
27.4855
157.977
76.9952
43.7514
27.8385
21.3355
189.079
92.546
52.9469
33.7319
25.8009
120.435
61.9245
35.9434
22.9589
17.6389
219.793
115.074
66.5954
42.6265
32.6254
195.307
103.654
60.4031
38.7511
29.725
215.538
125.931
76.0996
49.4751
37.936
208.71
122.057
73.6491
47.8415
36.7023
64.8249
19.5033
8.78948
5.16986
3.85015
30.0911
7.67276
3.24911
1.84575
1.34146
74.5619
26.6424
13.3208
8.1389
6.11256
32.3489
9.35246
4.33143
2.56035
1.87423
92.1374
35.8372
18.8557
11.6615
8.74877
42.7612
17.5197
9.67035
6.14718
4.61825
154.861
72.5893
41.2514
26.0645
19.7559
74.3681
34.9449
20.0764
12.7379
9.62389
133.44
74.315
44.2122
28.4715
21.8346
-2726.54
-4113.21
-2601.5
-4024.39
-2393.67
-3741.08
-2257.93
-3559.51
-2269.04
-3886.99
-1277.53
-1830.18
-1803.81
-2740.34
-814.985
-1075.92
-290.005
-401.836
-7567.11
-1792.29
-405.69
-88.868
-22.0158
-1993.54
-524.718
-139.264
-30.8599
-6.79368
-7428.46
-1739.82
-391.698
-85.2967
-21.0568
-2067.61
-596.316
-144.929
-33.2414
-8.23787
-7026.43
-1625.78
-363.328
-78.7007
-19.3553
-1999.58
-573.49
-138.394
-31.4457
-7.72634
-6447.44
-1469.64
-326.564
-70.6461
-17.3961
-1891.48
-531.972
-126.203
-28.2808
-6.86442
-5549.35
-1249.87
-278.057
-60.4852
-15.0167
-1714.77
-464.038
-108.076
-23.9865
-5.7821
-3075.78
-739.016
-170.32
-37.9463
-9.59789
-843.468
-216.176
-47.2471
-9.7841
-2.23685
-4306.98
-1006.68
-227.922
-50.1457
-12.5762
-1192.7
-313.924
-71.8829
-15.8038
-3.7987
-1923.87
-474.113
-110.865
-24.9509
-6.34993
-530.563
-139.498
-30.09
-5.96704
-1.31076
-703.011
-175.841
-41.5597
-9.44493
-2.4236
-251.897
-60.7692
-12.4862
-3.44316
-0.519233
769.075
-1409.72
-5196.23
1846.36
-6467.26
-2830.51
-6334.68
-2857.14
-10650.4
-5787.43
-12485.1
-6817.03
-131.157
-532.043
-824.436
-949.852
-835.498
-458.2
-208.295
-804.975
-1220.14
-1346.02
-1094.92
-413.794
-103.833
-101.744
-388.43
-364.795
-499.73
-480.955
-353.595
-360.321
-232.137
-266.365
-396.066
-296.707
474.249
1774.4
3451.53
2748.28
2496.22
1209.47
756.786
2280.52
3775.38
4167.3
3543.57
1631.85
-118.331
-100.086
-75.89
-47.3155
-16.0708
-480.663
-407.245
-309.356
-193.164
-65.663
-744.749
-630.925
-479.235
-299.231
-101.72
-857.697
-726.273
-551.414
-344.187
-116.982
-753.988
-637.944
-483.896
-301.785
-102.517
-413.702
-349.778
-264.604
-164.378
-55.671
-187.851
-158.816
-120.379
-75.0376
-25.4849
-726.962
-615.669
-467.527
-291.875
-99.2123
-1101.69
-932.875
-708.353
-442.235
-150.331
-1214.69
-1028
-780.284
-487.068
-165.569
-987.377
-834.999
-633.434
-395.296
-134.365
-373.627
-316.136
-239.602
-149.219
-50.6329
-93.733
-79.3372
-60.1998
-37.5524
-12.7577
-91.8971
-77.8338
-59.0983
-36.885
-12.5348
-351.016
-297.499
-226.057
-141.178
-47.9941
-329.715
-279.499
-212.418
-132.679
-45.1083
-451.539
-382.641
-290.712
-181.539
-61.7118
-434.59
-368.288
-279.817
-174.742
-59.4031
-319.477
-270.69
-205.594
-128.336
-43.6127
-325.427
-275.621
-209.286
-130.633
-44.396
-209.525
-177.214
-134.238
-83.5523
-28.3383
-240.13
-202.917
-153.71
-95.7525
-32.5048
-356.472
-300.343
-226.494
-140.405
-47.5059
-266.867
-224.796
-169.638
-105.305
-35.6728
423.338
356.103
271.492
171.703
59.0459
1578.02
1322.56
1006.35
636.677
219.179
3037.71
2531.53
1937.15
1244.84
434.723
2407.26
2029.39
1575
1034.28
381.167
2199.75
1858.35
1444.04
942.602
331.457
1096.93
942.491
735.95
474.283
161.948
676.254
568.153
431.025
270.66
92.5829
2032.89
1705.24
1294.29
814.736
279.391
3348.91
2802.26
2132.36
1351.78
466.861
3683.39
3082.63
2355.63
1505.66
525.784
3129.08
2620.65
2009.79
1291.05
451.059
1454.47
1228.97
948.791
611.04
213.128
305.791
702.086
985.154
1097.41
968.306
598.875
447.693
1035.67
1431.1
1523.11
1225.56
499.725
237.34
209.15
511.921
464.818
601.366
563.866
419.917
411.692
281.032
252.102
520.955
323.894
-313.021
-1542.66
-3034.17
-2199.11
-1815.54
-447.688
-693.371
-2176.49
-3532.36
-3731.18
-2902.82
-858.325
276.697
234.893
178.795
111.824
38.0465
634.971
538.692
409.774
256.156
87.132
890.756
755.484
574.541
359.094
122.137
992.028
841.171
639.572
399.689
135.937
875.294
742.125
564.178
352.51
119.875
542.503
460.72
350.362
218.705
74.2911
405.044
343.797
261.664
163.646
55.6785
936.414
794.204
604.009
377.538
128.417
1293.46
1096.6
833.73
521.041
177.22
1376
1166.07
886.299
553.854
188.385
1106.68
937.45
712.374
445.169
151.431
452.182
383.666
291.694
182.16
61.9112
214.769
182.328
138.785
86.7984
29.531
189.256
160.661
122.285
76.4743
26.0174
463.042
392.891
298.9
186.856
63.5586
420.448
356.756
271.41
169.67
57.7127
543.844
461.357
350.917
219.341
74.6019
509.915
432.55
328.989
205.628
69.9372
379.825
322.277
245.15
153.226
52.1101
372.229
315.688
240.059
150.022
51.0203
254.412
216.006
164.327
102.664
34.8979
227.892
193.222
146.878
91.7563
31.1973
471.335
399.84
303.873
189.675
64.4426
292.725
248.082
188.45
117.64
39.9811
-275.929
-229.319
-173.641
-109.808
-37.8543
-1366.8
-1141.59
-867.341
-549.185
-189.312
-2655.3
-2201.69
-1682.28
-1083.96
-379.719
-1891.32
-1572.45
-1211.56
-798.603
-300.397
-1552.92
-1279.83
-977.693
-634.025
-222.149
-370.035
-288.81
-205.27
-120.001
-35.7858
-618.844
-519.397
-393.917
-247.472
-84.6993
-1939.41
-1626.56
-1235.05
-778.121
-267.03
-3128.03
-2613.69
-1988.15
-1261.46
-436.152
-3280.96
-2732.96
-2082.91
-1331.66
-466.079
-2532.65
-2097.33
-1596.93
-1024.31
-358.422
-731.415
-591.352
-442.82
-282.147
-98.4308
-1913.75
-1393.06
806.891
1312.02
1378.05
1909.26
1251.86
-9878.46
-1507.09
-2982.05
-1313.56
699.171
-4051.1
1019.39
2441.06
872.171
-4847.59
-1950.76
-490.916
-233.061
-2912.13
-705.388
246.783
211.24
1935.01
1891.45
-445.826
-241.646
-8246.18
-3805.35
-3499.85
-1782.6
-2904.29
-2142.98
748.241
1918.56
382.236
-1034.96
-883.07
-815.793
-965.292
-1000.92
-976.491
-719.749
-592.306
-490.799
-217.207
734.209
624.87
473.769
293.635
99.1928
1182.56
999.814
758.86
474.094
161.262
1242.81
1051.05
797.217
497.408
169.095
1721.17
1455.28
1104.11
689.311
234.418
1129.81
955.835
724.518
451.503
153.472
-7236.45
-7104.06
-6599.21
-7064.39
-7750.81
-1061.06
-705.682
-857.889
-1028.75
-541.029
-2284.22
-1766.8
-1589.38
-1447.67
-774.382
-894.935
-639.274
-642.75
-611.47
-221.299
619.739
511.166
375.758
226.751
76.2916
-3381.41
-2740.54
-2173.99
-1542.1
-598.055
912.193
763.655
571.786
352.058
118.303
2126.89
1747.73
1320.55
842.425
295.809
787.436
665.084
500.902
308.852
103.554
-3175.78
-3317.8
-3099.49
-3527.6
-4198.03
-1459.27
-1034.55
-923.542
-834.367
-372.412
-395.669
-321.661
-281.321
-226.084
-91.3145
-173.289
-128.779
-113.343
-96.8083
-40.5121
-2446.81
-1971.65
-1546.85
-1073.21
-405.068
-593.458
-464.909
-357.306
-236.325
-69.8041
242.424
216.754
160.305
90.6718
29.0887
205.833
183.351
135.933
78.069
25.7483
1731.06
1452.91
1097.52
684.92
233.399
1702.02
1435.57
1085.71
675.749
229.517
-375.845
-305.594
-241.451
-167.428
-62.2445
-193.215
-150.627
-121.477
-89.5837
-34.403
-5264.55
-4296.98
-4027.38
-4332.18
-4090.6
-2886.94
-2258.06
-1866.04
-1477.84
-661.233
-2635.11
-2253.23
-1988.56
-1824.1
-827.757
-1322.69
-1065.49
-888.198
-715.307
-375.866
-2470.3
-2005.6
-1552.72
-1041.78
-372.76
-1701.87
-1055.68
-917.403
-773.401
-48.7955
691.093
594.703
447.828
272.226
91.898
1730.29
1462.55
1107.4
689.257
234.006
365.287
322.768
238.459
138.008
47.8591
-97.2402
-199.885
-233.53
-279.128
-405.598
-566.398
-19457.7
-16010.8
-15099.9
-18081.4
-13703.3
-10491.4
-12643.3
-9609.77
-17082.7
-13566.8
-14352.8
-12203.3
-12331.5
-9356.12
-11671.1
-16396.1
-14366.3
-12820.1
-14554.8
-12188.8
-9453.17
-10899.7
-8195.36
-15828.6
-13333.5
-14256.1
-12480
-12326.6
-10293.6
-11945.8
-12790.4
-11720.6
-10301.6
-11207.3
-10207.9
-8441.08
-9173.79
-7878.41
-13178.1
-12030.1
-12509.3
-11602.6
-11416.6
-9903.28
-11093.3
-8802.27
-8445.09
-7347.15
-7634.45
-7825.07
-7335.44
-7020.99
-7022.33
-9516.42
-10533.8
-9212.42
-10097.2
-8793.99
-8014.27
-9565.94
-5673.48
-5588.22
-4735.7
-4807.69
-5521.39
-5595.53
-4685.68
-4859.78
-6672.62
-8131.86
-6558.19
-7569.14
-6449.75
-6251.98
-7191.9
-2075.11
-2062.76
-1705.36
-1720.29
-2079.31
-2183.09
-1682.63
-1677.52
-2736.92
-3420.94
-2671.99
-3008.14
-2651.57
-2625.32
-2861.57
-7418.26
-7478.34
-10354.9
-11397.6
-7514.06
-7133.21
-9648.26
-8054.45
-7139.6
-4715.88
-7282.82
-4637.83
-7391.97
-7405.62
-4737.06
-7072.39
-6929.37
-9564.25
-10322.1
-6709
-5931.02
-8716.18
-7170.89
-5080.57
-2071.26
-5044.17
-2307.12
-4326.45
-4112.81
-2657.19
-5968.45
-5880.49
-8077.39
-8506.27
-5931.34
-5498.72
-7588.41
-6840.02
-2749.43
-2017.02
-2738.31
-2634.2
-2697.45
-2948.44
-3336.85
-4419.13
-4451.24
-5947.96
-6074.16
-4605.38
-4575.87
-5868.48
-5797.77
-2833.59
-1886.37
-3065.53
-2883.17
-3376.68
-3939.81
-3861.61
-2750.3
-2778.98
-3796.69
-3825.37
-2734.52
-2764.88
-3782.7
-3750.45
-1588.91
-1400.5
-1809.64
-2286.81
-2322.35
-2828.02
-3045.25
-926.751
-940.005
-1343.54
-1348.88
-940.875
-995.716
-1332.66
-1297.35
-280.017
-575.775
-458.034
-1026.78
-794.9
-1026.9
-1269.78
6967.81
20994.1
5333.49
23479.1
2924.32
24889.9
5008.06
39490
8194.8
49600.5
8386.45
35145.3
8939.63
31212.5
8700.84
26169.2
4145.61
2233.1
12502
5870.25
3868.21
1769.45
13500.5
5423.29
5315.19
3895.06
15600.1
11350.7
3596.67
2812.57
16008.6
12070
8094.79
2930.16
6094.59
2191.52
2770.82
7482.54
38576.1
11794.6
11556.6
5350.25
46905.1
14716.1
10816.6
5097.58
25485.4
8498.61
12972.9
5917.85
20695
6585
4608.34
2490.65
8194.21
3295.76
4103.24
2609.24
8802.71
3303.06
5528.42
3515.89
5500.22
2292.51
9874.56
3554.66
3890.75
1432.98
12011.4
8989.18
7307.3
6525.8
13595
11897.9
7377.68
7870.79
6722.78
5726.68
8688.89
7390.44
5460.31
4680.5
3184.66
2727.18
5485.39
5472.03
3152.71
3153.26
5200.7
4047.45
3050.88
2134.08
5744.15
3227.14
5730.11
6360.85
7569.91
5771.94
8152.25
10833.1
4223.13
1800.33
3696.04
3837.61
2401.24
834.816
1695.76
1472.76
5234.5
10676.8
3825.43
12095.9
5654.98
10803.8
4586.21
12870
7504.97
10777.6
6382.49
13149.5
8513.77
10418.8
6412.26
6404.52
7918.49
6870.7
7418.49
10131.6
11761.5
17313.1
9266.84
7342.5
6908.05
8760.6
14065.8
13308
12874.6
15566.4
15616
12989.3
13020.3
15606.9
15530.5
12026.1
12492.2
15008.8
15155.6
8658.85
9190.32
8301.74
8758.21
10039.6
10010
11687.7
11341.4
14714
14861.1
7910.33
8664.34
8837.09
9366.21
9782.9
10484.2
11214.7
12233.9
14738.1
15944
9220.14
6285.5
7470.37
7572.12
10427.1
11940.6
8480.38
11285
6800.87
6955.76
8639.29
6188.7
3120.62
5468.8
1275.72
2032.62
5250.26
8375.76
2060.91
3138.7
2583.02
4760.14
956.074
1726.81
6434.36
5507.21
6551.85
4082.64
9047
6435.7
10261.2
6823.05
2974.28
3509.75
3720.86
2099.45
2313.47
2543.38
2587.67
1965.3
11142.5
7308.28
2382.87
12060.5
7561.54
2608.69
10989.5
7158.33
2420.72
12081.5
7557.37
2552.71
10528.4
6751.12
2258.43
11906.1
7453.09
2558.18
6533.61
3696.35
947.223
7626.2
5199.35
1686.6
8677.71
6116.14
2060.2
9547.56
6193.57
2022.89
11559.2
7233.28
2557.12
7246.94
3946.37
1283.5
6835.7
4399.12
1516.59
7611.36
4997.23
1697.31
9028.02
5779.05
1964.62
10955.5
6352
2190.31
-495.449
986.395
433.419
2625.04
1727.09
1762.32
4467.61
3938.55
585.719
971.392
619.469
1015.3
334.24
943.569
622.323
1383.94
1887.48
1129.85
3818.44
2694.96
1754.62
2882.87
2910.41
854.789
5758.99
1845.22
-4006.32
-535.633
728.432
748.218
76.6487
245.759
10341.3
4669.34
2749.69
1672.05
10209.1
4750.88
3003.05
1981.53
9920.8
5235.96
4070.79
2963.23
3099.56
2071.69
1772.23
1624.2
13072.4
11446.7
5744.8
7343.88
14478
13531.4
7047.57
8465.12
5303.15
6404.15
11219.5
9306.82
3667.08
4798.4
2132.66
2801.88
4719.5
5522.65
2742.84
3175.86
3039.21
4230.78
1729.91
2578.84
4789.71
3508.89
5467.72
3820.14
8198.16
5080.16
7351.91
5039.22
2869.81
2393.76
3794.57
2619.84
1636.69
1513.74
2397.42
1605.79
12207.2
8448.12
6178.83
6642.99
12108.8
8383.75
6122.89
6508.21
12261.6
8019.44
6268.56
6060.72
13177.8
12588.2
12431.1
9696
5814.66
7688.07
9404.25
10111.5
9653.75
7052.53
10896.4
9896.63
8332.45
6878.58
4695.53
7507.43
7678.53
7686.75
9556.41
7415.92
7372.05
7477.73
9317.71
6995.95
6867.34
7078.39
8867.9
8654.7
8191.45
8217.56
7121.88
6317.6
6406.98
6265.78
6651.27
6181.57
8317.79
6333.21
7187.11
5403.73
6174.76
4945.25
5700.39
5005.76
6091.97
4749.16
7634.82
4750.37
3815.78
3246.52
1709.58
7175.02
5461.37
5795.18
3638.67
2555.15
1484.37
3785.16
3439.63
4235.63
1828.4
1980.75
1088.76
5438.64
3093.36
2244.53
1544.3
3501.69
1517.88
1784.96
903.143
2266.46
2748.04
2886.61
4913.04
3413.91
4211.41
3523.95
6421.86
2646.21
1990.26
2091.17
3486.97
1220.92
516.624
504.966
920.992
6130.38
2810.08
807.541
6703.83
1788.33
470.316
5911.6
2899.07
901.529
6626.8
1829.51
503.833
5308.04
2614.33
671.993
6269.94
1682.68
378.723
5525.23
3000.86
782.95
4774.73
2547.51
704.852
4819.8
2408.29
682.396
4888.62
2302.01
528.573
5905.7
1472.13
249.057
6144.26
3217.1
989.48
5420.14
2950.39
969.818
5026.11
2627.12
860.473
4979.86
2022.45
541.56
6087.36
1495.24
470.621
1838.25
707.137
325.796
-1.93304
739.601
300.705
151.165
25.8445
1911.21
764.064
393.459
68.5979
905.731
410.792
259.209
121.447
2200.05
915.987
515.965
156.338
1564.56
814.415
470.144
223.384
1156.5
732.768
377.983
131.431
1209.29
838.862
510.143
292.173
1851.7
885.064
461.466
47.7898
1776.68
818.111
472.047
-46.7341
2332.87
982.798
558.94
119.702
2104.74
868.577
511.514
-79.4151
1405.76
776.549
415.264
56.8618
1381.44
725.835
444.28
73.3723
1045.62
678.771
439.875
261.304
959.337
609.095
425.478
250.089
2381.28
868.734
395.038
-104.457
2527.06
851.721
424.662
-294.905
2374.64
881.907
430.403
-67.6972
2418.86
820.142
423.14
-272.535
2396.81
908.747
496.486
-14.185
2170.4
744.172
420.332
-201.036
2224.77
876.044
550.486
136.101
2390.84
843.141
544.385
-200.602
1744.83
682.606
434.911
40.1198
2121.45
629.293
311.366
-274.76
842.578
224.493
95.0547
-67.9371
2075.91
633.665
321.914
-245.115
849.786
234.379
106.055
-52.6951
1940.34
617.258
338.891
-193.343
812.669
236.128
120.349
-31.1228
1630.7
530.021
327.489
-136.378
714.609
209.512
129.653
-3.23159
1428.77
496.23
325.311
-58.4202
638.575
212.071
149.565
37.9171
1129.79
485.748
287.363
17.1351
582.578
297.022
187.381
103.086
1207.88
440.154
278.394
-20.342
578.17
237.265
163.214
73.2607
1000.29
523.214
319.475
81.099
593.112
354.66
224.172
143.233
774.358
507.068
347.748
214.071
548.688
384.732
266.834
202.865
13.7599
12.6217
8.68994
5.85906
4.51703
8.31208
6.4966
4.36002
2.93488
2.26932
38.9551
28.1707
18.1644
12.0357
9.23702