/*--------------------------------*- C++ -*----------------------------------*\
| =========                 |                                                 |
| \\      /  F ield         | OpenFOAM: The Open Source CFD Toolbox           |
|  \\    /   O peration     | Version:  2412                                  |
|   \\  /    A nd           | Website:  www.openfoam.com                      |
|    \\/     M anipulation  |                                                 |
\*---------------------------------------------------------------------------*/
FoamFile
{
    version     2.0;
    format      ascii;
    arch        "LSB;label=32;scalar=64";
    class       volScalarField;
    location    "2.9";
    object      gradTy;
}
// * * * * * * * * * * * * * * * * * * * * * * * * * * * * * * * * * * * * * //

dimensions      [0 -1 0 1 0 0 0];

internalField   nonuniform List<scalar> 
5712
(
12509.9
6872.82
21814.2
14269.5
20996
17834.8
30996
38337.6
47143.1
59617.1
24956.7
21905.3
15371.8
10580.4
10134.7
5768.75
20887.7
18959.9
18846.2
18731.3
23983.9
23112.5
27646.1
23881.7
7383.18
5204.06
3840.51
2657.73
10769.5
6984.07
5962.63
3863.86
21118.4
22421.9
19019.3
15624.5
15429.4
11992.3
13017.1
12418.8
17440.3
17110
35368.3
38927.6
25425.7
26845.2
18217.2
14338.5
18666.1
13121.3
7927.64
6831.57
5875.41
8585.64
2918.68
3927.37
7796.71
11485.9
4887.59
6637.03
7977.91
13791.2
6070.77
9878.84
1907.67
6653.33
339.391
4771.59
18042.8
21720
18849
21447.3
22825.4
23317.6
23170.3
22684.5
16715.3
20208.2
16772.8
19954.6
18846.7
21249.8
18475.2
21085.6
23288
22311.3
23258.7
22098.3
15673.8
20225.5
14291.2
20124.3
17078.8
18147.1
21522.2
29883.7
17860.2
20836.1
21380.2
32494.2
16176.3
16128.9
21427
28458.2
15555.6
14838.2
21406
27760.9
4209.65
5275.55
11441.9
18478
5076.9
5651.18
14212.6
20834.8
6088.65
6331.68
17446.6
23651.6
24577
27567.9
20448.3
18513.2
24773.4
28131.5
24140.5
20505.1
17161.3
27874.1
25789.1
23587.6
19596.8
19804.1
36456
1540.06
2026.02
4073.47
8270.11
2191.53
3023.17
5451.45
9746.72
3324.02
3212.18
7357.78
11716.3
27597.2
27849
22740.7
22019.3
18931.3
17066.9
13711.8
12272.2
10382.8
15306
24385.9
22278.5
22357.2
21207
18692.3
17469
15884.9
14187.3
12405.8
16879.7
22860.4
24421.5
23605.4
25983.7
23228.3
21560.2
23498.7
22615.4
20462.5
20744.1
20202.6
20149.9
23981.6
26599.5
23766.7
26300.9
23754.3
23524.9
23435.1
23305.9
20269.6
20586.7
20502.9
20719.8
17412.7
17252.9
11894.2
14177.8
17554.8
16992.8
12210.8
14610.1
16945.5
17016.3
11762.1
14217.9
17096.7
16828.3
11655.5
13887.4
1778.56
1475.58
1103.89
1005.7
879.757
869.177
2648.78
1926.89
1530.41
2333.03
2113.13
1857.21
2858.65
2836.22
3052.99
4215.46
3729.14
3456.95
26966.7
24425.4
22576.5
22298.4
21231.6
20266.1
15153.6
14712.7
14494.7
10625.2
10227.4
10086.3
6845.42
5167.05
4287.87
21308.9
19976.5
18960.9
21114.2
19991.1
19326.3
15635.8
14145.8
13312.8
11162.7
10015.3
9507.58
7280.38
5494.6
4557.76
27799.7
28970.1
29511.4
27222.4
27087.4
27205.5
32235.9
27887.7
17761.6
19621.5
17673.3
17448.2
23579.9
20819.2
23009.6
18204.9
25327.2
26517
21779.3
24578.9
28642.9
25029.2
28248
29272.9
29860.7
31949
24224.2
24824.9
21119.4
20792.6
24096.4
23229.5
16354.9
9122.92
15223.9
10113.9
15871.3
8918.69
14640.3
9772.77
14524.9
8241.16
13599.4
9282.07
13335.2
9651.59
12788.4
9635.53
22396.6
17817.3
21822.4
17848.2
25010.1
22523.3
24948
22048.1
20103.9
14047.1
21014.2
13644.9
22156.7
17848.2
22701.9
17779.2
25450.9
21840
25828.4
21704.3
19489.1
14179.2
19311
14154.8
11878.8
8016.43
10573.7
6437.69
11009.3
7141.5
9928.03
5856.93
12123.1
8522.29
10848.8
6762.96
12179.2
8865.33
10911.5
6957.4
2586.33
1375.27
4677.07
2453.34
2677.55
1601.59
4730.78
2732.29
2927.33
2168.72
4673.03
3197.68
13525.2
22641.3
8666.76
7790.34
5290.86
23207.6
14970.8
8306.21
7348.88
4018.55
22372.9
16244.9
11881.8
8591.15
4924.13
988.183
985.923
1589.22
1519.59
1244.58
962.848
1988.91
1827.6
1783.09
1605.33
2474.86
2212.49
23662.6
22890.2
15155.8
14064.4
9480.09
9311.37
7212.55
7081.43
3652.87
3292.66
20635.7
17929.7
15117.1
13216.9
11296.9
10496.5
7891.94
7783.75
4545.43
5328.59
14261.9
11490.1
14361.7
10811
18116.9
13571.4
18320.9
13288.2
11720.9
9651.55
11606.9
10320.5
14792.1
10282.5
14883.2
10365.6
19158.4
13596.4
19070.4
13665.9
11786.6
9040.45
11951.2
9392.02
8254.02
7766.61
5101.98
7271.86
8381.83
8164.01
5196.77
7190.63
8223.53
7540.31
4939.82
7621.71
8651.79
7590.8
5162.93
7531.46
2651.25
2134.73
1676.56
10202.6
4964.66
3794.89
2411.41
2282.22
1948.49
10593.4
5734.13
4618.3
2957.37
3171.69
3192.93
11007.7
6999.51
6137.82
20917.8
19226.8
17963.8
13517.4
12906.9
12457.3
9879.96
9644.31
9497.85
8770.82
8405.81
8247.91
12498.5
9073.3
8147
15518.5
14142.8
13188.2
11938.4
11074.2
10549.8
10604.8
9707.18
9019.1
10265.3
9278.57
8735.68
16035.9
11267.5
10320.6
4721.43
2787.89
2100.2
2099.62
5356.44
3042.96
2198
2154.02
4565
2735.6
2090.21
2124.87
5310.85
3049.41
2218.09
2163.62
4287.45
2656.08
2096.25
2080.01
5152.89
3073.82
2268.53
2108.72
5428.78
3217.25
2300.92
2260.64
5594.3
3366.57
2410.55
2361.5
4587.54
2830.06
2175.3
2102.94
3535.14
2390.35
1990.61
1980.52
3888.09
2508.37
2050.4
1913.17
3093.61
2181.55
1888.6
1877.52
4999.45
3062.4
2276.59
2225.23
3805.58
2552.53
2067.51
2050.53
5233.16
3224.63
2365.45
2283.48
3956.79
2670.73
2134.45
2075.65
3436.99
2354.76
1940
1974.08
2034.64
1828.41
1729.79
1816.9
3306.28
2306.12
1931.64
1971.71
2007.08
1817.72
1724.72
1826.91
3103
2229.27
1920.08
1952.86
2067.03
1842.12
1724.08
1864.75
2866.24
2106.05
1862.37
1941.24
2070.93
1837.27
1746.74
1863.13
2509.76
1973.18
1764.56
1807.5
440.974
1323.06
1338.08
419.325
-1487.87
1035.06
1135.48
403.832
620.041
1388.77
1363.54
444.509
-1205.53
1113.16
1157.14
411.036
904.787
1486.16
1389.8
442.954
-773.883
1236.24
1185.03
413.221
1283.24
1602.04
1421.55
471.137
-300.756
1381.73
1227.02
428.27
1790.36
1752.78
1481.15
527.459
107.908
1510.24
1267.74
440.688
2120.13
1923.04
1523.04
488.659
-81.6731
1638.88
1352.21
459.656
2084.15
1848.96
1485.72
491.306
-0.311347
1591.77
1306.66
447.087
2081.93
1977.98
1566.97
459.532
-221.464
1684.56
1392.26
462.22
2067.96
2054.81
1641.35
477.846
-45.8304
1763.45
1447.71
477.494
2123.24
1691.57
1215.74
729.662
243.021
2126.22
1692.99
1217.06
730.445
243.272
2160.97
1705.29
1222.13
732.595
243.874
2157.51
1708.93
1225.21
734.328
244.421
2184.61
1720.29
1229.26
735.866
244.824
2167.96
1731.43
1237.49
740.339
246.229
2242.17
1761.71
1254.83
749.227
248.958
2283.75
1790.45
1272.34
758.355
251.774
2243.63
1750.61
1245.31
743.806
247.235
2311.89
1760.55
1247.07
744.173
247.296
2206.15
1736.49
1236.76
739.332
245.838
2296.46
1751.6
1241.84
741.459
246.447
2273.03
1767.48
1255.72
749.294
248.943
2339.69
1777.26
1257.17
749.48
248.95
2300.82
1797.56
1274.7
759.254
252.027
2372.28
1806.48
1275.64
759.221
251.981
2123.34
1690.98
1214.43
728.821
242.749
2160.49
1692.74
1213.78
728.332
242.589
2148.99
1702.08
1219.33
730.986
243.364
2183.81
1702.68
1218.1
730.22
243.126
2188.46
1717.04
1225.71
733.811
244.168
2232.38
1716.95
1224.03
732.829
243.865
2247.18
1733.45
1232.76
737.014
245.09
2281.16
1730.29
1230.32
735.742
244.691
2283.82
1743.81
1237.72
739.383
245.798
7973.22
12300.4
8433.03
12683.7
9197.78
13310.7
10111.7
14373.7
11145.7
16185.9
10406.4
12848.6
10642
13696.7
10379
12728.4
10270.7
12711.8
6378.91
1139.83
250.119
56.0716
9.86357
7586.09
2091.07
508.018
114.955
20.0467
6545.16
1127.79
242.854
53.9355
9.43286
7763.75
2108.11
505.459
112.874
19.6121
6848.94
1135.91
238.435
52.2433
9.07409
8104.54
2152.23
506.566
111.757
19.2764
7219.51
1140.96
233.437
50.6397
8.76841
8544.3
2208.5
511.687
112.041
19.2654
7544.29
1145.4
232.762
50.7409
8.83972
8962.59
2259.75
522.661
115.035
19.8908
7416.94
1337.42
301.395
69.7738
12.5848
8362.18
2373.27
592.291
137.769
24.7195
7505.76
1261.23
270.9
60.8206
10.77
8620.09
2332.55
560.206
126.46
22.2383
7376
1388.64
321.937
76.0447
13.8958
8297.88
2400.6
611.888
145.085
26.4085
7344.12
1372.01
319.507
76.0913
13.9967
8260.67
2387.31
612.795
146.448
26.8043
34683.7
48181.3
43157.2
32647
18286.2
19180.9
29143
29185.7
19621.6
20923.4
31258
41546.5
46141.5
62531.6
23536.5
25814.5
19056.5
18555.9
13218.9
13576.6
4181.17
3019.66
912.482
736.991
869.701
756.905
900.893
4226.04
4375.45
2851.37
3815.59
3488.96
1686.43
2313.55
2047.91
1421.6
1599.66
1354.04
3672.67
2257.65
1511.45
1395.64
1676.68
1465.59
1173.19
1184.37
1128.29
1021.7
1284.86
1208.05
3748.11
2476.54
2620.35
1885.45
1614.8
2195.89
1209.17
995.758
1331.97
8899.11
9457.11
9940.63
12553.9
22519
6859.79
8003.97
8926.94
10694
12724.3
2412.38
3474.66
4304.29
4884.16
5187.08
1958.95
2843.41
3541.72
4027.17
4277.54
2305.47
3331.88
4132.18
4682.49
4964.4
2011.5
2918.24
3631.69
4124.98
4378.12
2384.53
3439.34
4261.43
4830.3
5124.19
9406.7
10299.9
10464.8
12149
20451.6
9425.61
10000.4
10167.2
11247.8
13703.9
6650.06
7933.83
8664.55
9663.8
10714.9
8380.29
9145.63
9339.57
9904.19
11001.6
7770.36
8661.48
8843.78
9260.02
9960.96
4242.97
5686.01
6670.52
7376.92
7796.7
5555.86
6946.89
7775.51
8493.04
9051.49
5009.08
6419.04
7263.79
7877.99
8270.52
3653.32
5045.36
6038.36
6714.93
7078.57
4050.08
5470.44
6436.13
7095.43
7461.16
3498.99
4868.95
5854.56
6515.94
6861.55
8381.83
9527.88
9973.23
11862.5
20095.4
5491.2
6977.98
7970.88
9013.48
9903.21
3864.46
5301.51
6333.49
7076.38
7504.63
3599.02
4999.89
6033.2
6778.25
7200.55
4238.23
5719.01
6780.5
7624.03
8171.66
3768.92
5212.8
6284.64
7092.55
7564.83
3065.65
4341.93
5320.18
6025.06
6409.63
3095.73
4385.2
5364.53
6053.96
6423.81
2959.49
4210.02
5152.29
5791.04
6119.22
2692.75
3858.41
4752.01
5363.65
5678.47
3337.13
4681.28
5673.07
6353.9
6715.24
3153.6
4457.71
5438.23
6118.44
6479.79
8292
9179.73
9701.93
11971.4
20767.1
5859.1
7226.97
8260.77
9670.61
11079.6
6613.73
8258.22
9098.38
10773.7
12585.8
4726.47
6271.79
7401.25
8475.75
9214.16
4121.33
5625.71
6736.45
7640.14
8191.75
5437.61
6974.56
7988.43
9145.21
9937.92
3155.23
4459.24
5451.34
6160.51
6546.67
2625.19
3764.52
4643.31
5251.34
5567.48
3450.72
4825.77
5853.55
6594.44
7007.97
18528.2
12044
19651.3
14805.7
23788.5
33531
25337.9
34922.7
20558.6
20192.2
18128.1
18865.6
21757
21675.3
26629.6
22925.8
14185.3
12379.5
6347.28
4994.33
16552.2
13127.2
8805.78
5872.34
21293.2
23469.2
19587
17492
20324.9
13594.8
12849.4
12413
17441.2
17109.4
35230.4
38924.5
24983.7
26728
18626.5
14451.5
19133
13211.5
8316.6
6904.69
12938.9
15447
5243.69
6322.19
13891.8
17288.2
7066.12
8887.99
12159.3
17585.4
7613.35
11625.3
2162.46
7273.25
356.197
4892.97
18301.8
20175.5
18552.7
20605.2
21238.8
21215.4
22170
21521.2
17133.3
19839.5
18360.1
19276.7
18649.8
20815.7
18406.7
20943.6
22777.8
21714.8
23112.5
21905.7
15779.4
20026.9
14298.9
20056.8
17620.1
19222.6
21642.7
30311.6
18796.2
22882
21639.9
33395.6
16421.1
16614.3
21468.4
28647
15619.2
14968
21413.5
27815.3
17261.9
19711.7
22640.4
31874.5
16495.8
17843.1
23385.4
31650.3
14438.8
14948.2
23564.6
30388.1
18505.9
20514.9
18771.9
19073.3
27837.7
20129.4
17494.2
19797.7
17712.1
31644.4
20378.4
19298.5
17792.4
20226.1
38170.7
12589.3
12135.1
10405.5
12969.4
12267.1
11941.3
10626.6
13447.6
11293.2
10353.7
10506.4
13537.1
19808.3
19383.7
17046.3
16385
18090.9
16748
14239.4
12750.4
11662.7
15452.6
19709.4
18588.7
18683.1
18337.8
16948.5
15905.8
15835.1
13761.3
12575.1
16020.6
20845.3
22544.2
22450.5
24828.6
20897.5
19759.2
22215.2
21588.9
19754.6
19963.8
19012.5
18901.2
23419.4
26059.5
23597.2
26139.4
23139.9
23061.5
23252.2
23168.3
19906.1
20187.5
20390.6
20601.5
17110.7
16817.4
11820.1
13976.4
17167.4
16369.1
12207.3
14325.3
16768.4
16772.3
11698.5
14090.8
17037.4
16750.8
11630.8
13842.9
11808.6
12781.7
4540.2
4667.26
11508.5
11635.2
5205.42
5422.52
9314.82
9110.11
5674.76
5533.5
19014.2
18171.7
16956.1
16825.6
15074.5
14663.1
10999.9
10153.5
7158.37
5592.55
18585.3
17886
19176.6
18310.8
14503.9
13300.4
10792.7
9711.8
6528.15
5108.99
23243.9
23324
27297.3
24566.4
24554.5
23818.6
31964.2
26385.8
18925.4
14854.2
20189.2
15885.1
19796.4
14923.9
21036.9
15865.5
21801.6
20247.8
19275.6
18819.4
20495.2
21682.9
26940.3
28879.4
29042.8
31697.9
22535.6
24292.2
20019.4
20480.9
22338.5
22706
12415.2
9814.81
13376.6
10187.4
12095
9537.99
13038.6
9861.77
11536.9
8781.98
12336.3
9282.39
12598.3
9575.75
12569.3
9599.03
18373.9
16498
19909.1
16943.2
21764.7
20248
23342.8
20753.1
18181.1
13655.4
17034.1
13353.5
21218.3
17335.6
22420.6
17607.3
24647.8
21163.7
25590.4
21484.3
18571.5
13908.8
19046.8
14055.9
11391.1
8302.31
10686.7
6845.28
10750.2
8028.31
10485.1
6746.29
11777.7
8598.02
10843.2
6951.34
12056.5
8870.43
10905.5
7027.02
10868.8
11453.3
9084.38
8745.93
10404.8
11122
8744.28
8410.21
9794.86
10344.7
7914.81
7506.31
16384.8
20355.3
14424
10115
7628.31
19831.1
17532.2
16006
10375
7177.87
19866.5
16418.5
13349.4
10652.8
6759.91
13391.3
16429.9
9510.44
11199
12599.6
14824.5
8869.44
10243
11204.5
12539.8
7444.77
7913.68
19294.5
18168
15891.7
15110.9
14700.5
15501.3
10831.4
11884.2
7037.46
7214.31
17991.8
15644.4
14912.5
13127.6
12749.6
12210.5
10222.3
10483.1
6425.13
7572.91
13810
11492.8
14070.4
10881.7
16591
12676.3
17453.5
12864.5
11904.6
10078.5
12026.1
11092.9
14599.1
10310.8
14814.7
10368.9
18712.8
13403.4
18933.4
13609.4
11811
9202.26
11926.9
9422.74
8671.77
8373.6
5582.61
8083.91
9319.05
9374.43
6212.35
8722.96
8374.16
7794.37
5154.88
8036.85
8704.98
7674.06
5253.73
7665.84
22211
23471.5
28618.1
23547.5
19211.5
20384.3
26800.5
22166.9
15641
16565.6
23162.3
19526.1
17118.4
16332.4
15122.7
15009.3
16564.8
16951
14420.8
14219.1
21826.5
18873.4
13616.5
13227.9
12272.4
12373.6
12861.3
12875.1
13918.7
13569.7
23136.9
19117.6
6114.46
3757.12
2704.71
2575.81
6333.63
3857.89
2750.16
2602.23
5836.43
3640.38
2639.76
2564.8
6147.21
3763.2
2694.42
2554.98
5373.21
3459.78
2564.13
2444.26
5774.26
3647.1
2667.32
2425.13
5785.01
3580.68
2591.07
2496.73
5709.62
3491.3
2506.39
2443.96
5156.4
3292.23
2489.98
2368.58
4035.23
2787.85
2241.25
2195.27
4844.51
3182.34
2453.81
2224.37
3918.05
2785.94
2232.55
2140.87
5298.79
3328.53
2467.51
2393.15
4075.26
2775.47
2226.45
2200.1
5321.66
3314.09
2434.47
2344.29
4045.36
2743.54
2190.76
2127.15
5646.98
3553.34
2620.56
2477.8
4880.8
3237.39
2487.53
2334.42
5320.67
3442.17
2568.97
2446.07
4565.45
3148.17
2446.91
2328.24
4837.56
3265.49
2496.22
2380.61
4135.38
3011.46
2369.47
2325.87
4309.71
2996.23
2339.32
2287.51
3807.43
2870.51
2294.78
2245.13
3734.83
2763.98
2199.07
2086.2
3533.38
2832.05
2048.19
584.734
1153.28
2556.8
1851.7
593.794
3357.91
2798.13
2038.94
608.107
1150.04
2531.27
1839.61
594.404
3097.38
2720.16
1988.06
585.424
1107.87
2476.02
1797.97
578.635
3072.34
2649.93
1961.39
610.258
1265.95
2422.24
1761.53
576.001
3083.67
2563.79
1932.8
656.485
1330.75
2329.93
1708
567.327
2545.87
2307.36
1840.67
609.13
150.585
2006.5
1604.28
542.174
2868.89
2439.31
1885.95
621.144
556.463
2165.45
1651.75
551.591
2281.14
2190.1
1770.25
542.087
-158.51
1884.39
1544.86
514.51
2115.59
2121.42
1709.96
506.246
-40.0835
1825.21
1497.81
495.001
2516.16
1932.31
1352.53
798.792
264.049
2492.69
1924.46
1349.92
797.794
263.774
2536.51
1929.18
1348.46
796.316
263.248
2488.99
1916.3
1343.71
794.32
262.679
2532.42
1924.29
1343.62
793.459
262.33
2437.54
1898.71
1332.9
788.643
260.933
2416.64
1866.15
1314.83
779.724
258.255
2349.19
1831.24
1295.96
770.402
255.455
2482.37
1896.45
1328.21
785.754
260.004
2553.47
1906.52
1329.62
785.89
259.991
2516.04
1917.44
1337.99
790.317
261.337
2601.22
1919.79
1335.54
788.643
260.793
2433.92
1872.3
1316.25
780.064
258.322
2496.61
1882.17
1317.94
780.381
258.37
2354.94
1833.05
1295.44
769.855
255.27
2425.39
1843.45
1297.42
770.375
255.399
2553.7
1943.43
1355.78
799.948
264.359
2636.6
1953.74
1357.99
800.662
264.547
2568.71
1942.96
1353.2
798.212
263.779
2650.5
1953.63
1355.85
799.188
264.054
2592.58
1941.5
1349.41
795.814
262.991
2682
1952.44
1352.36
796.982
263.327
2629.28
1936.44
1344.19
792.879
262.053
2703.15
1944.35
1347.01
794.145
262.417
2635.19
1928.58
1339.72
790.621
261.365
10468.9
13996.4
10437.9
13975.7
10482.1
13988.1
10860
14587.9
11381.6
15895.8
10410.9
12773.3
10714.5
13591.5
10364.3
12673.8
10263.6
12692.8
7478.6
1292.99
278.098
61.5971
10.7593
8657.5
2351
563.902
126.313
21.8786
7480.07
1257.75
266.801
58.7129
10.2119
8648.49
2330.18
554.03
122.821
21.2312
7515.79
1230.81
256.46
55.9341
9.68596
8697.14
2314.13
543.551
119.556
20.5676
7622.06
1199.3
245.108
53.1442
9.19615
8857.71
2307.47
536.154
117.476
20.1942
7720.32
1173.57
239.118
52.2259
9.10613
9045.1
2308.18
536.705
118.425
20.4979
7433.44
1341.94
303.031
70.283
12.6916
8353.85
2379.03
595.301
138.751
24.9275
7571.23
1274.05
274.417
61.7542
10.9499
8638.05
2352.59
567.369
128.421
22.6172
7374.81
1389.48
322.535
76.2754
13.9491
8283.44
2400.77
612.835
145.493
26.5052
7342.06
1371.95
319.623
76.1489
14.0111
8254.59
2386.88
612.966
146.55
26.8306
34248.5
48044.4
42852.5
31362
23515.4
27833.1
23362.9
27873
26198.2
40548.1
28219.1
44082.9
278.026
295.663
334.936
397.349
483.486
594.176
292.94
310.331
348.789
409.162
492.279
599.516
265.789
259.66
283.808
277.672
324.437
318.612
390.946
387.57
483.254
486.836
604.168
621.781
729.033
903.377
1145.09
1506.06
1859.98
2143.82
733.49
900.506
1107.26
1347.69
1569.03
1716.22
744.557
1092.78
1373.85
1570.99
1672.56
791.599
1161.41
1459.63
1668.65
1776.28
896.359
1314.22
1650.64
1886.14
2007.32
1062.62
1556.26
1952.67
2229.68
2372.13
1291.47
1888.14
2365.55
2698.53
2869.68
1584.19
2309.84
2887.62
3290.08
3497.2
784.374
1150.97
1446.74
1654.11
1760.93
830.712
1218.46
1530.97
1749.91
1862.63
933.188
1367.71
1717.29
1961.91
2087.78
1093.82
1601.15
2008.25
2292.7
2439.01
1314.33
1920.33
2404.89
2743.05
2917.07
1597.44
2327.36
2908.34
3313.78
3523
711.835
1044.89
1313.82
1502.5
1599.73
695.431
1020.86
1283.7
1468.12
1563.16
759.94
1115.16
1401.75
1602.68
1706.16
743.536
1091.17
1371.72
1568.45
1669.77
868.388
1273.51
1599.85
1828.35
1945.95
852.852
1250.87
1571.59
1796.21
1911.8
1045.67
1531.82
1922.38
2195.31
2335.62
1036.71
1518.88
1906.34
2177.11
2316.3
1291.02
1887.82
2365.32
2698.16
2869.11
1300.58
1901.72
2382.55
2717.52
2889.45
1610.89
2348.7
2935.61
3343.7
3553.31
1657.47
2415.61
3017.65
3435.36
3649.52
1937.77
2813.11
3505.62
3988.67
4238.68
2388.03
3440.58
4266.25
4847.61
5153.78
2995.08
4253
5228.83
5939.04
6331.41
3859.19
5326.51
6451.01
7354.73
7915.65
4639.74
6189.18
7383.21
8490.91
9307.94
5232.87
6787.84
8003.22
9291.97
10354
1948.24
2826.03
3520.81
4007.18
4260.11
2379.87
3428.69
4253.44
4836.71
5145.46
2903.59
4139.93
5105.49
5804.9
6188.58
3495.39
4911.82
6012.23
6846.23
7332.2
4020.76
5564.6
6764.29
7727.34
8331.59
4360.85
5971.92
7228.53
8284.61
8981.88
281.252
305.458
351.766
421.891
516.4
635.948
296.21
320.226
365.618
433.3
523.92
638.343
268.968
262.805
293.521
287.303
341.285
335.387
415.958
412.707
517.491
521.424
649.825
670.282
778.566
957.603
1197.65
1545.46
1882.43
2150.37
777.995
947.547
1151.76
1383.29
1591.48
1723.75
753.22
1105.58
1390.06
1589.64
1692.48
817.961
1200.42
1509.1
1725.61
1837.17
941.703
1381.45
1736.06
1984.66
2112.73
1128.87
1654.81
2078.32
2375.03
2527.87
1380.61
2021.41
2536.35
2896.94
3082.8
1697.83
2481
3108.59
3548.3
3775.48
793.168
1163.98
1463.25
1673.13
1781.26
857.367
1257.96
1581.14
1807.76
1924.5
978.571
1435.09
1803.03
2060.93
2193.79
1159.03
1698.28
2132.23
2436.25
2592.93
1400.05
2048.59
2569.38
2934.24
3122.5
1703.07
2486.42
3113.69
3553.74
3781.6
720.372
1057.49
1329.76
1520.83
1619.29
703.874
1033.32
1299.44
1486.21
1582.46
786.06
1153.76
1450.65
1658.93
1766.26
769.426
1129.41
1420.12
1624.11
1729.21
913.754
1340.7
1685.13
1926.64
2051.06
898.006
1317.71
1656.38
1893.87
2016.21
1113.18
1632.19
2050.29
2343.22
2494.08
1104.55
1619.73
2034.83
2325.67
2475.43
1383.79
2026.62
2543.36
2905.12
3091.48
1394.4
2042.34
2563.22
2927.83
3115.6
1735.28
2536.48
3178.61
3628.18
3860.22
1789.98
2616.53
3278.81
3742.24
3981.28
2073.47
3019.71
3775.2
4306.38
4582.71
2538.4
3673.64
4575.53
5217.01
5556.79
3144.38
4492.11
5555.39
6338.04
6772.33
3977.55
5528.5
6740.64
7722.96
8332.22
4713.05
6323.57
7584.46
8757.25
9619.19
5256.47
6834.16
8075.18
9390.91
10472.9
2070.05
3011.18
3762.08
4291.24
4567.52
2509.81
3628.99
4517.94
5151.46
5488.17
3028.34
4336.27
5369.73
6124.2
6539.3
3597.47
5077.25
6240.49
7127.75
7645.26
4086.88
5674.98
6920.14
7923.46
8552.77
4383.49
6010.55
7283.93
8355.38
9062.53
4164.88
3020.33
977.219
793.003
949.371
823.588
975.875
3934.22
3858
2768.88
3258.43
1736.93
2250.81
1506.56
1674.92
1437.46
3558.33
2278.52
1586.7
1476.6
1741.91
1535.89
1239.56
1265.84
1237.52
1122.93
1376.41
1297.94
3705.16
2490.33
2607.59
1924.78
1672.1
2223.95
1283.43
1080.61
1411.12
8894.47
9499.88
10032.9
12737.8
22894.9
6877.98
8057.28
9020.7
10840.4
12917.5
2592.8
3756.41
4680.76
5336.13
5681.51
2112.73
3078.33
3849.33
4390.71
4671.8
2526.94
3676.68
4592.01
5233.95
5567.44
2194.95
3199.43
4001.26
4563.21
4854.34
2593.55
3765.95
4698.14
5354.87
5698.23
9151.22
10702.5
11589.1
14189.5
24276.9
9040.03
10698.9
11861.4
14199.5
18290.9
6712.7
8502.78
9825.35
11466.1
13042.3
8110.39
10131.6
11324.2
13116.1
15475.7
4486.89
6257.39
7617.91
8675.79
9326.53
5651.62
7538.95
8936.53
10220
11196.2
3943.54
5605.65
6900.01
7848.77
8382.22
4349.99
6114.09
7474.72
8502
9107.65
3777.53
5399.39
6666.99
7581.72
8083.36
8317.28
9835.84
10716.8
13162.3
22547.8
5660.67
7442.77
8790.46
10198.8
11357.8
4126.16
5813
7124.93
8123
8712.14
3854.76
5461.22
6717.98
7662.53
8207.75
4472.37
6187.57
7516.79
8612.71
9325.73
3989.52
5608.03
6869.8
7848.89
8426.93
3257.57
4656.43
5757.7
6566.57
7012.04
3333.98
4781.37
5921.73
6748.14
7198.69
3274.86
4726.73
5872.16
6683.59
7113.94
2978.28
4312.19
5368.67
6114.53
6506.95
3620.92
5184.04
6410.31
7296.49
7781.81
3420.71
4910.27
6083.06
6928.26
7387.51
8295.47
9337.74
10017.1
12525.1
21884.5
5931.44
7394.76
8537.14
10068.7
11577.2
6696.95
8570.52
9674.79
11669.1
13746.2
4863.48
6537.25
7812.01
9029.21
9858.6
4305.85
5962.92
7241.83
8301.35
8949.84
5595.55
7357.23
8635.5
10070
11048.9
3372.74
4821.39
5961.23
6796.62
7257.37
2864.74
4145.44
5160.56
5880.03
6260.05
3692.11
5246.28
6464.51
7372.91
7887.98
9888.44
9184.13
8068.68
6658.06
4807.41
1869.6
18630.7
19839.7
21309.7
21914.2
20137.6
20444.4
20560.3
21152.3
16181.9
18390.5
18337.3
18387.7
24429.1
17029.9
26367.9
17609.1
18881.9
20076.6
20293.4
19415.6
20639.3
19715.1
20887.1
16705
24352.6
18835.3
23723.9
25302.9
20706.1
30436.2
16466.8
17566.7
18360.7
18222.1
18380
20078.7
18470.9
20256.8
18884.3
23614.8
21203.6
23290.9
26475.3
23240.2
29345.8
15358.1
16382.7
16743.9
16399.4
17483.1
19731.9
17230.7
19586
17222.7
21820.4
19207.3
20760.2
23403.9
20607.6
26512.5
14250.8
15303.2
15473.7
15070.5
16681.3
19345.2
15998.6
18277.1
15320.8
17838.6
17337.6
16723.8
20524.3
17581.6
21479
13175.6
14205.2
14448.6
14035.5
15364.5
17558.1
14977.7
16951.7
13281.4
14464.6
15216.2
14068.8
18141.3
14937.1
18858.2
21657.3
21815
22471.6
23431.3
22452.9
23198.3
21599.8
22459
18672.4
11878.4
19822.1
11737.4
19910.3
16567.3
16924.6
20789.9
21252.1
20956.4
21428.8
21909.6
22731.5
20507.4
21526.3
16702.3
11883.7
17483.2
11614.5
17301.2
15636.9
15715
18381.7
18868.2
18854.8
18885.6
19667.1
20358.8
18884.9
20234.8
15527.4
12694
16425.2
12084.8
16898.4
14190.3
16394.2
16082.6
16725.7
16920.3
16670.8
17745
18465.1
17473
18953.1
13868.1
13926.7
14849.2
13072.2
15490.1
13057.7
17498
14565.1
15356.8
15509
15173.6
16531.9
17829.1
16091.1
17476.3
13058.5
15619.7
14466.4
15479.9
15856.3
14536.1
20210.8
13191.7
14089.7
14418
14042.3
15759.9
17534.2
15019.3
16636.9
12806.3
16985.4
14684
17642.2
16712.8
15419.4
22658.3
12233.3
6594.94
21798
14228.8
20991.6
17820.3
30990.4
38326.7
47137.7
59600.6
24962.2
21895.6
15377.4
10559.9
9791.19
5451.45
20882.9
18957.3
18840.8
18728.9
23980.2
23110.2
27641.4
23879.5
7212.4
5115.06
3720.32
2603.61
10761.6
6977.79
5963.46
3868.21
21113.5
22415.9
19016.6
15622.4
15426
11993.2
13015.4
12418.2
17439.1
17109.4
35366.2
38926.5
25424.3
26844.2
18216.8
14338.6
18665.6
13121
7927.59
6831.57
5773.61
8418.18
2853.74
3822.83
7800.78
11496.1
4896.77
6649.54
7980.35
13796.2
6074.37
9883.39
1908.19
6654.98
339.389
4772.12
18041.5
21719.3
18848
21446.7
22824.1
23316.8
23169.1
22683.8
16715.1
20208
16772
19954.2
18846
21249.4
18474.6
21085.2
23287.1
22310.7
23257.9
22097.8
15673.5
20225.4
14291
20124.3
17079.3
18148.9
21522.7
29884.6
17860.6
20838.5
21380.7
32495.4
16176.6
16130
21427.4
28458.8
15556
14839
21406.3
27761.5
4155.14
5233.39
11277.6
18330.5
5085.55
5660.66
14226.4
20852.5
6092.19
6335.25
17452.7
23657.1
24575.8
27567
20446.8
18513.6
24776.2
28130.5
24139.3
20503.2
17161.6
27876.8
25788.3
23586.8
19596.3
19804.8
36457.7
1515.29
1996.45
4021.01
8199.7
2200.41
3028.22
5462.63
9757.16
3327.16
3214.49
7362.49
11720.3
27596.3
27848.3
22739.7
22018.7
18930.2
17066.1
13712.6
12272.9
10385.1
15307.9
24385.2
22278
22356.6
21206.7
18692.1
17468.9
15885.5
14187.8
12406.8
16880.5
22859.9
24421.2
23605
25983.5
23227.8
21559.8
23498.3
22615.1
20462.3
20744
20202.4
20149.8
23981.4
26599.3
23766.5
26300.7
23754
23524.7
23434.7
23305.7
20269.5
20586.6
20502.8
20719.7
17412.9
17252.9
11894.5
14178
17555
16993
12211.3
14610.4
16945.6
17016.4
11762.3
14218
17096.8
16828.3
11655.7
13887.5
1744.16
1448.41
1085.07
994.11
870.952
862.461
2650.99
1928.63
1532.86
2337.88
2117.36
1861.4
2859.89
2837.29
3054.07
4217.33
3730.77
3458.74
26966.2
24425
22576.3
22298
21231.3
20266
15153.2
14712.6
14494.8
10625.6
10227.7
10086.8
6846.34
5167.79
4288.64
21308.6
19976.3
18960.7
21114
19991
19326.2
15635.7
14145.8
13312.9
11163
10015.5
9507.91
7280.76
5494.94
4558.12
27804
28972.2
29515.2
27223.9
27085.1
27204.6
32232.7
27886.6
17622
19587.8
17498.8
17406.5
23601.8
20813.2
23035.7
18198.5
25332.6
26523.3
21781.6
24581.4
28642.7
25029.1
28248.4
29272.8
29859.9
31948.2
24225.9
24825.4
21120.2
20792.7
24097
23229.9
16338.5
9104.12
15204.7
10098.6
15868.4
8919.46
14637.6
9772.75
14523.9
8241.16
13598.7
9281.93
13335.3
9651.58
12788.7
9635.69
22397.4
17817.3
21822.9
17848.1
25009.6
22522.9
24947.4
22047.7
20104.4
14047.3
21014.6
13645
22156.8
17848.1
22701.7
17779
25450.3
21839.6
25827.7
21703.9
19489.4
14179.3
19311.1
14154.8
11879.2
8016.48
10573.8
6437.77
11009.7
7141.59
9928.2
5857.04
12123.3
8522.37
10848.9
6763.02
12179.4
8865.47
10911.6
6957.47
2573.84
1361.53
4662.77
2435.25
2680
1603.93
4731.94
2733.58
2928.17
2169.45
4673.4
3198.21
13525
22640.7
8666.9
7790.71
5291.11
23207
14970.4
8306.01
7349
4018.91
22372.4
16244.7
11881.8
8591.32
4924.28
969.677
966.297
1566.28
1510.16
1245.55
963.427
1989.92
1827.75
1783.62
1605.71
2475.34
2212.62
23662
22889.6
15155.2
14063.7
9479.5
9310.46
7212.41
7081.1
3653.16
3292.76
20635.2
17929.3
15116.8
13216.6
11296.8
10496.3
7892.02
7783.73
4545.58
5328.6
14261.7
11489.9
14361.5
10810.9
18116.6
13571.2
18320.6
13288.1
11720.9
9651.53
11606.8
10320.5
14792
10282.5
14883
10365.6
19158.2
13596.3
19070.1
13665.7
11786.6
9040.42
11951.2
9391.98
8254.07
7766.64
5102.03
7271.93
8381.9
8164.05
5196.86
7190.76
8223.55
7540.32
4939.84
7621.75
8651.79
7590.79
5162.94
7531.49
2615.21
2103.49
1651.5
10145.7
4923.35
3757.9
2410.35
2281.98
1949.16
10600.8
5740.42
4623.79
2957.82
3172.1
3193.27
11010.4
7001.99
6140.23
20917.2
19226.2
17963.3
13516.5
12906.2
12456.7
9878.79
9643.29
9497.05
8770.44
8405.37
8247.53
12500
9074.76
8148.52
15518.2
14142.5
13187.9
11938
11073.9
10549.5
10604.6
9706.97
9018.92
10265.4
9278.59
8735.73
16036.8
11268.4
10321.7
4721.65
2789.45
2100.86
2099.06
5355.15
3043.55
2198.25
2152.69
4563.64
2735.33
2090.14
2124.75
5310
3049.47
2218.17
2163.61
4286.93
2655.97
2096.23
2079.96
5152.51
3073.8
2268.56
2108.7
5428.62
3217.26
2300.96
2260.64
5594.31
3366.63
2410.62
2361.53
4587.43
2830.07
2175.33
2102.94
3535.15
2390.4
1990.66
1980.54
3887.94
2508.38
2050.42
1913.17
3093.63
2181.61
1888.65
1877.55
4999.42
3062.43
2276.63
2225.25
3805.6
2552.59
2067.56
2050.56
5233.21
3224.7
2365.51
2283.52
3956.83
2670.8
2134.51
2075.69
3437.13
2356.37
1940.94
1973.86
2031.11
1828.2
1730.23
1816.05
3304.92
2305.86
1931.53
1971.58
2006.27
1817.76
1724.63
1826.89
3102.55
2229.2
1920.05
1952.82
2066.98
1842.27
1724.13
1864.76
2866.2
2106.12
1862.42
1941.26
2071.05
1837.43
1746.82
1863.16
2509.84
1973.29
1764.63
1807.54
436.572
1322.88
1338.93
419.472
-1491.91
1033.6
1135.32
403.724
621.285
1389.69
1363.87
444.736
-1203.54
1114.18
1157.6
411.19
905.389
1486.62
1390
443.058
-772.886
1236.82
1185.32
413.315
1283.59
1602.3
1421.68
471.192
-300.198
1382.06
1227.19
428.327
1790.54
1752.93
1481.24
527.495
108.198
1510.43
1267.85
440.724
2120.16
1923.1
1523.08
488.669
-81.6606
1638.95
1352.26
459.672
2084.23
1849.05
1485.78
491.323
-0.231102
1591.87
1306.73
447.109
2081.94
1978.04
1567.01
459.542
-221.482
1684.61
1392.3
462.235
2067.98
2054.87
1641.41
477.862
-45.858
1763.5
1447.77
477.511
2121.74
1690.83
1215.39
729.5
242.973
2124.17
1692.13
1216.64
730.247
243.212
2160.89
1705.23
1222.1
732.58
243.87
2157.49
1708.89
1225.2
734.324
244.423
2184.56
1720.25
1229.23
735.854
244.822
2167.94
1731.4
1237.48
740.334
246.23
2242.17
1761.7
1254.82
749.222
248.958
2283.75
1790.44
1272.33
758.35
251.773
2243.62
1750.59
1245.29
743.798
247.234
2311.88
1760.53
1247.05
744.165
247.294
2206.11
1736.46
1236.73
739.322
245.836
2296.44
1751.57
1241.82
741.449
246.445
2273.03
1767.47
1255.7
749.287
248.941
2339.69
1777.25
1257.16
749.473
248.948
2300.83
1797.55
1274.69
759.248
252.026
2372.3
1806.48
1275.63
759.215
251.98
2122.19
1690.35
1214.13
728.686
242.709
2159.42
1692.16
1213.52
728.218
242.56
2148.92
1702.01
1219.29
730.969
243.362
2183.76
1702.61
1218.06
730.208
243.129
2188.4
1716.99
1225.68
733.799
244.166
2232.32
1716.9
1223.99
732.818
243.866
2247.14
1733.41
1232.73
737.003
245.088
2281.11
1730.25
1230.29
735.731
244.69
2283.79
1743.78
1237.69
739.373
245.795
7940.94
12263.4
8433.88
12686.1
9198.66
13311.9
10112.3
14374.3
11146.1
16186.3
10406.6
12848.8
10642.3
13697
10379.1
12728.5
10270.8
12711.9
6368.36
1134.2
248.757
55.7672
9.81087
7572.78
2086.79
506.963
114.714
20.005
6543.07
1125.9
242.228
53.7694
9.40108
7761.85
2106.02
504.655
112.644
19.566
6847.88
1135.24
238.174
52.1647
9.05798
8103.8
2151.23
506.126
111.618
19.2472
7219.08
1140.72
233.326
50.6027
8.76031
8544.04
2208.06