/*--------------------------------*- C++ -*----------------------------------*\
| =========                 |                                                 |
| \\      /  F ield         | OpenFOAM: The Open Source CFD Toolbox           |
|  \\    /   O peration     | Version:  2412                                  |
|   \\  /    A nd           | Website:  www.openfoam.com                      |
|    \\/     M anipulation  |                                                 |
\*---------------------------------------------------------------------------*/
FoamFile
{
    version     2.0;
    format      ascii;
    arch        "LSB;label=32;scalar=64";
    class       volScalarField;
    location    "2.9";
    object      T;
}
// * * * * * * * * * * * * * * * * * * * * * * * * * * * * * * * * * * * * * //

dimensions      [0 0 0 1 0 0 0];

internalField   nonuniform List<scalar> 
5712
(
541.716
557.491
529.394
548.311
512.895
534.766
487.278
511.094
490.622
514.681
514.331
538.009
525.207
546.822
535.414
554.073
504.444
489.09
520.92
497.097
479.222
462.464
494.712
469.388
549.158
555.559
561.512
564.702
539.848
548.249
554.445
559.408
538.713
526.602
514.523
507.895
540.007
549.903
539.934
545.255
504.702
511.441
517.217
522.769
477.012
482.911
550.947
555.654
523.276
532.202
560.831
566.191
560.155
567.665
567.163
570.743
553.588
565.224
562.523
569.052
544.583
561.054
552.946
565.32
559.055
567.415
562.752
568.729
476.322
462.487
483.19
465.285
443.711
431.246
451.039
434.844
509.425
492.435
503.579
489.643
487.946
467.2
490.73
468.226
456.209
437.239
459.179
438.529
513.88
494.347
516.457
495.304
533.734
559.086
519.101
549.058
528.47
555.592
515.667
546.048
537.469
560.832
521.132
550.807
539.47
561.56
522.018
551.896
556.354
547.556
565.026
558.418
549.172
540.337
562.027
554.566
538.648
529.125
556.805
548.192
462.501
424.607
495.743
521.429
549.158
423.379
460.688
492.037
516.517
541.563
422.655
457.611
486.359
511.065
539.946
529.894
513.628
533.529
518.064
524.813
508.503
531.518
515.638
516.327
500.305
527.917
511.782
416.742
404.432
453.975
442.233
483.387
469.394
505.385
490.161
524.322
507.97
415.537
401.846
449.578
436.93
477.315
463.738
500.593
485.563
521.376
504.324
448.029
437.691
446.757
436.296
414.326
394.611
412.871
391.044
475.613
467.538
476.414
467.639
445.978
434.968
446.491
435.591
412.622
389.476
413.614
390.902
474.829
466.429
475.335
466.999
501.562
493.948
523.532
516.682
501.448
492.882
523.027
514.313
500.932
493.041
523.427
516.956
500.977
493.177
523.25
516.321
494.829
479.297
470.826
497.775
481.597
472.995
490.209
474.352
465.889
495.046
478.198
469.356
481.242
464.909
456.084
490.537
472.718
463.425
388.537
377.156
371.379
426.102
411.282
403.28
452.538
435.95
426.616
471.366
454.586
445.602
485.356
466.32
456.299
384.677
372.622
366.058
422.226
408.847
401.905
447.625
432.464
424.435
466.266
448.844
439.539
479.579
460.44
450.629
419.629
406.564
423.412
410.829
447.996
432.453
456.144
438.501
392.418
372.617
393.648
374.616
393.178
373.005
394.959
375.624
393.057
389.82
392.365
385.924
371.895
376.169
413.573
416.456
442.719
446.479
394.648
397.037
394.941
396.749
378.568
380.255
351.332
332.908
356.958
336.377
352.731
332.581
358.349
336.569
353.687
331.961
360.589
337.198
363.712
339.516
365.901
341.419
385.465
373.846
392.672
378.759
411.864
399.057
419.805
403.919
372.352
358.833
364.862
354.132
396.756
381.694
399.239
383.324
424.537
406.828
427.307
408.331
376.209
361.694
378.399
363.353
355.377
334.254
343.296
327.941
348.654
329.831
339.338
325.007
359.255
337.227
345.88
329.941
361.552
339.301
347.534
331.269
333.803
322.409
325.916
318.217
334.804
323.906
325.543
318.267
336.089
327.317
324.914
318.975
365.692
389.784
348.677
337.648
323.779
387.862
362.24
342.619
330.861
319.254
388.105
364.168
346.545
333.933
321.524
312.784
303.264
309.821
300.413
315.233
305.713
310.847
301.664
319.519
310.614
312.573
303.78
381.21
368.934
355.381
344.106
337.251
328.331
325.296
316.578
314.842
306.557
380.968
368.305
357.721
346.706
340.592
331.016
328.082
318.702
317.644
309.291
360.751
347.156
361.762
346.379
382.224
365.915
382.979
363.49
344.792
332.244
343.653
332.208
362.638
345.795
364.031
347.182
384.118
361.59
385.56
362.985
345.669
332.323
346.906
333.478
330.518
319.964
320.091
309.756
330.287
319.346
319.417
309.583
330.704
320.619
320.445
309.711
332.287
321.368
321.132
310.953
291.195
284.56
281.987
283.598
278.895
277.343
294.508
287.556
284.679
284.992
280.113
278.364
299.72
292.554
289.712
287.124
281.875
280.045
355.473
346.159
341.788
333.186
325.641
322.419
317.797
310.864
308.212
305.279
298.086
295.199
289.126
283.796
281.735
353.864
343.797
338.979
334.489
325.63
321.338
319.493
311.57
307.94
305.846
299.114
296.545
290.319
285.274
282.806
318.962
310.542
305.099
300.315
320.51
311.166
305.386
300.354
318.831
310.573
305.216
300.495
320.756
311.388
305.642
300.608
318.519
310.578
305.401
300.786
321.075
311.705
305.99
300.941
322.355
312.479
306.363
301.098
323.636
313.343
306.803
301.29
319.954
311.448
306.006
301.202
317.481
310.642
305.653
301.434
317.827
310.465
305.524
301.116
316.063
309.925
305.283
301.386
321.568
312.31
306.393
301.282
318.675
311.329
306.014
301.574
322.846
313.098
306.837
301.524
319.685
311.986
306.443
301.877
316.386
309.576
304.708
300.354
313.308
308.479
304.241
300.495
316.204
309.563
304.77
300.499
313.323
308.528
304.298
300.614
315.885
309.53
304.868
300.751
313.599
308.708
304.447
300.838
315.343
309.45
304.956
301.08
313.718
308.838
304.605
301.111
314.679
309.318
304.954
301.343
310.447
307.569
303.732
301.029
308.782
307.132
303.512
301.26
310.875
307.745
303.843
301.122
309.28
307.325
303.622
301.346
311.566
308.048
304.032
301.284
310.099
307.662
303.812
301.501
312.388
308.416
304.306
301.523
311.09
308.091
304.079
301.71
313.414
308.901
304.64
301.781
312.014
308.543
304.36
301.933
314.853
309.855
305.177
302.2
313.265
309.491
304.972
302.429
314.182
309.356
304.894
301.993
312.724
309.02
304.66
302.178
315.49
310.386
305.474
302.395
313.838
310.012
305.293
302.684
316.288
310.991
305.872
302.686
314.643
310.61
305.693
303.001
295
291.15
288.234
286.287
285.315
295.013
291.16
288.241
286.292
285.319
295.077
291.19
288.256
286.301
285.326
295.106
291.212
288.27
286.311
285.333
295.163
291.234
288.281
286.317
285.338
295.243
291.291
288.318
286.341
285.356
295.436
291.407
288.389
286.388
285.392
295.625
291.526
288.463
286.437
285.429
295.347
291.339
288.344
286.358
285.369
295.388
291.347
288.346
286.358
285.369
295.254
291.281
288.308
286.334
285.351
295.33
291.311
288.324
286.344
285.358
295.459
291.41
288.389
286.387
285.391
295.498
291.415
288.389
286.387
285.391
295.66
291.539
288.469
286.44
285.432
295.694
291.541
288.468
286.439
285.431
294.991
291.14
288.227
286.283
285.312
294.994
291.135
288.223
286.28
285.309
295.051
291.17
288.243
286.293
285.319
295.047
291.16
288.236
286.288
285.316
295.132
291.208
288.264
286.305
285.329
295.123
291.196
288.256
286.3
285.324
295.222
291.252
288.289
286.321
285.341
295.199
291.235
288.278
286.314
285.335
295.282
291.284
288.307
286.333
285.35
541.301
537.183
540.568
536.395
539.18
534.97
537.481
533.066
535.961
531.218
536.099
533.244
535.904
532.406
536.143
533.417
536.296
533.545
566.321
571.534
572.669
572.927
572.982
560.797
570.051
572.334
572.855
572.965
566.401
571.577
572.682
572.93
572.982
560.721
570.075
572.345
572.859
572.966
566.366
571.605
572.692
572.933
572.983
560.488
570.072
572.352
572.862
572.967
566.348
571.635
572.702
572.935
572.984
560.168
570.042
572.35
572.862
572.967
566.322
571.638
572.701
572.934
572.983
559.863
569.975
572.332
572.857
572.965
565.138
571.227
572.587
572.905
572.975
559.127
569.561
572.197
572.82
572.954
565.617
571.411
572.641
572.919
572.979
559.409
569.754
572.265
572.839
572.96
564.815
571.102
572.548
572.895
572.972
558.949
569.445
572.154
572.807
572.95
564.907
571.114
572.548
572.894
572.971
558.995
569.437
572.145
572.803
572.949
426.847
463.999
461.11
424.528
406.674
408.479
413.6
416.696
426.128
429.281
451.792
458.595
456.029
462.516
434.36
436.83
425.447
427.801
417.168
419.097
367.502
349.853
305.219
299.447
303.864
300.111
304.861
367.795
362.304
344.143
351.857
346.305
324.033
334.361
329.356
318.639
321.969
317.108
361.923
336.55
321.144
318.708
325.153
320.817
313.09
313.354
311.605
308.561
315.711
313.888
361.89
341.099
347.855
330.905
324.703
336.617
314.078
307.769
317.263
351.757
336.796
323.302
308.426
287.46
339.284
327.764
315.272
300.983
283.19
302.025
297.525
291.601
284.613
276.949
296.868
293.202
288.337
282.577
276.256
300.82
296.513
290.824
284.116
276.777
297.461
293.698
288.707
282.803
276.332
301.708
297.257
291.39
284.473
276.899
351.813
335.356
320.914
305.725
286.401
345.751
329.699
315.472
300.682
283.082
334.164
322.768
310.362
296.774
281.371
337.445
322.969
309.763
296.2
281.364
333.303
319.574
307.003
294.182
280.415
318.13
310.46
301.072
290.449
278.941
326.264
316.537
305.423
293.21
279.944
322.189
313.305
302.932
291.514
279.298
313.663
306.968
298.527
288.853
278.383
316.37
309.019
299.959
289.711
278.673
312.369
305.934
297.762
288.37
278.214
348.042
333.062
319.493
304.777
285.844
328.649
318.948
307.715
295.035
280.674
315.854
308.794
299.949
289.794
278.72
313.823
307.213
298.823
289.113
278.488
319.285
311.6
302.128
291.259
279.256
315.687
308.777
300.049
289.923
278.771
308.984
303.307
295.958
287.346
277.883
309.208
303.474
296.053
287.381
277.891
307.656
302.162
295.026
286.705
277.652
304.985
299.972
293.41
285.716
277.319
311.214
305.057
297.17
288.038
278.108
309.66
303.823
296.286
287.508
277.931
347.777
333.371
320.254
305.756
286.226
332.431
322.283
310.75
297.501
281.738
338.307
325.963
313.48
299.323
281.772
324.306
315.783
305.491
293.579
280.063
319.051
311.531
302.174
291.322
279.253
328.932
319.207
308.008
295.241
280.572
309.846
304.008
296.468
287.654
277.986
304.284
299.396
292.991
285.466
277.237
312.601
306.244
298.123
288.684
278.34
506.508
544.9
498.924
535.289
475.845
516.013
482.877
526.753
490.003
479.462
516.184
493.098
466.475
454.553
491.14
466.418
523.485
537.312
552.991
558.638
517.789
531.805
546.764
553.769
532.97
511.846
510.28
498.178
527.225
544.876
538.374
544.925
502.996
511.029
515.911
522.451
475.796
482.604
549.232
555.324
521.559
531.798
559.495
565.985
549.467
563.98
563.494
569.493
543.34
561.817
558.83
567.822
536.274
558.293
549.265
564.07
557.713
566.917
562.485
568.621
473.428
463.017
481.467
465.62
443.644
434.612
450.819
436.7
506.996
491.879
499.24
488.498
487.166
467.444
490.532
468.327
456.151
438.25
459.183
438.877
512.773
494.132
516.164
495.255
531.404
558.201
518.313
548.69
524.095
553.909
514.085
545.307
536.421
560.425
520.788
550.646
539.193
561.448
521.923
551.852
538.708
526.746
559.087
550.969
532.462
521.048
556.749
548
525.126
514.4
552.64
543.357
464.763
435.737
491.5
515.044
546.566
435.979
463.033
486.338
508.218
538.166
432.395
460.16
484.638
508.228
538.615
508.47
494.069
523.444
510.63
505.191
490.66
523.144
509.689
501.349
487.298
522.261
508.271
429.057
418.963
456.174
445.799
478.326
466.083
498.135
484.964
520.995
506.52
425.389
412.818
453.095
442.653
476.89
466.054
498.864
486.391
520.241
504.85
450.849
441.751
448.766
439.03
420.462
402.115
416.713
395.856
476.381
468.949
477.059
469.502
447.145
436.504
446.871
436.073
414.631
391.915
414.245
391.656
475.379
467.311
475.526
467.287
501.687
494.523
523.471
516.856
501.122
493.521
522.644
514.459
501.123
493.459
523.469
517.113
501.06
493.332
523.276
516.382
483.211
477.47
498.875
493.382
479.504
473.227
497.436
490.731
476.051
469.504
494.962
486.412
408.461
402.726
436.003
429.177
456.223
448.628
473.707
465.869
491.355
480.922
398.59
393.948
432.979
427.21
455.672
448.524
473.096
463.937
486.272
475.931
412.469
404.588
420.559
410.798
438.643
427.652
453.443
436.975
394.515
376.736
398.905
380.249
392.639
376.579
397.568
380.273
394.564
389.382
394.296
387.734
376.037
379.995
413.947
416.637
442.21
446.373
395.929
397.557
396.298
397.251
381.073
381.188
363.36
345.27
365.496
346.279
363.842
344.146
365.749
345.273
363.741
342.282
366.455
344.132
367.264
343.842
367.124
342.916
391.628
382.678
395.792
383.763
415.143
405.715
421.288
407.56
377.095
364.643
373.633
363.904
398.411
384.365
399.75
384.212
425.317
408.748
427.552
408.971
378.724
364.861
379.178
364.41
361.401
340.283
349.241
333.316
359.039
338.854
348.862
332.999
362.504
340.735
349.212
333.067
362.562
340.44
348.662
332.315
359.512
355.851
342.728
338.589
359.717
356.158
341.373
337.279
358.928
355.588
339.247
335.432
386.152
408.259
368.668
355.495
336.155
409.193
386.873
368.087
353.599
333.696
404.304
381.863
363.188
348.414
332.214
351.274
344.302
331.874
320.455
351.977
345.537
331.193
320.303
351.582
345.139
330.052
319.837
402.67
393.481
381.447
373.66
364.195
358.05
349.524
342.338
329.64
320.327
397.1
384.958
376.102
365.708
358.238
349.052
343.386
333.88
328.844
320.203
371.487
357.88
367.999
352.626
391.653
375.979
388.497
369.542
351.104
338.156
354.322
342.343
365.809
348.869
365.018
348.12
386.884
364.571
386.415
363.895
348.938
335.257
347.94
334.385
336.255
325.05
325.115
313.882
339.903
327.959
327.222
316.262
333.794
323.252
323.237
311.887
333.339
322.226
321.978
311.604
336.765
333.671
299.498
296.223
339.917
336.251
300.338
296.808
338.391
333.305
300.987
296.748
384.501
379.253
366.099
361.735
350.669
346.355
333.423
328.04
301.21
296.236
372.676
368.774
354.972
351.082
338.466
334.536
321.213
317.833
299.038
295.168
327.678
316.264
308.995
302.934
328.203
316.4
309.03
302.835
327.023
315.982
308.904
302.965
327.58
316.074
308.929
302.851
325.876
315.482
308.788
303.082
326.611
315.557
308.715
302.79
325.944
315.029
308.147
302.26
324.912
314.262
307.455
301.73
324.527
314.647
308.302
302.813
321.588
313.563
307.793
303.045
324.124
314.723
308.512
303.189
321.83
313.891
308.061
303.362
324.38
314.326
307.886
302.388
321.149
313.131
307.381
302.663
323.806
313.795
307.352
301.899
320.516
312.6
306.913
302.255
326.55
315.928
308.922
303.179
324.774
315.41
308.706
303.538
325.912
315.683
308.84
303.229
324.269
315.23
308.627
303.572
324.857
315.267
308.711
303.356
323.471
314.905
308.503
303.653
323.249
314.61
308.464
303.513
322.608
314.535
308.362
303.736
321.802
314.061
308.171
303.591
322.661
314.899
308.331
304.424
321.159
314.628
308.207
304.868
322.437
314.788
308.3
304.42
320.983
314.52
308.168
304.85
321.972
314.553
308.208
304.391
320.62
314.299
308.068
304.802
321.479
314.246
308.123
304.37
320.219
313.996
307.952
304.745
320.811
313.822
307.978
304.327
319.573
313.597
307.781
304.661
318.915
312.818
307.306
303.901
317.266
312.48
307.116
304.185
319.95
313.376
307.699
304.174
318.459
313.085
307.497
304.475
317.902
312.209
306.813
303.494
316.184
311.839
306.627
303.789
317.079
311.6
306.325
303.061
315.402
311.215
306.139
303.373
296.517
292.059
288.788
286.649
285.592
296.478
292.044
288.78
286.644
285.589
296.483
292.028
288.767
286.634
285.581
296.416
292
288.751
286.625
285.574
296.44
291.992
288.742
286.618
285.569
296.3
291.926
288.705
286.594
285.55
296.098
291.807
288.634
286.548
285.515
295.885
291.684
288.56
286.5
285.478
296.266
291.89
288.681
286.578
285.538
296.306
291.895
288.68
286.577
285.537
296.386
291.953
288.717
286.601
285.555
296.381
291.933
288.702
286.591
285.547
296.125
291.814
288.636
286.549
285.515
296.166
291.821
288.637
286.549
285.515
295.887
291.678
288.555
286.496
285.475
295.931
291.687
288.557
286.497
285.476
296.57
292.077
288.796
286.654
285.596
296.616
292.088
288.801
286.656
285.598
296.553
292.056
288.781
286.643
285.588
296.602
292.071
288.788
286.647
285.591
296.526
292.026
288.76
286.629
285.577
296.578
292.043
288.768
286.634
285.58
296.481
291.989
288.735
286.612
285.564
296.522
292.006
288.745
286.618
285.568
296.432
291.959
288.717
286.6
285.555
535.958
532.259
536.022
532.296
535.929
532.182
535.512
531.546
535.09
530.745
536.01
533.253
535.572
532.268
536.144
533.469
536.304
533.569
565.436
571.371
572.637
572.92
572.98
559.299
569.73
572.269
572.842
572.962
565.65
571.438
572.654
572.924
572.981
559.44
569.796
572.288
572.848
572.963
565.816
571.5
572.671
572.928
572.982
559.551
569.859
572.307
572.853
572.965
566.008
571.567
572.687
572.932
572.983
559.591
569.9
572.319
572.855
572.965
566.156
571.6
572.692
572.932
572.983
559.576
569.893
572.312
572.852
572.964
565.11
571.217
572.583
572.904
572.975
559.089
569.543
572.192
572.818
572.954
565.54
571.39
572.635
572.918
572.979
559.287
569.712
572.253
572.836
572.959
564.809
571.098
572.547
572.894
572.972
558.946
569.439
572.152
572.806
572.95
564.907
571.113
572.547
572.893
572.971
558.997
569.436
572.144
572.803
572.949
426.785
463.684
459.88
423.83
417.795
423.923
415.624
423.133
444.226
459.811
448.071
462.831
283.238
283.878
285.302
287.555
290.637
294.542
283.782
284.41
285.799
287.971
290.934
294.704
282.791
282.566
283.446
283.222
284.923
284.712
287.328
287.208
290.634
290.761
294.897
295.507
299.184
304.951
312.411
322.373
330.736
336.793
299.311
304.867
311.428
318.592
324.751
328.674
282.265
280.865
278.987
276.744
274.274
282.843
281.355
279.359
276.976
274.353
284.13
282.445
280.187
277.493
274.529
286.164
284.168
281.495
278.31
274.806
288.945
286.521
283.28
279.424
275.185
292.462
289.492
285.533
280.829
275.662
282.756
281.282
279.303
276.942
274.341
283.324
281.762
279.668
277.169
274.418
284.579
282.825
280.475
277.674
274.59
286.539
284.485
281.735
278.46
274.857
289.211
286.745
283.45
279.53
275.221
292.606
289.612
285.624
280.887
275.682
281.86
280.522
278.726
276.581
274.218
281.657
280.35
278.595
276.499
274.19
282.453
281.024
279.107
276.819
274.299
282.25
280.853
278.977
276.738
274.272
283.787
282.156
279.967
277.356
274.482
283.597
281.994
279.844
277.28
274.456
285.96
283.996
281.364
278.228
274.778
285.852
283.904
281.295
278.185
274.764
288.942
286.519
283.279
279.423
275.184
289.057
286.616
283.352
279.469
275.2
292.782
289.762
285.736
280.955
275.705
293.331
290.224
286.084
281.171
275.778
296.632
293.006
288.193
282.489
276.227
301.789
297.335
291.468
284.537
276.925
308.403
302.853
295.644
287.167
277.827
317.102
310.042
301.122
290.689
279.058
324.226
315.887
305.659
293.738
280.186
329.289
320.022
308.926
296.012
281.05
296.743
293.099
288.265
282.537
276.244
301.716
297.277
291.429
284.517
276.919
307.553
302.164
295.133
286.847
277.718
313.875
307.432
299.14
289.395
278.601
319.259
311.904
302.566
291.611
279.384
322.667
314.733
304.752
293.048
279.898
283.359
284.246
285.938
288.491
291.91
296.189
283.905
284.784
286.438
288.895
292.16
296.234
282.91
282.684
283.811
283.583
285.559
285.344
288.281
288.166
291.961
292.108
296.708
297.454
301.193
307.257
314.849
324.544
332.261
337.345
301.109
306.84
313.4
320.299
325.92
329.091
282.375
280.959
279.058
276.788
274.289
283.177
281.64
279.576
277.112
274.399
284.707
282.937
280.563
277.729
274.609
287.015
284.894
282.05
278.659
274.925
290.103
287.51
284.038
279.901
275.348
293.963
290.777
286.52
281.451
275.875
282.868
281.377
279.376
276.987
274.357
283.663
282.051
279.889
277.308
274.466
285.159
283.32
280.853
277.911
274.671
287.378
285.201
282.283
278.804
274.975
290.326
287.698
284.18
279.99
275.378
294
290.806
286.541
281.465
275.88
281.968
280.614
278.796
276.625
274.233
281.764
280.441
278.664
276.542
274.205
282.783
281.306
279.322
276.954
274.345
282.577
281.131
279.189
276.871
274.317
284.364
282.647
280.342
277.591
274.562
284.17
282.482
280.217
277.513
274.535
286.825
284.734
281.929
278.583
274.899
286.721
284.646
281.862
278.541
274.885
290.149
287.55
284.069
279.92
275.354
290.283
287.664
284.156
279.974
275.372
294.433
291.177
286.824
281.641
275.939
295.108
291.749
287.258
281.912
276.032
298.468
294.584
289.409
283.258
276.49
303.906
299.163
292.885
285.437
277.234
310.657
304.817
297.181
288.151
278.166
319.135
311.838
302.549
291.616
279.38
325.673
317.181
306.702
294.427
280.43
329.819
320.501
309.316
296.275
281.144
298.386
294.51
289.353
283.224
276.479
303.523
298.836
292.636
285.283
277.182
309.369
303.739
296.36
287.63
277.988
315.457
308.815
300.226
290.093
278.842
320.35
312.864
303.325
292.104
279.555
323.058
315.079
305.027
293.227
279.96
368.35
350.611
308.026
301.74
307.294
302.867
308.118
376.346
374.656
352.862
365.597
331.021
342.817
325.033
329.673
323.138
367.703
342.733
327.022
323.81
330.657
325.187
316.355
317.508
316.982
313.167
321.193
318.691
364.509
343.245
352.205
334
328.487
341.509
317.881
311.627
321.818
352.666
337.667
324.081
309.031
287.711
340.04
328.467
315.868
301.405
283.347
304.606
299.759
293.336
285.717
277.328
298.965
295.006
289.73
283.458
276.558
303.971
299.239
292.941
285.463
277.24
299.984
295.87
290.386
283.867
276.696
304.702
299.849
293.404
285.755
277.34
361.468
344.889
329.397
312.047
289.041
360.061
343.577
327.679
309.662
286.724
343.17
331.339
317.662
301.863
283.264
353.367
338.038
322.732
305.479
285.016
324.941
316.691
306.169
293.838
280.142
334.939
324.736
312.322
297.927
281.662
319.76
312.45
302.943
291.749
279.397
323.81
315.785
305.468
293.361
279.962
318.107
311.087
301.909
291.086
279.164
354.254
339.113
324.837
308.73
287.486
334.758
324.611
312.43
298.24
281.833
321.469
313.85
304.03
292.476
279.661
318.641
311.507
302.258
291.353
279.27
324.56
316.369
305.997
293.818
280.159
319.811
312.45
302.987
291.841
279.44
312.016
305.962
298.047
288.689
278.347
313.077
306.873
298.733
289.108
278.489
312.651
306.539
298.47
288.922
278.42
309.237
303.67
296.3
287.564
277.956
316.376
309.642
300.824
290.411
278.934
314.148
307.779
299.417
289.53
278.632
350.558
336.003
322.563
307.484
286.954
334.528
324.205
312.344
298.594
282.138
342.704
330.061
316.952
301.738
282.603
327.264
318.448
307.652
295.012
280.564
322.635
314.733
304.746
293.008
279.842
333.725
323.61
311.653
297.703
281.443
313.389
307.121
298.925
289.237
278.535
307.845
302.493
295.409
287.011
277.769
316.879
310.036
301.14
290.643
279.021
280.579
295.086
308.132
319.292
328.106
334.649
488.342
483.255
460.332
465.451
475.534
469.115
452.838
444.182
507.59
524.375
503.685
519.91
498.416
489.595
515.111
478.651
474.933
452.813
456.766
468.507
463.76
446.52
439.746
497.44
510.782
494.928
507.68
490.627
483.311
503.975
465.126
462.808
442.143
444.892
458.165
455.427
437.327
432.254
482.137
495.551
480.568
493.641
477.854
472.794
491.166
451.514
449.94
430.852
432.999
446.47
444.738
426.818
422.365
467.722
481.143
466.668
479.634
464.479
460.235
477.58
441.689
440.314
422.578
424.569
436.938
434.996
418.619
413.601
456.786
469.044
456.024
468.461
454.152
450.13
466.865
434.873
433.539
416.977
418.919
430.187
428.161
413.092
408.156
448.515
461.031
447.784
460.872
446.24
442.472
459.293
411.45
408.542
434.141
437.833
404.653
397.475
428.559
419.666
388.86
369.946
386.431
369.276
381.268
379.788
368.186
407.381
404.515
428.661
431.879
400.734
393.881
423.558
415.53
383.855
367.482
381.309
367.11
376.664
375.614
365.969
401.367
398.688
420.491
423.127
395.125
389.04
416.123
409.391
381.586
365.594
379.26
364.657
374.9
373.813
362.967
394.577
391.854
411.349
413.717
387.732
381.183
407.181
400.265
377.366
362.45
374.782
360.644
370.071
368.17
357.874
389.597
386.833
404.651
406.954
382.765
376.132
400.492
393.509
374.033
360.663
371.085
357.558
365.903
363.13
353.429
386.555
383.746
400.238
402.525
379.712
373.015
396.115
389.298
372.892
358.994
369.674
354.968
363.573
360.191
350.189
542.327
557.9
529.392
548.283
512.896
534.756
487.284
511.094
490.631
514.683
514.341
538.003
525.224
546.81
536.233
554.627
504.443
489.089
520.915
497.094
479.225
462.465
494.713
469.389
549.592
555.877
561.783
564.899
539.841
548.233
554.415
559.38
538.702
526.595
514.518
507.891
539.996
549.889
539.933
545.254
504.7
511.44
517.217
522.769
477.012
482.911
550.944
555.653
523.274
532.201
560.828
566.191
560.402
567.775
567.317
570.805
553.568
565.219
562.5
569.045
544.572
561.05
552.936
565.316
559.051
567.414
562.751
568.729
476.32
462.486
483.189
465.284
443.711
431.246
451.039
434.844
509.422
492.433
503.575
489.641
487.944
467.199
490.728
468.225
456.209
437.238
459.179
438.529
513.878
494.346
516.455
495.303
533.73
559.084
519.099
549.057
528.465
555.59
515.665
546.047
537.467
560.831
521.131
550.807
539.469
561.559
522.016
551.896
556.593
547.781
565.157
558.562
549.145
540.306
562.02
554.556
538.634
529.112
556.801
548.189
462.499
424.607
495.74
521.423
549.156
423.379
460.686
492.034
516.511
541.561
422.655
457.61
486.356
511.062
539.945
530.09
513.794
533.664
518.172
524.799
508.486
531.527
515.644
516.319
500.298
527.919
511.784
416.741
404.432
453.974
442.232
483.384
469.392
505.381
490.158
524.322
507.971
415.537
401.846
449.577
436.929
477.313
463.737
500.591
485.562
521.376
504.324
448.028
437.691
446.756
436.296
414.325
394.611
412.871
391.044
475.612
467.538
476.413
467.638
445.978
434.967
446.49
435.59
412.622
389.476
413.614
390.902
474.829
466.428
475.334
466.999
501.562
493.947
523.531
516.682
501.446
492.881
523.027
514.313
500.931
493.041
523.426
516.955
500.977
493.176
523.25
516.321
495
479.482
471.028
497.891
481.737
473.152
490.199
474.345
465.887
495.051
478.204
469.364
481.239
464.908
456.085
490.54
472.721
463.43
388.538
377.157
371.38
426.101
411.282
403.281
452.537
435.95
426.616
471.365
454.586
445.603
485.357
466.322
456.302
384.678
372.623
366.059
422.225
408.847
401.906
447.624
432.464
424.436
466.266
448.845
439.54
479.579
460.441
450.631
419.637
406.567
423.42
410.832
448.002
432.456
456.149
438.503
392.301
372.568
393.5
374.545
393.166
372.994
394.945
375.615
393.055
389.818
392.366
385.924
371.891
376.166
413.575
416.458
442.721
446.48
394.649
397.039
394.942
396.751
378.568
380.256
351.286
332.904
356.898
336.362
352.73
332.574
358.348
336.565
353.685
331.958
360.588
337.196
363.712
339.515
365.903
341.42
385.467
373.847
392.674
378.76
411.865
399.057
419.806
403.92
372.353
358.833
364.862
354.133
396.758
381.695
399.241
383.325
424.537
406.829
427.307
408.331
376.21
361.695
378.4
363.354
355.377
334.253
343.296
327.941
348.655
329.831
339.339
325.008
359.256
337.227
345.881
329.941
361.553
339.301
347.535
331.269
333.767
322.348
325.913
318.195
334.805
323.91
325.535
318.263
336.089
327.32
324.912
318.975
365.693
389.785
348.679
337.649
323.779
387.863
362.242
342.621
330.864
319.255
388.106
364.17
346.547
333.935
321.524
312.704
303.169
309.798
300.38
315.244
305.725
310.854
301.675
319.525
310.621
312.577
303.786
381.211
368.934
355.382
344.108
337.253
328.334
325.299
316.583
314.844
306.56
380.969
368.305
357.722
346.708
340.593
331.018
328.084
318.704
317.645
309.293
360.752
347.156
361.763
346.38
382.225
365.916
382.979
363.491
344.793
332.245
343.654
332.209
362.639
345.795
364.031
347.182
384.118
361.59
385.56
362.986
345.67
332.323
346.907
333.478
330.519
319.965
320.092
309.756
330.288
319.347
319.418
309.584
330.704
320.62
320.446
309.712
332.288
321.369
321.133
310.954
291.102
284.472
281.899
283.593
278.88
277.326
294.53
287.576
284.696
285.009
280.126
278.375
299.73
292.563
289.72
287.131
281.882
280.051
355.474
346.16
341.789
333.188
325.643
322.421
317.8
310.868
308.215
305.285
298.092
295.203
289.129
283.8
281.738
353.864
343.798
338.981
334.49
325.632
321.34
319.495
311.573
307.942
305.848
299.116
296.547
290.321
285.276
282.808
318.963
310.539
305.092
300.306
320.502
311.156
305.374
300.342
318.828
310.573
305.215
300.495
320.756
311.388
305.642
300.608
318.518
310.578
305.401
300.786
321.075
311.706
305.99
300.941
322.355
312.48
306.363
301.099
323.636
313.344
306.803
301.291
319.954
311.449
306.006
301.202
317.481
310.643
305.654
301.434
317.828
310.465
305.524
301.116
316.063
309.926
305.283
301.386
321.568
312.311
306.393
301.282
318.676
311.329
306.014
301.575
322.847
313.099
306.837
301.524
319.686
311.987
306.444
301.878
316.39
309.576
304.703
300.347
313.303
308.476
304.237
300.489
316.202
309.562
304.77
300.498
313.322
308.528
304.297
300.614
315.884
309.53
304.867
300.751
313.599
308.708
304.447
300.837
315.343
309.45
304.956
301.08
313.718
308.838
304.605
301.111
314.68
309.318
304.954
301.343
310.444
307.566
303.729
301.024
308.771
307.127
303.508
301.256
310.88
307.747
303.843
301.121
309.285
307.327
303.622
301.345
311.568
308.049
304.032
301.284
310.102
307.663
303.812
301.5
312.389
308.417
304.306
301.523
311.092
308.091
304.079
301.71
313.415
308.901
304.64
301.781
312.015
308.543
304.36
301.933
314.854
309.856
305.177
302.2
313.266
309.491
304.972
302.43
314.182
309.356
304.894
301.993
312.725
309.021
304.66
302.178
315.491
310.386
305.474
302.396
313.839
310.012
305.293
302.685
316.289
310.991
305.873
302.686
314.643
310.611
305.694
303.002
294.996
291.148
288.233
286.287
285.315
295.008
291.158
288.239
286.291
285.318
295.077
291.19
288.256
286.302
285.326
295.106
291.212
288.271
286.311
285.333
295.163
291.234
288.282
286.317
285.338
295.243
291.291
288.318
286.341
285.356
295.436
291.407
288.389
286.388
285.392
295.625
291.526
288.463
286.437
285.43
295.347
291.339
288.344
286.358
285.369
295.388
291.347
288.346
286.359
285.369
295.254
291.282
288.309
286.335
285.351
295.33
291.311
288.324
286.344
285.358
295.459
291.41
288.389
286.387
285.392
295.498
291.416
288.389
286.387
285.391
295.66
291.539
288.47
286.441
285.433
295.694
291.542
288.468
286.439
285.431
294.988
291.139
288.226
286.282
285.311
294.99
291.133
288.222
286.279
285.309
295.051
291.17
288.243
286.293
285.319
295.047
291.16
288.236
286.288
285.316
295.132
291.208
288.264
286.306
285.329
295.123
291.196
288.256
286.3
285.324
295.222
291.252
288.289
286.321
285.341
295.199
291.235
288.278
286.314
285.335
295.282
291.284
288.307
286.333
285.35
541.358
537.246
540.583
536.41
539.187
534.977
537.483
533.069
535.961
531.219
536.099
533.244
535.904
532.406
536.143
533.417
536.295
533.545
566.355
571.542
572.671
572.927
572.982
560.822
570.057
572.335
572.856
572.965
566.413
571.581
572.683
572.93
572.983
560.734
570.079
572.346
572.859
572.966
566.37
571.606
572.693
572.933
572.983
560.495
570.075
572.353
572.862