/*--------------------------------*- C++ -*----------------------------------*\
| =========                 |                                                 |
| \\      /  F ield         | OpenFOAM: The Open Source CFD Toolbox           |
|  \\    /   O peration     | Version:  2412                                  |
|   \\  /    A nd           | Website:  www.openfoam.com                      |
|    \\/     M anipulation  |                                                 |
\*---------------------------------------------------------------------------*/
FoamFile
{
    version     2.0;
    format      ascii;
    arch        "LSB;label=32;scalar=64";
    class       volVectorField;
    location    "0.6";
    object      flux;
}
// * * * * * * * * * * * * * * * * * * * * * * * * * * * * * * * * * * * * * //

dimensions      [0 1 -1 1 0 0 0];

internalField   nonuniform List<vector> 
5712
(
(-0.410766 0.633643 0.393934)
(-0.506601 0.348392 1.18765)
(-0.924312 1.08578 0.302151)
(-1.46733 0.719353 1.28866)
(-1.41966 1.04916 0.16275)
(-2.7691 0.904971 1.34385)
(-0.964793 1.49704 0.267315)
(-2.894 1.90291 2.07096)
(-0.983334 2.29871 0.432204)
(-2.3066 2.97402 2.58587)
(-1.21078 1.23977 0.45098)
(-2.01093 1.10504 1.87164)
(-0.918279 0.761021 0.486884)
(-1.23738 0.531956 1.68007)
(-0.496249 0.510965 0.483436)
(-0.511642 0.29166 1.45835)
(-0.731461 0.994838 0.220591)
(-0.859052 0.821151 0.129989)
(-0.964434 0.919187 0.677855)
(-0.895868 0.860228 0.335033)
(-0.652841 1.12668 0.204252)
(-0.976526 1.02146 0.0964804)
(-0.957473 1.34359 0.710064)
(-0.960688 1.0953 0.287934)
(-0.284909 0.361596 0.309963)
(-0.220509 0.240098 0.242681)
(-0.384759 0.190732 0.909217)
(-0.287983 0.132566 0.699874)
(-0.658209 0.511478 0.207459)
(-0.461987 0.317161 0.176025)
(-1.19435 0.28644 0.911852)
(-0.868583 0.188379 0.726625)
(-0.993379 1.10712 0.471774)
(-1.02765 1.13196 0.175923)
(-1.06151 0.934455 0.374347)
(-1.13017 0.685129 0.147472)
(-0.282836 0.734357 0.180055)
(-0.230978 0.606171 0.458618)
(-2.23358 0.633674 2.08477)
(-2.76088 0.612033 0.62742)
(-1.22066 0.815643 0.634162)
(-1.61206 0.817827 0.273365)
(-2.79001 1.76988 2.4604)
(-3.44318 1.96905 0.755599)
(-1.31092 1.19927 0.565806)
(-1.61254 1.2924 0.241808)
(-1.72149 0.98208 1.43128)
(-2.24905 0.776623 0.472326)
(-1.40908 0.940837 0.730874)
(-1.92618 0.646801 0.322373)
(-0.825545 0.404357 1.2083)
(-1.03122 0.358248 0.379937)
(-0.181683 0.333667 0.37868)
(-0.0594989 0.579333 0.202363)
(-0.231128 0.168184 0.551586)
(-0.0824304 0.253497 0.231829)
(-0.411214 0.43793 0.355363)
(-0.17225 0.758697 0.213252)
(-0.68449 0.282593 0.574623)
(-0.257472 0.420727 0.227328)
(-0.48365 0.431606 0.453024)
(-0.16178 0.895422 0.285342)
(-0.457825 0.337891 0.370489)
(-0.133255 0.614958 0.16541)
(-0.874139 0.0984791 0.6103)
(-0.26117 0.40639 0.228671)
(-1.13874 0.0114296 0.235084)
(-0.366357 0.289016 0.0897723)
(-1.34624 0.768086 0.762596)
(-0.790819 0.93295 0.596426)
(-1.1331 0.854892 0.437745)
(-0.78394 0.950001 0.404736)
(-1.30489 0.940961 0.74826)
(-0.841339 0.927162 0.657055)
(-1.03804 1.00918 0.392493)
(-0.811393 0.936865 0.414259)
(-0.937015 0.820371 0.444281)
(-0.685955 0.998692 0.403325)
(-1.043 0.783868 0.640387)
(-0.678312 0.967637 0.564936)
(-1.10173 0.878283 0.306474)
(-0.797565 0.959729 0.268669)
(-1.14268 0.871582 0.15821)
(-0.814446 0.963478 0.134956)
(-1.02104 1.04538 0.274627)
(-0.814977 0.943822 0.270229)
(-1.06518 1.06231 0.135552)
(-0.827641 0.947721 0.134406)
(-0.956848 0.783206 0.317368)
(-0.7121 1.01028 0.262965)
(-1.02769 0.717335 0.168485)
(-0.734529 1.01266 0.120839)
(-1.04916 0.966092 0.405011)
(-0.454817 1.12415 0.235715)
(-0.640388 1.21302 0.4276)
(-0.760726 1.87048 0.463478)
(-1.13733 1.01771 0.584898)
(-0.534668 1.33754 0.445359)
(-0.648714 1.21115 0.642904)
(-0.813212 2.09906 0.818047)
(-1.04605 0.912069 0.275103)
(-0.417988 0.979427 0.12437)
(-0.659992 1.20347 0.26039)
(-0.740288 1.75146 0.268127)
(-1.08241 0.87816 0.14328)
(-0.418967 0.893904 0.0533016)
(-0.688046 1.20342 0.10816)
(-0.743705 1.69894 0.0980857)
(-0.176215 0.310374 0.489846)
(-0.201827 0.411857 0.930257)
(-0.0637918 0.861752 0.339162)
(-0.137833 1.48768 1.04452)
(-0.503714 0.359724 0.530152)
(-0.596732 0.419237 0.926921)
(-0.220713 1.03663 0.400271)
(-0.446144 1.62056 1.09549)
(-0.819348 0.4083 0.659484)
(-0.970117 0.429386 0.888688)
(-0.412 1.23297 0.537726)
(-0.757952 1.74866 1.08586)
(-0.775542 1.10606 0.59588)
(-0.381817 1.07482 0.591493)
(-0.905956 1.06126 0.560377)
(-1.20608 1.07352 0.585632)
(-0.666185 1.67678 0.663095)
(-0.245949 1.07965 0.386235)
(-0.407116 1.03317 0.522963)
(-0.615962 1.04265 0.784391)
(-1.21584 0.962409 0.968334)
(-0.913069 1.96677 1.39737)
(-0.511969 0.982687 0.532676)
(-0.718695 0.988948 0.519315)
(-0.861062 0.926642 0.555633)
(-0.908072 1.11642 0.712716)
(-1.19036 2.45841 1.08817)
(-0.184652 0.0975973 1.14948)
(-0.180457 0.128554 1.10067)
(-0.121473 0.289424 1.34302)
(-0.124672 0.650629 1.34779)
(-0.543261 0.134699 1.10136)
(-0.477903 0.192779 1.08546)
(-0.384519 0.363776 1.33037)
(-0.371932 0.717232 1.31691)
(-0.805758 0.192433 0.981917)
(-0.672346 0.182054 1.00347)
(-0.577704 0.465529 1.24811)
(-0.549086 0.799177 1.25141)
(-0.387568 0.997946 0.473265)
(-0.412787 0.899378 0.49286)
(-0.618612 0.903082 0.56356)
(-0.64479 0.77471 0.589874)
(-0.829803 0.869334 0.718664)
(-0.754188 0.685049 0.739696)
(-1.07227 0.68324 0.89343)
(-0.931169 0.550736 0.885818)
(-0.858818 0.621284 1.17732)
(-0.82557 0.976583 1.1939)
(-0.563956 0.887279 0.419259)
(-0.53498 0.727704 0.465131)
(-0.755341 0.886774 0.539986)
(-0.590846 0.754594 0.614652)
(-0.774937 0.828528 0.663472)
(-0.555054 0.693816 0.761922)
(-0.762282 0.811051 0.817928)
(-0.524213 0.656916 0.935421)
(-0.946528 0.716392 1.11603)
(-0.687381 1.01508 1.24555)
(-0.613167 0.94426 0.50892)
(-0.235691 0.968951 0.339952)
(-0.506727 0.990073 0.398124)
(-0.417602 1.05446 0.367277)
(-0.645072 0.882693 0.509111)
(-0.654444 0.783024 0.516595)
(-0.665661 0.913095 0.403856)
(-0.776654 0.846794 0.478187)
(-0.463572 0.941522 0.404757)
(-0.381513 0.924811 0.377642)
(-0.594982 0.925487 0.533096)
(-0.165946 0.885694 0.378667)
(-0.507617 1.01192 0.17816)
(-0.691416 1.08388 0.256185)
(-0.536445 1.01229 0.056119)
(-0.756063 1.08253 0.0839237)
(-0.686427 0.935619 0.241542)
(-0.972806 0.890825 0.342373)
(-0.720425 0.933634 0.0764394)
(-1.01867 0.892512 0.115174)
(-0.472107 0.928743 0.17185)
(-0.656944 0.9139 0.249433)
(-0.501208 0.946222 0.0517731)
(-0.729136 0.925819 0.0813787)
(-0.609028 0.890665 0.416243)
(-0.382088 0.856538 0.336931)
(-0.840333 0.647522 0.455794)
(-0.327429 0.785075 0.285374)
(-0.623894 0.905053 0.60567)
(-0.126412 0.845307 0.43179)
(-0.783212 0.678731 0.726775)
(-0.089622 0.836307 0.491178)
(-0.646507 0.858346 0.205129)
(-0.577564 0.837286 0.207862)
(-0.888327 0.634468 0.255248)
(-0.418231 0.77401 0.146001)
(-0.600128 0.863196 0.135415)
(-0.678749 0.825699 0.136092)
(-0.82965 0.624343 0.151741)
(-0.535444 0.750856 0.109866)
(-0.153955 0.0952799 0.958382)
(-0.128796 0.0652301 0.63026)
(-0.0921369 0.0411702 0.210468)
(-0.102167 0.0458942 1.04121)
(-0.090903 0.0319124 0.655268)
(-0.069508 0.0299126 0.22627)
(-0.395032 0.149015 0.927977)
(-0.288784 0.0827695 0.608357)
(-0.208299 0.0533696 0.211827)
(-0.282094 0.110681 1.02179)
(-0.200042 0.0844958 0.646455)
(-0.140702 0.060373 0.220406)
(-0.488458 0.139905 0.85983)
(-0.338359 0.102607 0.555335)
(-0.260929 0.091178 0.185671)
(-0.41135 0.19987 0.979155)
(-0.270741 0.142703 0.624296)
(-0.203576 0.109818 0.21376)
(-0.32372 0.72457 0.367113)
(-0.193412 0.505117 0.222452)
(-0.146059 0.380701 0.0669414)
(-0.551758 0.650186 0.510086)
(-0.307004 0.485549 0.343552)
(-0.192189 0.383317 0.112079)
(-0.57241 0.477754 0.645572)
(-0.322284 0.367164 0.439942)
(-0.189462 0.304657 0.147683)
(-0.685506 0.39269 0.759661)
(-0.425885 0.298513 0.495177)
(-0.285465 0.244027 0.163725)
(-0.64322 0.328448 0.922281)
(-0.359416 0.188194 0.584791)
(-0.210256 0.121712 0.203466)
(-0.598701 0.573677 0.378567)
(-0.376781 0.414373 0.217149)
(-0.261017 0.320473 0.075143)
(-0.498857 0.616777 0.476289)
(-0.305529 0.4493 0.313857)
(-0.18845 0.356193 0.113234)
(-0.504436 0.497875 0.588257)
(-0.293964 0.341565 0.38956)
(-0.169415 0.264891 0.13778)
(-0.513228 0.402712 0.717685)
(-0.301351 0.276673 0.458605)
(-0.175906 0.21576 0.159199)
(-0.649164 0.319474 0.875358)
(-0.323047 0.179397 0.518909)
(-0.149168 0.115563 0.181391)
(-0.521442 1.22303 -0.0244254)
(-0.819619 1.22186 0.0340139)
(-0.461232 1.33788 0.00521279)
(-0.631426 1.18411 0.0971052)
(-0.467416 1.25047 0.085947)
(-0.916701 1.19354 0.0801179)
(-0.409152 1.54158 0.217316)
(-0.768165 1.26288 0.182508)
(-0.00140178 0.736366 0.0232917)
(-0.061579 0.759579 0.0322063)
(0.0137055 0.745039 0.0246139)
(-0.0396574 0.694126 0.0336982)
(-0.138486 0.988293 0.0106066)
(-0.251503 0.817788 0.0295201)
(-0.0943611 0.987535 0.0203777)
(-0.164928 0.736942 0.043816)
(-0.100141 1.07849 0.0504306)
(-0.174555 1.09631 0.0359929)
(-0.471242 0.911849 0.130212)
(-0.672075 0.995673 0.0975555)
(-0.332732 1.12942 0.0540821)
(-0.27274 1.02404 0.0786664)
(-0.539901 1.25777 0.109978)
(-0.48043 1.3261 -0.00579906)
(-0.77336 1.38617 0.272474)
(-0.836423 1.51347 0.0580551)
(0.00571482 1.0463 -0.215823)
(0.22354 1.08967 -0.0847978)
(-0.369669 0.905161 -0.00350654)
(-0.259918 0.904047 -0.0176578)
(-0.270758 1.00095 -0.0449487)
(-0.152048 0.974555 -0.0529652)
(-0.0589157 0.606777 0.340737)
(-0.0370343 0.326694 0.124282)
(-0.0525788 0.577658 0.087726)
(-0.0342809 0.363072 0.0434721)
(-0.151495 0.595059 0.33432)
(-0.0470748 0.319952 0.12292)
(-0.0897367 0.56168 0.0924537)
(-0.0238003 0.350571 0.0482073)
(-0.387685 0.548663 0.316694)
(-0.105012 0.293395 0.12719)
(-0.311879 0.529258 0.109655)
(-0.0974919 0.332176 0.0594252)
(-0.345428 0.523753 0.074763)
(-0.100879 0.344399 0.03334)
(-0.381719 0.503933 0.0123959)
(-0.11533 0.341269 0.0113822)
(-0.564101 0.883391 0.534183)
(-0.507648 0.641984 0.453621)
(-0.436529 0.893853 0.219949)
(-0.492375 0.668696 0.279662)
(-0.899627 1.01906 0.680316)
(-0.761515 0.860172 0.622439)
(-0.731282 1.06156 0.321193)
(-0.711737 0.874854 0.376649)
(-0.297932 0.796735 0.170385)
(-0.338358 0.494932 0.205937)
(-0.3486 0.803531 0.398228)
(-0.319144 0.463284 0.313063)
(-0.406018 0.931793 0.12525)
(-0.481283 0.684754 0.170131)
(-0.422418 0.969182 0.0507555)
(-0.481174 0.689907 0.080357)
(-0.69799 1.11516 0.201723)
(-0.689424 0.888098 0.2326)
(-0.72304 1.15142 0.0943667)
(-0.690958 0.89415 0.113174)
(-0.262093 0.788962 0.0794185)
(-0.336671 0.509832 0.124749)
(-0.24998 0.789758 0.0238658)
(-0.335832 0.51311 0.0604982)
(-0.0282046 0.44036 0.130437)
(-0.0327687 0.2798 0.0701424)
(-0.232189 0.354712 0.145386)
(-0.093447 0.218974 0.0714118)
(-0.033653 0.394163 0.247767)
(-0.0258355 0.247235 0.109898)
(-0.206444 0.322466 0.203884)
(-0.0789813 0.1983 0.0980409)
(-0.0254485 0.456373 0.0613421)
(-0.0279585 0.297149 0.0391961)
(-0.240553 0.369536 0.0923962)
(-0.101351 0.230047 0.0430557)
(-0.0317736 0.461056 0.0153899)
(-0.0286444 0.306508 0.0138072)
(-0.23875 0.37304 0.047177)
(-0.104896 0.234735 0.0196979)
(0.0045376 0.0917959 0.37868)
(0.0102542 0.0458926 0.206497)
(-0.0159838 0.16626 0.151816)
(-0.00758693 0.0949144 0.129868)
(0.0244331 0.0937812 0.376608)
(0.0416121 0.0517021 0.209904)
(-0.0243652 0.167428 0.14643)
(-0.00954988 0.102943 0.126089)
(-0.0415878 0.0995033 0.382818)
(-0.00533691 0.0672223 0.210073)
(-0.0699878 0.16394 0.144085)
(-0.0501949 0.115789 0.116976)
(0.236645 0.439122 0.532922)
(0.119837 0.798344 0.590273)
(0.129872 0.277522 0.434048)
(0.0852957 0.249867 0.288445)
(0.00642493 0.179449 0.123746)
(0.254852 0.804889 0.350734)
(0.347549 0.474736 0.361207)
(0.145566 0.245757 0.328971)
(0.142251 0.217223 0.262637)
(0.010832 0.137784 0.134174)
(-0.420474 0.784953 0.50658)
(-0.28849 0.530652 0.391655)
(-0.205322 0.369468 0.278888)
(-0.174906 0.260317 0.188759)
(-0.0720087 0.166459 0.089081)
(0.0137064 0.0273413 0.135082)
(0.0103288 0.0203555 0.10225)
(-0.00278801 0.063443 0.111971)
(-0.00210436 0.0507491 0.103205)
(0.0391705 0.0338078 0.141822)
(0.0360879 0.0217975 0.107532)
(-0.0063707 0.0744757 0.111397)
(-0.00434608 0.0590736 0.10428)
(0.0335767 0.0475915 0.148722)
(0.0402302 0.0328679 0.117095)
(-0.0240649 0.0886367 0.109097)
(-0.018336 0.0712164 0.104771)
(0.0757981 0.785044 0.385743)
(0.00390512 0.665523 0.357998)
(0.234467 0.453425 0.303432)
(0.126901 0.358051 0.248973)
(0.107822 0.2593 0.190938)
(0.055493 0.207953 0.173478)
(0.0988259 0.191825 0.147909)
(0.0664567 0.149536 0.132961)
(0.00731968 0.121109 0.0976238)
(-0.000585227 0.0980447 0.103997)
(-0.233658 0.684938 0.29233)
(-0.162881 0.523992 0.320187)
(-0.0268967 0.459815 0.213104)
(0.0217961 0.340994 0.228117)
(0.000229706 0.319735 0.156475)
(0.0287542 0.242 0.164064)
(-0.00985842 0.216103 0.118598)
(0.0162291 0.166521 0.12435)
(-6.03605e-05 0.145978 0.072151)
(-7.69686e-05 0.131036 0.0979957)
(-0.173687 0.447776 0.197265)
(-0.161971 0.300817 0.152516)
(-0.354825 0.46559 0.132133)
(-0.211871 0.291052 0.0821309)
(-0.360598 0.62176 0.331261)
(-0.301911 0.414222 0.23819)
(-0.514177 0.652291 0.259729)
(-0.363529 0.424569 0.166427)
(-0.236705 0.349469 0.0816108)
(-0.133685 0.230835 0.052664)
(-0.0924192 0.33912 0.125375)
(-0.0985981 0.240352 0.10665)
(-0.412171 0.493174 0.146152)
(-0.177468 0.283223 0.069424)
(-0.440415 0.503174 0.0515052)
(-0.1705 0.29065 0.0273068)
(-0.586578 0.700384 0.21889)
(-0.36009 0.447667 0.12643)
(-0.627904 0.706675 0.0713798)
(-0.357647 0.456944 0.0474925)
(-0.280199 0.357046 0.0993992)
(-0.102199 0.221167 0.0441709)
(-0.300791 0.365661 0.0376134)
(-0.0920343 0.232482 0.0173035)
(-0.140409 0.236777 0.0474574)
(-0.0917131 0.172037 0.0514041)
(-0.0629036 0.160862 0.03978)
(-0.102608 0.165465 0.0605639)
(-0.0660507 0.236296 0.0779339)
(-0.0731705 0.176379 0.0827606)
(-0.0335997 0.162925 0.0481488)
(-0.0820559 0.160019 0.0780157)
(-0.152694 0.237345 0.0566014)
(-0.0811047 0.169158 0.0354457)
(-0.0787913 0.15735 0.0269248)
(-0.11762 0.172197 0.0430167)
(-0.185046 0.250028 0.0154626)
(-0.0731019 0.173268 0.00310944)
(-0.100043 0.163563 -0.0066553)
(-0.109782 0.170626 0.00330327)
(0.00809704 0.0263262 0.0713705)
(0.00656646 0.0168026 0.0329694)
(0.00640924 0.0108637 0.00943753)
(-0.00154402 0.0917859 0.0641078)
(0.00110851 0.0378947 0.0182947)
(0.00130659 0.0243396 0.0049929)
(0.0280309 0.0247011 0.0773049)
(0.0229049 0.0183666 0.0382529)
(0.020584 0.0128025 0.0118066)
(-0.00184696 0.0998378 0.0666351)
(0.00499298 0.0449767 0.0201237)
(0.00522048 0.0300747 0.00574725)
(0.0350962 0.0331837 0.0843194)
(0.0344038 0.0271908 0.0434683)
(0.0317356 0.0219662 0.0123053)
(-0.00977007 0.110876 0.068072)
(0.0089524 0.0569325 0.0213235)
(0.0106402 0.0407233 0.00571739)
(-0.0223601 0.481415 0.245206)
(0.00490509 0.334908 0.14089)
(0.0054691 0.255048 0.0414677)
(0.0553309 0.261522 0.166286)
(0.0558906 0.183196 0.0950349)
(0.0467685 0.14221 0.0287224)
(0.038131 0.16204 0.126279)
(0.0397045 0.114127 0.069059)
(0.0354674 0.0899512 0.0212491)
(0.0460118 0.120212 0.0936961)
(0.0435398 0.0830291 0.0483828)
(0.0390502 0.0646929 0.013652)
(-0.00511538 0.135218 0.0697363)
(0.0122298 0.0766976 0.0217794)
(0.0101819 0.0554345 0.00559634)
(-0.173824 0.360145 0.258849)
(-0.084698 0.244727 0.140106)
(-0.0447094 0.181635 0.0464274)
(-0.0238877 0.231233 0.184659)
(0.00693346 0.155263 0.100106)
(0.0179837 0.115702 0.0332844)
(-0.0054186 0.17291 0.133747)
(0.0163595 0.113566 0.0711859)
(0.0219862 0.0822179 0.0232591)
(-0.00268562 0.138235 0.0978813)
(0.0158042 0.0899484 0.0462955)
(0.0191954 0.0657097 0.0142186)
(-0.0238391 0.18084 0.0778259)
(0.00544056 0.0960637 0.0237785)
(0.00745328 0.0693482 0.00772578)
(-0.00327459 0.148634 0.0378251)
(-0.000742749 0.0645896 0.01122)
(-0.000138946 0.0291221 0.00439368)
(-4.6828e-06 0.0132901 0.00134598)
(-0.000641769 0.166815 0.0150233)
(0.00027102 0.0702223 0.00458991)
(0.000666562 0.0306572 0.00188738)
(0.000350943 0.0139538 0.000602907)
(-0.00825976 0.143436 0.0375873)
(-0.00196471 0.063351 0.0114102)
(-0.000195044 0.0289691 0.00484117)
(5.09763e-05 0.0133596 0.0015907)
(-0.0015476 0.164244 0.016231)
(0.000578686 0.0700249 0.00527099)
(0.00128782 0.0312292 0.00261294)
(0.000661598 0.014446 0.000966664)
(-0.0130858 0.134432 0.0407598)
(-0.00350504 0.0614861 0.0127774)
(-0.000701824 0.0298519 0.00585723)
(0.000172553 0.0138841 0.00205198)
(-0.00758788 0.157509 0.0228672)
(-0.00118071 0.0698813 0.00822174)
(1.07398e-05 0.0329463 0.00306728)
(0.000345038 0.0153412 0.00108037)
(-0.00434475 0.163256 0.0108075)
(-0.000744857 0.0718627 0.00479045)
(-0.000551129 0.0316872 0.000713309)
(-0.000142472 0.0146118 0.000124)
(-0.00593228 0.164939 0.00703754)
(-0.00160292 0.0732863 0.00376442)
(-0.000365483 0.031606 0.00092184)
(2.6786e-05 0.0143368 0.000295691)
(-0.0242531 0.140423 0.0286315)
(-0.00720709 0.0644872 0.00986929)
(-0.00348334 0.0312919 0.0037877)
(-0.000776061 0.014493 0.0010603)
(-0.0292013 0.116136 0.0257653)
(-0.00862936 0.0565479 0.00867488)
(-0.0053502 0.0287554 0.00418339)
(-0.00103775 0.012852 0.00105721)
(-0.0201871 0.123345 0.0400898)
(-0.00594569 0.0584934 0.0129116)
(-0.00268641 0.0300106 0.00610059)
(-3.7026e-05 0.0139129 0.00193659)
(-0.0240494 0.106219 0.0336458)
(-0.00711048 0.0528552 0.0107255)
(-0.00474825 0.0276299 0.00560212)
(-0.000916427 0.0123506 0.001198)
(-0.021847 0.149705 0.0172986)
(-0.00660338 0.0682206 0.00653126)
(-0.00300889 0.0316448 0.00222879)
(-0.00072878 0.0145146 0.000717485)
(-0.0316169 0.122012 0.0167675)
(-0.00934104 0.0590937 0.00604592)
(-0.00566267 0.0293001 0.00281747)
(-0.00108261 0.0129809 0.000831822)
(-0.0215975 0.153827 0.00818365)
(-0.00671654 0.070338 0.00365746)
(-0.00265693 0.0320088 0.00134176)
(-0.000533117 0.0145701 0.000521037)
(-0.032699 0.124712 0.00793935)
(-0.00968036 0.0606411 0.00332359)
(-0.00580909 0.029869 0.00158288)
(-0.00114478 0.0132139 0.000611749)
(-0.00247329 0.111735 0.0468079)
(-0.000643112 0.0551341 0.0138799)
(-0.000305036 0.027044 0.00575651)
(-9.22148e-05 0.0124359 0.00164517)
(-0.00164705 0.0787219 0.044802)
(-0.000420832 0.0448677 0.0133145)
(-0.000400239 0.0244034 0.0066322)
(-4.70549e-05 0.0110192 0.00150806)
(-0.00632918 0.10821 0.0455731)
(-0.00169816 0.0541596 0.0136696)
(-0.000698825 0.0270577 0.00595903)
(-0.000144859 0.0124573 0.00169807)
(-0.00319575 0.0784552 0.0427779)
(-0.000754945 0.0447594 0.0127265)
(-0.000869265 0.024411 0.00650556)
(-9.02311e-05 0.0110282 0.00142174)
(-0.0166919 0.103167 0.0444032)
(-0.00489455 0.0527431 0.0134949)
(-0.00231284 0.0274221 0.00656532)
(-0.00047348 0.0125845 0.00192524)
(-0.0121544 0.0802448 0.0381789)
(-0.00341573 0.045407 0.0113441)
(-0.00216147 0.0246795 0.0062359)
(-9.63854e-05 0.0110669 0.00139694)
(-0.00854584 0.0985033 0.039022)
(-0.00250337 0.0507064 0.011978)
(-0.0013846 0.0270511 0.00642179)
(0.000343667 0.0124267 0.00218134)
(-0.00533521 0.0813508 0.0409801)
(-0.00138466 0.0456979 0.0121153)
(-0.00139832 0.0253766 0.00751138)
(0.000101884 0.0112983 0.00180946)
(-0.0204114 0.0935317 0.0288161)
(-0.00598311 0.0488991 0.00885102)
(-0.00415337 0.0260295 0.00485415)
(-0.000332118 0.0116628 0.00129854)
(0.000220898 0.0509957 0.0332977)
(0.000161257 0.0363624 0.00940761)
(-3.22586e-05 0.0192995 0.00499966)
(7.491e-05 0.00531491 0.00105213)
(0.00178503 0.02719 0.0122659)
(0.000619123 0.0322383 0.00326776)
(0.000191091 0.0172509 0.00156602)
(0.000102025 0.00472133 0.000414781)
(-0.000555226 0.054024 0.0330315)
(0.000107831 0.0374677 0.00936831)
(-0.000323637 0.0197794 0.0049517)
(0.000133665 0.00557869 0.00102873)
(0.00445867 0.0308191 0.0126102)
(0.00158669 0.0334556 0.00338379)
(0.000405847 0.017647 0.00163412)
(0.000243436 0.00483528 0.00044981)
(-0.00242309 0.0591907 0.0313333)
(-0.000377512 0.0392463 0.00886675)
(-0.000683987 0.0201828 0.00484659)
(0.000203138 0.00557305 0.000994364)
(0.00663379 0.0369052 0.0123833)
(0.00232461 0.0355468 0.00333293)
(0.000592004 0.0181167 0.00167936)
(0.000346061 0.00491345 0.000486597)
(-0.0022022 0.0675505 0.0266855)
(-0.000293237 0.0416919 0.00744359)
(-0.000848301 0.0211487 0.00448744)
(0.000246022 0.00600334 0.00100122)
(0.0080669 0.0455913 0.0111336)
(0.00278582 0.0384482 0.00292164)
(0.000567007 0.0189875 0.00171146)
(0.000327867 0.00517552 0.000528696)
(-0.00512227 0.0806178 0.0232425)
(-0.000912232 0.0452193 0.00660378)
(-0.00185578 0.0227091 0.00403205)
(-0.000108132 0.00677451 0.00103614)
(0.00573326 0.0577401 0.010248)
(0.00238383 0.0416593 0.00278513)
(8.08903e-05 0.0198611 0.00169935)
(0.000174769 0.00540002 0.000546836)
(-0.0188114 0.092326 0.0156358)
(-0.00393568 0.0496899 0.00500281)
(-0.00381371 0.0236577 0.00237909)
(-0.000631488 0.00660378 0.000606734)
(-0.00528276 0.0649646 0.00787942)
(-0.00028412 0.0460348 0.00271408)
(-0.000882243 0.0215689 0.00109649)
(-0.000170396 0.00571893 0.000384781)
(-0.0115517 0.0895493 0.0184141)
(-0.00212322 0.0478223 0.00544815)
(-0.00307096 0.0230718 0.00312793)
(-0.000445832 0.00657931 0.000803731)
(-0.00043161 0.0637705 0.00890692)
(0.00107424 0.0444111 0.00270664)
(-0.000480552 0.0207225 0.00142351)
(-1.83016e-05 0.00555027 0.000496719)
(-0.024259 0.093074 0.0113445)
(-0.00567703 0.0507674 0.00405291)
(-0.00439482 0.0236652 0.00174376)
(-0.000785372 0.00627843 0.000502957)
(-0.00804119 0.0650942 0.0061153)
(-0.00133472 0.0471207 0.00235308)
(-0.00114806 0.0219113 0.000803815)
(-0.000270046 0.00569151 0.000309127)
(-0.0271957 0.0922338 0.00598234)
(-0.00694681 0.0516839 0.00256526)
(-0.00478118 0.0241202 0.00114479)
(-0.000916861 0.00634327 0.000442907)
(-0.00968379 0.0673649 0.00376603)
(-0.00217099 0.0480864 0.00171336)
(-0.00133365 0.0223423 0.000665348)
(-0.000333789 0.00576609 0.000299401)
(7.51438e-07 0.00591736 0.000266097)
(8.23931e-06 0.00263129 5.13876e-05)
(4.48537e-06 0.00111709 1.1103e-05)
(1.83446e-06 0.000434894 2.79178e-06)
(8.21073e-07 0.000111986 9.57394e-07)
(4.82641e-05 0.00611668 0.000109881)
(2.10926e-05 0.00267091 2.23084e-05)
(8.37465e-06 0.00112497 5.02933e-06)
(3.08959e-06 0.000436591 1.30804e-06)
(1.32588e-06 0.000112299 4.5914e-07)
(-1.85082e-05 0.00600184 0.000284672)
(1.60907e-05 0.00264955 6.16845e-05)
(9.38661e-06 0.00112397 1.55118e-05)
(3.84954e-06 0.000437441 4.4507e-06)
(1.71587e-06 0.000112614 1.67309e-06)
(0.000122396 0.00622797 0.000154322)
(5.96577e-05 0.00269692 4.11728e-05)
(2.33577e-05 0.00113462 1.19943e-05)
(8.48372e-06 0.000440076 3.768e-06)
(3.60563e-06 0.000113147 1.49139e-06)
(1.21618e-05 0.00600023 0.000370899)
(3.30905e-05 0.00266065 9.63531e-05)
(1.54098e-05 0.00113094 2.78464e-05)
(5.87954e-06 0.00044024 8.72417e-06)
(2.5386e-06 0.000113312 3.44531e-06)
(0.000203209 0.0062357 0.000424212)
(9.11342e-05 0.00273294 0.000136154)
(3.42838e-05 0.0011502 4.42696e-05)
(1.2194e-05 0.000445649 1.47476e-05)
(5.12398e-06 0.000114484 6.01941e-06)
(4.85132e-05 0.00646496 0.000365285)
(2.61648e-05 0.00280846 0.000127523)
(1.04279e-05 0.0011766 4.30829e-05)
(3.79886e-06 0.000454364 1.46574e-05)
(1.61709e-06 0.00011651 6.06594e-06)
(-1.50947e-05 0.00652321 0.000264597)
(6.38807e-06 0.00286393 0.000104398)
(4.18612e-06 0.00119924 3.79002e-05)
(1.75757e-06 0.000462241 1.35031e-05)
(7.93313e-07 0.000118382 5.76778e-06)
(2.32433e-05 0.00621452 0.000379829)
(2.89652e-05 0.00273313 0.000108889)
(1.30219e-05 0.00115551 3.38024e-05)
(4.90591e-06 0.000448272 1.10312e-05)
(2.10637e-06 0.000115174 4.46474e-06)
(-4.70472e-05 0.00594063 0.000278582)
(-3.0332e-06 0.00269989 8.25448e-05)
(6.93049e-07 0.00115143 2.60673e-05)
(4.79631e-07 0.000447854 8.5762e-06)
(2.41755e-07 0.000115154 3.48372e-06)
(0.00016543 0.00592464 0.000406345)
(7.00327e-05 0.00267572 0.00011219)
(2.53798e-05 0.00113932 3.4249e-05)
(8.84974e-06 0.000443386 1.10775e-05)
(3.67622e-06 0.000114077 4.44838e-06)
(-1.23949e-06 0.00579992 0.000234881)
(9.86593e-06 0.00266853 7.07905e-05)
(4.6854e-06 0.00114213 2.27608e-05)
(1.77753e-06 0.000444969 7.54892e-06)
(7.63952e-07 0.000114498 3.06975e-06)
(-9.18003e-05 0.00635533 0.000357082)
(-9.21865e-06 0.00278578 0.000112346)
(1.09264e-07 0.00117285 3.6295e-05)
(5.16543e-07 0.000453808 1.21123e-05)
(3.00181e-07 0.000116443 4.9758e-06)
(-5.30701e-05 0.00602823 0.000275172)
(-3.46931e-06 0.00274492 9.44826e-05)
(7.4794e-07 0.00116739 3.19397e-05)
(5.26041e-07 0.000453087 1.08881e-05)
(2.655e-07 0.000116365 4.51582e-06)
(-0.000122374 0.00642388 0.000247278)
(-1.52406e-05 0.00284379 9.56863e-05)
(-1.08567e-06 0.00119695 3.46307e-05)
(2.46415e-07 0.000462289 1.23366e-05)
(2.16101e-07 0.000118468 5.27302e-06)
(-8.11515e-05 0.00609994 0.000231197)
(-1.08477e-05 0.00279917 9.13224e-05)
(-1.35269e-06 0.00119046 3.33442e-05)
(-1.28447e-07 0.000461301 1.19193e-05)
(6.63076e-09 0.000118334 5.10308e-06)
(-8.64987e-06 0.00559961 0.000277337)
(5.27703e-06 0.00257367 4.9646e-05)
(3.22679e-06 0.00110647 1.0203e-05)
(1.35042e-06 0.000432743 2.47178e-06)
(6.10361e-07 0.000111605 8.25418e-07)
(1.8827e-05 0.00528174 0.000120269)
(9.4268e-06 0.00252923 2.03366e-05)
(3.76287e-06 0.0010991 4.0575e-06)
(1.39376e-06 0.000431327 9.64384e-07)
(6.00972e-07 0.000111362 3.17556e-07)
(-5.58655e-06 0.00562646 0.000278349)
(1.54117e-05 0.00258582 5.32598e-05)
(7.98339e-06 0.00111148 1.22511e-05)
(3.17261e-06 0.000434609 3.31567e-06)
(1.40006e-06 0.000112065 1.20232e-06)
(5.13889e-05 0.00532249 0.000115534)
(2.32526e-05 0.00254319 2.04336e-05)
(8.93303e-06 0.00110401 4.42641e-06)
(3.23819e-06 0.000433033 1.1477e-06)
(1.37872e-06 0.000111772 4.04416e-07)
(-1.15599e-05 0.00564071 0.000265458)
(2.01597e-05 0.00260001 5.72474e-05)
(1.01434e-05 0.00111826 1.47789e-05)
(3.9458e-06 0.000437151 4.34127e-06)
(1.71871e-06 0.000112687 1.6515e-06)
(9.46331e-05 0.00540165 0.000120454)
(3.50921e-05 0.00256486 2.69887e-05)
(1.23412e-05 0.00111145 7.25732e-06)
(4.28254e-06 0.000435554 2.19393e-06)
(1.78254e-06 0.000112369 8.48906e-07)
(0.000159539 0.00566286 0.000350314)
(5.67703e-05 0.00262228 9.45847e-05)
(1.91941e-05 0.00112738 2.83102e-05)
(6.49318e-06 0.0004403 9.0405e-06)
(2.65726e-06 0.000113431 3.59089e-06)
(0.000104907 0.00552784 0.000178871)
(3.18677e-05 0.0026005 4.71276e-05)
(1.01828e-05 0.00112202 1.40288e-05)
(3.37259e-06 0.0004388 4.47161e-06)
(1.37048e-06 0.000113105 1.77228e-06)
(0.000106025 0.00565372 0.000275927)
(3.57537e-05 0.00264456 8.77043e-05)
(1.18057e-05 0.00113504 2.85586e-05)
(3.94696e-06 0.000442764 9.50296e-06)
(1.60562e-06 0.000113997 3.85935e-06)
(-0.0203472 0.660723 0.193311)
(-0.0282558 1.03317 0.338704)
(-0.0577049 0.679574 0.185132)
(-0.0829088 1.03803 0.329762)
(-0.0909806 0.710479 0.176189)
(-0.137061 1.04565 0.307904)
(-0.109161 0.747153 0.173399)
(-0.18362 1.08134 0.295602)
(-0.0997477 0.77586 0.178479)
(-0.170239 1.15209 0.319501)
(-0.100171 0.660104 0.102369)
(-0.149878 0.806688 0.13904)
(-0.0737402 0.698476 0.139558)
(-0.0994192 0.898284 0.21196)
(-0.13473 0.646407 0.0660351)
(-0.193852 0.78129 0.0813821)
(-0.148716 0.637432 0.021866)
(-0.208409 0.773537 0.0290884)
(-0.0377383 0.549353 0.601759)
(-0.00880694 0.100728 0.151563)
(-0.00209386 0.0230545 0.0374074)
(-0.000524821 0.00546619 0.00959553)
(-0.000176648 0.0010174 0.00325593)
(-0.0118322 0.651522 0.162915)
(-0.00522805 0.185519 0.045232)
(-0.000539384 0.0469805 0.0128885)
(-0.000197896 0.0112356 0.00332354)
(-9.0663e-05 0.00207659 0.00103483)
(-0.122286 0.553195 0.590585)
(-0.0287211 0.0980716 0.146916)
(-0.00687083 0.0220867 0.0360628)
(-0.00173652 0.00520152 0.00920884)
(-0.000589703 0.00096502 0.00311682)
(-0.0300785 0.653291 0.168736)
(-0.00693648 0.183934 0.0509184)
(-0.00160273 0.0460829 0.0133786)
(-0.000399316 0.0109074 0.00354524)
(-0.000128603 0.00201571 0.00117721)
(-0.213382 0.559823 0.557832)
(-0.0505008 0.0958808 0.136828)
(-0.0121917 0.0211443 0.0333547)
(-0.00312436 0.00493578 0.00849723)
(-0.0010783 0.000913239 0.00287885)
(-0.056068 0.65853 0.163656)
(-0.0148984 0.182219 0.0490003)
(-0.0037926 0.0450138 0.0127633)
(-0.00104734 0.0105751 0.0033486)
(-0.000379112 0.00194893 0.00110125)
(-0.300355 0.566183 0.508538)
(-0.0717772 0.0926937 0.122851)
(-0.017604 0.0200331 0.0298532)
(-0.00460509 0.00465828 0.00764212)
(-0.00162848 0.000863752 0.00261711)
(-0.081859 0.665409 0.155546)
(-0.0241187 0.179991 0.0454431)
(-0.00658715 0.0440067 0.0116122)
(-0.00190247 0.0103232 0.00300227)
(-0.000717015 0.00190706 0.000974818)
(-0.410144 0.564089 0.431693)
(-0.101391 0.0891521 0.103389)
(-0.0255912 0.0192733 0.0252988)
(-0.0068944 0.00453713 0.00657871)
(-0.00251493 0.00085154 0.00230454)
(-0.114694 0.665008 0.140721)
(-0.0382615 0.176868 0.0394506)
(-0.0109916 0.0434651 0.0098988)
(-0.00324529 0.0103196 0.0025402)
(-0.00124345 0.00192828 0.000822128)
(-0.535728 0.513904 0.232444)
(-0.146167 0.097717 0.0600536)
(-0.0394958 0.0237622 0.0154023)
(-0.0112944 0.00602139 0.00416865)
(-0.00434145 0.0011819 0.00151718)
(-0.141494 0.56791 0.0703994)
(-0.0488023 0.173767 0.0185745)
(-0.0143796 0.0468075 0.00430458)
(-0.00432494 0.0119145 0.000994361)
(-0.00169223 0.00233516 0.000285153)
(-0.494766 0.537127 0.329659)
(-0.13017 0.0946716 0.082435)
(-0.0340862 0.0217964 0.0206642)
(-0.00946585 0.00532218 0.00548829)
(-0.00354574 0.00102085 0.00196638)
(-0.132907 0.607559 0.0987405)
(-0.0470204 0.175825 0.0268081)
(-0.0138635 0.0452423 0.00657977)
(-0.00414668 0.011098 0.00165905)
(-0.00160179 0.00212078 0.000528)
(-0.554593 0.501086 0.144048)
(-0.153792 0.0997681 0.0382912)
(-0.0422616 0.0250705 0.00999942)
(-0.012297 0.00651208 0.00274442)
(-0.00479901 0.00129951 0.00100936)
(-0.147612 0.551377 0.0442391)
(-0.0489411 0.172634 0.0119272)
(-0.014146 0.0477259 0.00270571)
(-0.00420789 0.0124465 0.000578295)
(-0.00164372 0.00248472 0.000148108)
(-0.570247 0.495316 0.0520051)
(-0.157872 0.0978505 0.0140509)
(-0.0436589 0.0247461 0.00371229)
(-0.0128176 0.00649497 0.0010308)
(-0.00504359 0.00130713 0.000383335)
(-0.149819 0.544342 0.0194334)
(-0.0494507 0.170419 0.00489343)
(-0.014205 0.0475417 0.00106728)
(-0.0039832 0.0125229 0.000301865)
(-0.00161951 0.00251988 5.28356e-05)
(-0.026322 1.62964 -0.110121)
(-0.343517 2.39542 -0.00491149)
(-0.331913 2.12023 0.198334)
(-0.179647 1.51057 -0.181952)
(0.163966 0.798518 0.0427252)
(0.22668 0.848106 0.0456365)
(0.447054 1.28101 0.114915)
(0.597374 1.30791 0.14156)