/*--------------------------------*- C++ -*----------------------------------*\
| =========                 |                                                 |
| \\      /  F ield         | OpenFOAM: The Open Source CFD Toolbox           |
|  \\    /   O peration     | Version:  2412                                  |
|   \\  /    A nd           | Website:  www.openfoam.com                      |
|    \\/     M anipulation  |                                                 |
\*---------------------------------------------------------------------------*/
FoamFile
{
    version     2.0;
    format      ascii;
    arch        "LSB;label=32;scalar=64";
    class       volScalarField;
    location    "0.6";
    object      gradTz;
}
// * * * * * * * * * * * * * * * * * * * * * * * * * * * * * * * * * * * * * //

dimensions      [0 -1 0 1 0 0 0];

internalField   nonuniform List<scalar> 
5712
(
9848.35
29691.2
7553.79
32216.6
4068.75
33596.4
6682.88
51773.9
10805.1
64646.6
11274.5
46790.9
12172.1
42001.8
12085.9
36458.9
5514.77
3249.73
16946.4
8375.82
5106.3
2412.01
17751.6
7198.35
7749.08
6067.02
22730.4
17496.8
5186.47
4400.63
22796.3
18165.6
11794.4
4398.07
9358.69
3686.8
4501.37
11465.4
52119.2
15685.5
15854
6834.12
61510.1
18890
14145.2
6045.2
35781.9
11808.2
18271.9
8059.32
30207.6
9498.43
9467.01
5059.08
13789.7
5795.73
8884.09
5331.31
14365.6
5683.21
11325.6
7133.55
9262.23
4135.24
15257.5
5716.77
5877.11
2244.31
19064.9
14910.6
10943.6
10118.4
18706.5
16426.4
9812.32
10356.5
11107
10083.1
16009.7
14123.4
7661.85
6716.73
3955.25
3373.91
6865.67
6755.72
3388.81
3360.14
7934.2
6574.13
4212.12
3020.97
10125.3
5892.86
10690
11587
14622.5
11134
16072.6
20451.2
6877.58
3109.25
6509.76
6703.19
3582.01
1332.54
2704.01
2452.14
12246.1
23256.4
8479.04
26113
13253.8
23173
10006.8
27387.2
16487.1
22217.2
13443.2
27146.6
14897
14787.3
14009.4
14640.8
16577.4
9655.87
13074.1
19609.8
24208.4
34934.2
13316.9
12982.9
13890.8
17817.9
27204.1
28737.1
27516.7
33575.5
33694.7
27533.9
27136.5
33259.3
32922.7
24547.9
25086.7
31202.8
31285.4
11831.6
12321.5
14089
14746.8
17966.6
18492.4
22335.8
22145.4
29433
29847.5
10481.5
11628.3
13499.7
15366.3
16586.8
19048
20448.2
23385.5
27900.6
31138.7
12723
8498.81
9953.1
9181.94
12727.8
12914.9
10096.4
11954.7
10118.9
9441.05
13327.4
9466.67
4454.01
6404.64
1402.98
2098.09
6038.54
8559.33
1910.99
2879.34
4296.26
6235.83
1294.33
2034.47
10406.1
8423.27
11394.8
7134.35
15141.7
10794.8
18169.4
12279.4
5128.23
5196.56
6381.2
3650.01
3385.37
3402.3
3793.52
2746.66
23959.6
15756.5
5261.7
26030.4
16381.7
5656.75
23199.4
15208.9
5295.67
25544.8
16161.4
5510.15
21495.7
13883.4
4641.78
24478.9
15607.4
5343.99
9177.82
5561.31
1673.53
12752.2
8588.8
2801.98
16139.3
10998.5
3692.07
18991.5
12379.4
4093.11
23057
14619.8
5086.64
9464.17
5428.73
1878.57
11907.2
7846.42
2830.85
14706.4
9738.99
3444.5
17942.1
11465.1
3979.98
21884
12972.7
4534.79
-610.634
850.348
130.32
2427.63
2148.68
2002.95
5432.91
4562.7
582.292
805.157
615.348
842.454
265.164
738.003
509.444
1095.4
1260.76
899.823
3255.31
2438.89
1352.05
1966.66
2749.45
-144.976
6811.84
1451.38
-5395.56
-2119.95
-87.6635
-441.446
-1123.72
-1324.13
8518.44
3107.05
2193.15
1086.8
8358.01
3073
2311.34
1205.18
7917.35
3179.75
2741.38
1485.63
1869.08
833.5
309.898
284.555
13354.6
11340.5
5498.73
6991.54
17007.9
15561
8029.82
9416.23
4259.62
5148.41
9955.71
7826.58
3131.26
4253.28
1268.89
2008.93
5043.08
5815
2359.17
2829.36
1985.46
3118.74
596.645
1512.46
3260.92
1753.56
3634.65
1785.29
6194.17
2747.44
5097.1
2451.02
1533.55
979.903
2309.91
1076.39
384.748
345.18
1179.42
492.448
9467
5162.44
3795.39
3246.69
9415.2
5247.59
3660.74
3152.22
9570.46
5251.82
3602.12
2924.39
13323.1
14756.8
10851.2
7211.13
3093.66
8768.36
9030.17
8224.27
6565.93
3354.35
12664.5
9791.37
6972.2
4718.97
2227.03
3377.04
2556.25
2799.28
2580.13
3545.54
2688.29
2784.92
2606.99
3718.05
2927.37
2727.44
2619.28
9643.57
8949.95
7585.79
6224.31
4773.46
4336.96
3697.73
3324.02
2440.6
2599.93
7308.26
8004.68
5327.61
5702.93
3911.87
4101.6
2964.95
3108.75
1803.77
2449.89
4931.62
3812.9
3303.32
2053.27
8281.52
5954.76
6493.23
4160.67
2040.27
1316.6
3134.39
2666.25
3653.81
1735.6
1287.63
682.671
5472.26
3160.74
1784.49
1187.31
2484.98
1104.27
940.335
432.587
1186.43
1285.1
994.5
1514.1
1948.35
2069.01
1203.72
1950.39
1415.04
886.143
673.12
1075.42
386.565
77.736
-166.382
82.5818
1784.26
824.235
235.938
1602.69
457.367
124.823
1932.62
956.323
295.165
1665.88
503.093
143.681
2107.99
1086.71
307.632
1701.8
533.086
142.935
6130.16
3522.26
1036.69
4157.16
2375.87
718.061
3156.99
1726.48
531.229
2342.4
1209.57
341.3
1743.41
544.484
139.909
6471.22
3502.65
1160.68
4616.48
2502.65
832.109
3343.67
1779.65
581.478
2447.03
1157.39
355.465
1945.65
594.463
193.145
945.628
280.501
109.842
33.6494
375.581
114.748
47.1844
15.0727
939.683
285.256
121.029
39.7676
405.774
131.775
65.3235
24.1666
1019
319.434
146.431
51.2996
571.681
205.544
76.6821
27.0092
270.188
119.761
17.8327
3.09999
175.939
94.1106
23.046
7.39227
715.787
246.732
94.6925
26.5074
644.131
216.872
104.585
26.4302
1002.24
322.79
152.515
48.4147
841.145
268.138
140.053
29.9499
432.465
163.281
55.7199
17.9371
419.188
151.148
70.4368
20.7955
204.591
91.4365
33.5441
13.0259
198.484
83.0897
39.5719
15.2937
1170.2
346.998
143.913
41.1292
1120.05
332.861
165.805
37.7016
1139.33
341.741
148.976
42.4518
1069.45
318.163
162.639
35.5436
1110.08
337.373
164.133
48.131
954.472
283.602
155.897
34.9234
975.55
299.45
160.545
54.5334
1024.5
302.883
187.785
45.2366
720.401
221.275
121.354
32.4635
832.442
235.19
124.992
26.3031
306.646
81.6939
39.1506
10.3695
825.788
234.208
123.793
25.7182
315.256
84.5947
40.8531
11.2452
783.332
221.669
121.165
24.8591
309.581
83.3233
41.984
12.1649
667.139
186.09
112.186
25.0305
278.339
73.041
42.7864
13.2174
581.062
165.094
100.801
25.9034
256.2
69.6283
42.4838
13.6709
390.895
125.07
59.4773
15.1684
196.986
67.852
27.4123
9.61953
460.352
136.204
78.1983
20.0933
222.673
67.6659
35.5877
12.418
283.611
101.323
43.594
12.5739
152.883
58.827
20.0954
7.72817
149.559
64.1314
28.6198
11.0727
94.1508
42.834
16.6337
7.48503
6.65241
1.28469
0.277574
0.0697945
0.0239348
2.74701
0.55771
0.125733
0.0327011
0.0114785
7.11679
1.54211
0.387795
0.111267
0.0418272
3.85805
1.02932
0.299857
0.0942
0.0372847
9.27247
2.40883
0.696161
0.218104
0.0861328
10.6053
3.40385
1.10674
0.36869
0.150485
9.13212
3.18809
1.07707
0.366434
0.151648
6.61492
2.60994
0.947505
0.337576
0.144195
9.49573
2.72223
0.84506
0.27578
0.111619
6.96456
2.06362
0.651683
0.214405
0.087093
10.1586
2.80476
0.856226
0.276937
0.11121
5.87203
1.76976
0.56902
0.188723
0.0767437
8.92705
2.80866
0.907374
0.302807
0.124395
6.87929
2.36207
0.798492
0.272201
0.112896
6.18194
2.39216
0.865767
0.308415
0.131825
5.77991
2.28306
0.833606
0.297982
0.127577
6.93342
1.24115
0.255074
0.0617944
0.0206354
3.00672
0.508416
0.101438
0.0241096
0.00793891
6.95873
1.3315
0.306277
0.0828919
0.0300581
2.88835
0.51084
0.11066
0.0286924
0.0101104
6.63645
1.43119
0.369472
0.108532
0.0412874
3.01136
0.674718
0.181433
0.0548482
0.0212227
8.75784
2.36462
0.707754
0.226013
0.0897722
4.47177
1.17819
0.350721
0.11179
0.044307
6.89818
2.19261
0.713966
0.237574
0.0964837
4832.77
8467.59
4628.29
8244.05
4404.73
7697.61
4334.98
7390.04
4461.97
7987.53
2559.21
3476
3488.95
5299.01
1650.88
2034.55
546.651
727.211
15044
3789.06
935.186
239.888
81.3982
4072.88
1130.8
322.212
83.0885
25.8708
14764.6
3672.91
901.571
230.221
77.9205
4218.41
1272.96
334.464
88.631
29.4304
13945.8
3420.71
833.867
212.431
71.9713
4091.41
1225.01
319.081
83.715
27.5313
12713.4
3071.28
746.33
191.053
65.4277
3888.66
1136.08
290.305
75.0568
24.3705
10792.3
2584.71
632.471
164.468
57.6136
3518.03
986.264
247.47
63.505
20.5532
5811.1
1501.34
385.057
104.216
37.9295
1759.98
464.363
107.615
24.859
7.12884
8241.48
2060.88
516.605
137.207
49.1594
2468.51
670.201
164.494
41.4763
13.2
3601.2
957.279
249.985
68.6104
25.2341
1105.98
298.179
67.6428
14.4574
3.70269
1300.13
351.272
92.8072
25.77
9.58339
485.836
122.336
26.6819
7.54664
1.32089
-2753.02
-122.787
4958.36
-4548.8
1068.13
1140.91
2872.88
3539
2421.75
3946.92
3413.98
5165.38
3471.18
4500.21
1639.46
2362.34
1699.43
1982.26
1155.01
1197.13
2416.29
1594.65
187.053
-94.2625
-89.3593
-154.749
88.0089
12557.4
4692.98
4644.86
3862.38
924.658
642.89
3085.77
200.517
370.121
178.173
102.99
6051.97
3267.87
1878.39
1014.46
2644.09
1455.75
449.867
668.795
-45.6271
47.111
971.919
884.422
8519.73
3573.26
4202.5
2141.38
2402.73
3245.95
549.876
52.0868
774.555
1482.96
1135.31
847.501
649.269
394.046
1154.22
831.354
594.255
387.062
137.67
158.061
124.351
88.6269
53.1556
17.732
-80.885
-64.3573
-45.9235
-27.3239
-9.04193
-78.2976
-63.748
-46.2524
-27.7254
-9.20865
-134.688
-108.909
-78.7077
-47.1593
-15.668
75.9521
61.1497
44.5853
27.1891
9.11735
8400.04
6567.78
4699.93
3420.65
2303.65
3622.14
2520.52
1834.44
1223.68
460.536
3502.02
2506.43
1774.7
1148.36
431.318
2791.1
1936.54
1353.93
853.21
296.142
684.889
462.531
329.482
205.471
77.7134
552.049
440.16
317.818
193.254
65.0093
2409.65
1765.7
1222.76
746.651
258.438
225.224
208.713
160.722
101.345
34.4242
312.946
247.532
178.695
109.112
37.0027
178.515
160.163
124.334
78.664
26.8713
78.6161
56.3464
38.2535
22.9412
7.84705
3754.74
3126.74
2286.88
1756.39
1286.53
2496.04
1787.71
1275.68
820.031
283.814
1563
1210.85
860.147
521.014
175.525
839.152
646.447
457.089
275.641
92.4889
2112.1
1575.96
1096.79
662.236
224.276
1225.52
951.383
674.623
404.187
131.447
373.647
289.344
205.718
124.305
41.4566
567.234
446.8
318.761
191.202
63.5151
-36.5195
-26.4575
-16.5115
-8.36605
-2.47329
38.9348
30.2102
22.0353
13.9089
4.80085
813.209
632.795
447.547
267.868
89.5149
742.495
579.418
410.505
245.659
81.916
5194.93
3706.47
2771.76
2125.57
1328.26
2591.18
1860.89
1319.79
852.49
311.171
3038.2
2241.76
1612.63
1101.74
399.245
1597.4
1198.33
855.224
544.416
208.826
1948.65
1475.31
1036.65
626.77
210.213
2538.27
1720.96
1211.4
764.588
191.524
463.41
363.069
259.053
155.977
51.8283
41.857
31.3276
22.0314
13.5352
4.59884
651.176
507.34
361.003
217.324
71.808
-42642.8
-64621.5
-32732.8
-54722.9
-33507.4
-73779.4
-43583.7
-89851
-24857.4
-17514.7
-26486.2
-15131.2
-22606.6
-15425.7
-26106.7
-13292.8
-36642.4
-26794.5
-49031.4
-36522.5
-29249.9
-22311.6
-41996.9
-32434
-21779
-23248.3
-15841
-16517.2
-19983.7
-19888.1
-59552.3
-18310.1
-20005.6
-9670.34
-68160.1
-21856.4
-17951.9
-9003.45
-42977.5
-14148
-22186.2
-10475.3
-37092.2
-11190.5
-18532.5
-8018.33
-24529.8
-9362.61
-16335.1
-7461.19
-22590.9
-8237.24
-17096
-8582.93
-14028
-5544.98
-19007.8
-6918.05
-7403.66
-2803.72
-16348.6
-12700
-13218.6
-10431.2
-13671.7
-12000.9
-11419.5
-10058.9
-13581.8
-10699.1
-16234.8
-13615.7
-9816.02
-7630.05
-5833.69
-4490.72
-8711.74
-7403.76
-5167.95
-4341.47
-10050.1
-7507.11
-5937.91
-4061
-12355.6
-6681.68
-11274.9
-11813.5
-16487.5
-11784.5
-16181.9
-20344.1
-8588.04
-3713.69
-7228.33
-7003.81
-4891.19
-1804.75
-3466.44
-2753.73
-16933.7
-22033
-9991.52
-25886.4
-16908.6
-21461.8
-11050.9
-26807.3
-18773.1
-20630
-13869.6
-26202.3
-10601.4
-6856.44
-13844.6
-16309.8
-16887.3
-8878.84
-12933.6
-19540.2
-23390.3
-33870.1
-8632.32
-10394.7
-12802
-17221.8
-26617.7
-23424.5
-19051.7
-30164.4
-24948.5
-22593.5
-19321.2
-30148.8
-25090.8
-20592.8
-18209.2
-28424.1
-24801.8
-11820.4
-10725.8
-13260.1
-11878.3
-15560.4
-14157.9
-18693.2
-16813
-26951.9
-24659.9
-9280.43
-9904.61
-11478.1
-11815.5
-14075.1
-14486.2
-17846.2
-18327.7
-26027
-25938.7
-11259.9
-7546.89
-9486.55
-8735.12
-10721.9
-11681.5
-9229.94
-11179.2
-9954.32
-9174.23
-12395.9
-8641.85
-4582.05
-6348.84
-1805.17
-2257.05
-5917.37
-8289.32
-2158.16
-2886.26
-4535.49
-6291.03
-1737.42
-2256
-10387.3
-8244.33
-11389
-6967.4
-14541
-10028.3
-17774.5
-11484.9
-5358.09
-5288.63
-6545.45
-3718.77
-3754.89
-3625.3
-4034.47
-2913.21
-13801.5
-5292.09
-15562.2
-5419.04
-14063.2
-5331.6
-16255.1
-5988.29
-13659.3
-5053.96
-17247.5
-6756.01
-6480.1
-1869.05
-8383.24
-3047.03
-10342.9
-3999.56
-12768.4
-4774.25
-17126.5
-6626.7
-7002.51
-1743.6
-7844.98
-2865.94
-9629.62
-3627.57
-12379.5
-4586.09
-15893.8
-5395.75
-9103.49
-8554.87
-6810.85
-6120.75
-14708.1
-11727.1
-11894.7
-9308.05
-6801.14
-5396.5
-2736.54
-1991.87
-6480.18
-5455.86
-2603.32
-2198.29
-4314.58
-7212.71
-5343.32
-8426.06
-5588.15
-3520.72
-5312.66
-2386.02
-9918.98
-4349.51
2577.69
-396.515
-1732.07
-1489.94
-460.738
-365.944
-2737.95
-1134.77
-1166.1
-397.522
-2867.25
-1286.37
-1433.26
-499.03
-3306.42
-1540.99
-2186.24
-708.956
-2189.97
-511.598
-1086.77
-143.085
-7013.68
-6655.66
-5508.02
-5718.14
-10567.9
-10036
-8752.25
-8440.88
-3602.07
-3880.76
-5015.94
-4528.1
-4081.45
-4148.91
-2453.96
-2366.52
-6453.31
-6055.23
-3908.39
-3519.9
-2382.36
-2775.18
-1316.63
-1566.62
-2216.2
-1012.27
-2583.53
-1122.18
-3004.5
-1456.14
-2973.48
-1415.62
-1450.82
-633.07
-1877.35
-688.821
-657.399
-177.633
-1035.3
-244.263
-2776.74
-2334.59
-1587.81
-1934.56
-2926.29
-2549.51
-1653.28
-1978.19
-3500.43
-2739.34
-1855.37
-1958.25
-3867.36
-4894.55
-3676.6
-2816.82
-1526.97
-6601.99
-5037.14
-3973.64
-3454.51
-2155.4
-6894.52
-4849.72
-3467.2
-2459.5
-1152.44
-2564.12
-2790.42
-2742.32
-4175.54
-2627.23
-2613.6
-2569.82
-3866.86
-2791.8
-2974.92
-2382.14
-3451.94
-9649.59
-8165.85
-6943.01
-5792.04
-4152.44
-4120.79
-3146.79
-3314.25
-2078.39
-3108.83
-6480.79
-7061.02
-4344.15
-5008.55
-2931.54
-3530.25
-2186.37
-2724.47
-1126.9
-2386.66
-3205.84
-2951.28
-2335.44
-1403.54
-6212.22
-4958.18
-5446.38
-3443
-1229.91
-765.646
-1865.55
-1983.52
-3244.64
-1414.54
-1212.77
-559.039
-5134.71
-2837.79
-1849.4
-1101.21
-2073.55
-816.836
-773.541
-293.097
-596.583
-895.213
-616.35
-1310.24
-1093.28
-1613.2
-729.424
-1785.81
-1064.13
-659.05
-389.5
-914.098
-175.197
63.9456
371.868
39.6597
-2279.25
-826.081
-2897.85
-392.932
-2179.64
-952.254
-2733.5
-397.727
-2136.44
-747.933
-2208.36
-172.077
-4739.55
-1313.62
-3516.14
-1039.84
-2996.89
-989.249
-2084.41
-524.745
-2028.26
-181.393
-5006.11
-1094.65
-3718.01
-833.347
-2850.62
-685.362
-2098.15
-351.385
-2113.9
-262.723
-437.217
-143.079
-70.2086
-20.9588
-162.418
-53.377
-28.9827
-9.72664
-450.499
-143.672
-77.8665
-24.7907
-151.292
-47.4698
-36.753
-14.1358
-521.977
-162.304
-93.1818
-28.6573
-192.507
-51.9818
-7.88096
6.31862
2.70472
19.5201
51.305
29.1911
80.6684
57.4806
52.9315
25.1167
-384.929
-113.935
-36.6901
0.66385
-338.451
-91.7848
-53.8684
-2.57104
-571.202
-174.798
-97.6118
-20.3352
-457.448
-130.313
-92.6897
-5.59839
-193.947
-46.0557
0.411639
8.02694
-190.491
-42.4226
-20.4092
3.35429
-11.6111
18.9968
23.8891
14.3738
-12.8293
15.7397
9.41854
9.18676
-601.906
-192.983
-104.682
-26.7912
-698.942
-204.6
-145.752
-24.9377
-598.796
-188.743
-109.612
-27.3952
-685.594
-198.563
-144.129
-23.2226
-615.479
-188.011
-125.787
-32.5195
-635.369
-181.316
-140.068
-23.0152
-483.382
-138.687
-112.234
-29.3251
-635.201
-175.003
-162.756
-28.1802
-364.092
-100.302
-79.9562
-4.13082
-613.028
-149.568
-116.047
-17.2477
-254.234
-53.3202
-34.7026
-7.38236
-559.384
-137.091
-111.294
-16.1183
-237.814
-50.0857
-34.615
-7.65761
-479.202
-114.315
-105.373
-15.4154
-207.13
-42.4019
-33.4795
-7.68611
-401.725
-93.5871
-96.6185
-15.9889
-183.8
-37.0907
-34.2108
-8.09408
-309.302
-72.7806
-78.2294
-13.5826
-128.481
-25.5288
-29.35
-6.3395
-203.707
-46.9972
-28.362
2.11362
-40.2987
-2.37603
-2.11825
3.38285
-270.911
-67.0192
-55.0403
-5.80668
-71.9947
-12.0719
-15.9266
-1.94765
-108.83
-17.5926
-7.63806
6.15311
-15.3035
8.03024
7.77284
6.49326
6.26433
19.0065
8.54246
8.08032
24.9865
22.4553
11.6649
7.03375
-3.68245
-0.485228
-0.0359567
0.00944814
0.00871691
-1.41122
-0.181343
-0.00894672
0.00610826
0.00461528
-2.82327
-0.216745
0.0477988
0.0379168
0.0209669
-0.458685
0.121622
0.0963964
0.0444236
0.0216347
-1.25557
0.276711
0.225332
0.10415
0.0508975
2.04608
1.202
0.531134
0.213267
0.0988448
3.2033
1.50883
0.631673
0.248189
0.113561
5.59908
2.11496
0.796062
0.295138
0.130254
0.0504493
0.694271
0.367079
0.155447
0.0734576
0.729261
0.619202
0.295557
0.122472
0.0575674
0.0352805
0.650243
0.34058
0.143702
0.0680983
1.32878
0.620011
0.254867
0.100425
0.0464301
1.11483
1.02942
0.493839
0.202751
0.094283
2.37331
1.13443
0.474964
0.187096
0.0857647
4.7598
1.90442
0.727501
0.27115
0.119963
4.55031
1.83349
0.700025
0.261056
0.115614
-4.08209
-0.53066
-0.0477039
0.00512811
0.00672814
-1.81061
-0.22829
-0.0214541
0.00147559
0.0024803
-3.5104
-0.354184
0.00242974
0.020928
0.013268
-1.58983
-0.173568
-0.00771158
0.00543384
0.00404171
-2.31306
-0.107233
0.0669166
0.0413849
0.0219462
-0.827296
0.00236311
0.042365
0.0219583
0.011111
0.141797
0.516366
0.268906
0.113549
0.054138
-0.0611929
0.25002
0.131771
0.0554207
0.0263945
2.37041
0.865034
0.329558
0.126043
0.057686
-4776.78
-7516.57
-4613.6
-7402.93
-4365.91
-6983.29
-4241.67
-6746.21
-4238.86
-7234.14
-2549.01
-3396.59
-3377.71
-4993.26
-1732.8
-2082.78
-685.194
-836.24
-15378
-3873.2
-955.967
-244.792
-82.6824
-4120.8
-1155.05
-329.55
-84.8435
-26.2838
-15038.6
-3744.71
-919.882
-234.62
-79.0843
-4276.52
-1299.94
-341.964
-90.488
-29.9178
-14108.3
-3471.19
-847.902
-215.954
-72.9259
-4143.27
-1248.27
-325.654
-85.3629
-27.9674
-12770.3
-3100.4
-755.827
-193.605
-66.1453
-3912.49
-1151.93
-295.272
-76.3602
-24.724
-10789.5
-2599.24
-638.272
-166.134
-58.0983
-3504.88
-993.959
-250.654
-64.4165
-20.811
-5830.76
-1509.4
-387.746
-104.972
-38.1522
-1755.08
-467.823
-109.245
-25.3551
-7.27799
-8245.44
-2070.16
-520.325
-138.296
-49.4827
-2446.01
-673.026
-166.296
-42.0442
-13.3698
-3628.39
-964.813
-252.132
-69.1829
-25.3993
-1126.47
-305.182
-69.7597
-15.0274
-3.86606
-1329.1
-358.236
-94.6295
-26.2374
-9.71613
-523.127
-132.273
-29.27
-8.19907
-1.49904
-1111.82
-3731.48
-9093.91
-247.738
-9560.83
-4255.19
-9333.85
-4477.92
-16241.5
-8847.25
-18840.6
-10167.8
-12.8765
-40.3267
-65.6674
-80.8891
-64.4297
24.1481
-24.4257
-76.8076
-127.173
-161.324
-144.786
-15.4681
-8.09926
-6.69
-23.8855
-20.7182
-31.4967
-31.4668
-13.6679
-24.9748
10.7448
-18.3127
15.9903
-12.104
301.81
881.251
1874.51
1526.39
1385.74
539.959
321.054
930.381
1699.53
1987.36
1736.77
703.224
-11.4087
-9.43145
-6.97738
-4.2615
-1.43056
-35.7299
-29.5384
-21.8552
-13.3506
-4.4823
-58.1065
-47.9628
-35.4322
-21.6185
-7.25357
-71.4733
-58.8929
-43.4305
-26.4625
-8.87234
-57.0137
-47.0437
-34.7277
-21.1699
-7.09854
19.984
15.2703
10.5048
6.10777
2.00456
-21.5903
-17.7973
-13.1284
-8.00022
-2.6824
-67.8701
-55.9295
-41.2496
-25.1361
-8.42818
-112.146
-92.1966
-67.8424
-41.2713
-13.8264
-141.851
-116.227
-85.2558
-51.7469
-17.316
-126.943
-103.675
-75.824
-45.9287
-15.3538
-14.2237
-12.2047
-9.29696
-5.77376
-1.95065
-7.19249
-5.96231
-4.42343
-2.70778
-0.910128
-5.94879
-4.93934
-3.67069
-2.25006
-0.756852
-21.2091
-17.5797
-13.0417
-7.98345
-2.68342
-18.4125
-15.2779
-11.3463
-6.95154
-2.33767
-27.945
-23.1392
-17.148
-10.4882
-3.52374
-27.9134
-23.1088
-17.1218
-10.4704
-3.51736
-12.2397
-10.2417
-7.66616
-4.72352
-1.59303
-22.1341
-18.3019
-13.5423
-8.2722
-2.77717
9.11749
7.16506
5.04725
2.97411
0.980457
-16.1979
-13.356
-9.8493
-5.99762
-2.00974
13.3555
10.3331
7.21019
4.24311
1.40119
-10.8528
-9.06372
-6.73655
-4.11086
-1.37738
259.114
206.886
148.505
88.9753
29.6165
748.585
591.648
422.108
252.583
84.1187
1560.53
1212.09
858.452
515.128
172.316
1250.81
975.409
695.531
422.554
146.172
1142.56
886.911
628.107
377.87
126.598
460.899
363.676
258.474
154.096
50.9844
275.465
219.775
157.641
94.3962
31.4125
792.41
627.85
448.459
268.305
89.3339
1432.27
1124.45
799.379
478.378
159.62
1660.54
1297.04
920.628
552.231
185.276
1444.56
1123.32
795.592
477.261
159.863
587.447
458.495
325.893
196.021
65.7252
14.8213
42.9941
69.8919
87.8637
76.1588
-3.31552
27.6472
80.9308
132.844
168.641
153.284
24.8817
9.33853
7.58306
25.6359
22.1139
34.1166
33.7646
16.974
27.7314
-3.48937
16.7126
10.8867
22.2379
-268.984
-833.271
-1792.02
-1443.36
-1322.15
-493.296
-310.105
-914.041
-1669.43
-1947.72
-1694.08
-661.138
13.1641
10.9167
8.1038
4.96385
1.66911
38.1351
31.5718
23.396
14.3106
4.80823
61.9118
51.175
37.8626
23.1311
7.76682
77.7422
64.1714
47.414
28.9367
9.71095
67.5193
55.8533
41.3486
25.2689
8.48532
-1.41997
0.200261
1.04859
1.00887
0.396376
24.5013
20.2639
15.002
9.16997
3.07999
71.5966
59.0885
43.6501
26.6353
8.93783
117.275
96.5461
71.1494
43.3377
14.5291
148.468
121.84
89.5241
54.4144
18.2233
134.612
110.164
80.7463
48.9991
16.397
22.6375
19.2448
14.5759
9.03573
3.05293
8.30991
6.90671
5.13884
3.15341
1.06139
6.75382
5.61944
4.18566
2.57074
0.865695
22.7858
18.9106
14.0485
8.6099
2.89596
19.6693
16.3384
12.1483
7.45044
2.5069
30.3001
25.1223
18.6445
11.4176
3.83873
29.9799
24.8495
18.4361
11.287
3.79419
15.1991
12.7204
9.5267
5.87406
1.98206
24.6074
20.3797
15.1069
9.2423
3.1057
-2.64669
-1.76822
-1.01325
-0.487155
-0.140835
14.8758
12.361
9.18944
5.63284
1.89456
10.5322
9.5088
7.56228
4.83714
1.65934
19.9176
16.6549
12.4382
7.64164
2.5725
-230.04
-182.849
-130.7
-78.0786
-25.9522
-706.332
-556.939
-396.572
-237.052
-78.9147
-1487.63
-1151.84
-813.81
-487.834
-163.134
-1173.33
-907.636
-642.386
-388.462
-134.586
-1078.71
-827.523
-578.882
-344.622
-114.682
-410.298
-313.52
-214.712
-123.334
-39.6957
-265.875
-211.949
-151.926
-90.9443
-30.2616
-778.292
-616.512
-440.326
-263.474
-87.7401
-1405.81
-1102.72
-783.399
-468.677
-156.378
-1624.04
-1265.47
-896.144
-536.68
-179.966
-1403.22
-1085.75
-765.088
-457.118
-152.783
-545.076
-418.577
-292.456
-173.407
-57.6589
-2353.69
-1532.68
-81.8317
174.155
187.15
286.145
75.708
-10882.4
-2896.53
-3610.82
-1638.68
-69.3721
-2995.61
150.207
976.516
156.105
-5445.89
-2583.21
-1212.08
-715.625
-2412.69
-1114.06
-323.292
-431.492
422.565
262.87
-647.959
-619.627
-8278.5
-3459.52
-3858.24
-1953.28
-2217.6
-2758.4
-310.386
224.111
-475.867
-1385.44
-1026.77
-743.423
-567.125
-358.334
-1081.02
-755.825
-526.302
-337.572
-118.901
-64.6204
-46.8045
-30.9158
-17.6716
-5.76301
152.015
123.562
90.1164
54.5626
18.2409
165.015
135.595
99.6459
60.5307
20.2714
250.912
204.936
149.879
90.7931
30.3628
69.1554
59.0201
44.7085
27.694
9.4018
-7140.38
-5704.83
-4154.31
-3173.93
-2393.48
-2059.71
-1310.63
-965.171
-676.348
-240.659
-2635.44
-1835.97
-1296.8
-858.256
-331.597
-1122.21
-740.849
-550.701
-374.732
-120.922
-53.5745
-37.7568
-24.5424
-13.973
-4.1719
-2340.21
-1726.31
-1209.31
-748.799
-260.749
134.076
110.583
80.4377
48.0532
15.8515
804.458
617.867
435.19
261.911
88.8423
140.793
117.196
85.7262
51.1884
16.7871
-3235.35
-2701.69
-1977.18
-1582.33
-1278.2
-1888.59
-1286.47
-900.748
-585.026
-202.48
-979.097
-736.716
-512.936
-308.149
-103.033
-577.227
-432.801
-300.446
-180.073
-60.2508
-1920.94
-1429.59
-997.484
-606.87
-207.04
-919.236
-694.819
-481.36
-283.424
-89.9066
-260.582
-194.794
-134.769
-80.3598
-26.5462
-357.192
-273.242
-190.025
-112.092
-36.7784
364.648
292.851
211.356
127.191
42.5202
232.433
191.433
140.708
85.388
28.6124
-533.635
-408.5
-285.772
-170.465
-56.9464
-511.325
-391.504
-273.387
-162.495
-54.025
-4977.55
-3521.99
-2630.95
-2044.71
-1320.28
-2483.43
-1764.86
-1243.22
-802.97
-294.381
-2708.43
-1960.27
-1389.66
-957.052
-343.996
-1424.03
-1048.49
-738.939
-470.564
-184.5
-1784.38
-1339.3
-935.297
-564.226
-188.816
-2107.99
-1357.66
-937.738
-593.476
-129.187
-250.377
-185.914
-126.839
-74.3829
-24.1998
200.429
166.978
123.736
75.3712
25.2856
-385.285
-286.301
-195.861
-115.03
-36.9789
-53.3271
-140.764
-220.058
-319.224
-463.932
-634.335
-31023.7
-25898.2
-23413.8
-27829.2
-22307.9
-17683.4
-19685.3
-15255.7
-28891.3
-23574.5
-24767.2
-21400.6
-21635.7
-17194.1
-20479.8
-26598.1
-23508.5
-20211.3
-22860.9
-20054.9
-15809.1
-17184.1
-13010.1
-26692.2
-22947.4
-24242.5
-21527.1
-21018.5
-17540.6
-20624.3
-21017.4
-19340.4
-16447.4
-17910.4
-16909.3
-14112.2
-14527.6
-12238.1
-21885.5
-20647.7
-20769.1
-20052.1
-18868.6
-16305.6
-19304
-14624.5
-14021.2
-11853.5
-12409.3
-12947
-12047.7
-11101.9
-10604.8
-15983.9
-17718.1
-15524.2
-17251.3
-14861.4
-13628.6
-16669.5
-9389.71
-9207.99
-7668.61
-7867.36
-8963.62
-8968.89
-7409.47
-7365.42
-10938.9
-13461.1
-10778.4
-12848
-10749.5
-10510.3
-12498.1
-3402.79
-3365.66
-2768.18
-2820.97
-3350.05
-3491.6
-2682.06
-2624.67
-4311.03
-5610.39
-4245.49
-5114.22
-4316.58
-4342.49
-4963.75
-10784
-10583.3
-15736.2
-17395.1
-10387.2
-9540.83
-14489.9
-11977.7
-8604.34
-4956.48
-8585.69
-4912.18
-8449.38
-8517.25
-5004.92
-10381.6
-9948.3
-14632.2
-15895.6
-9371.2
-7941.23
-13139.2
-10512.7
-6593.22
-2283.04
-6368.82
-2446.56
-5335.92
-5052.22
-2705.27
-8887.28
-8514.11
-12432.1
-13242.6
-8140.88
-7055.14
-11376.7
-9743.58
-4149.43
-2114.63
-3928.66
-2546.87
-3513.07
-3624.81
-2993.57
-6678.5
-6476.75
-9227.13
-9591.89
-6277.1
-5737.69
-8768.91
-8156.09
-3977.25
-2099.52
-3958.75
-2653.01
-3862.84
-4161.09
-3153.36
-4326.28
-4205.83
-5976.2
-6136.95
-3989.21
-3721.6
-5755.02
-5437.82
-2627.83
-1770.57
-2646.22
-2170.29
-2788.1
-3068.36
-2484.8
-1537.14
-1497.93
-2147.36
-2195.9
-1447.76
-1409.86
-2069.08
-1947.81
-838.878
-806.043
-899.806
-974.64
-1050.52
-1192.7
-1050.47
9736.01
29096.4
7539.98
32231
4062.48
33602.1
6680.01
51772.9
10800.4
64641.9
11263.7
46786.3
12153.5
41993.9
11933.1
35639.2
5512.07
3249.24
16948.1
8376.31
5104.69
2411.55
17750.8
7198.11
7656.66
5994.68
22315.2
17180.1
5174.74
4395.68
22816.5
18190.5
11801.8
4395.99
9360.53
3686.62
4501.58
11476.4
52123.8
15686.1
15855.2
6834.15
61510.6
18889.8
14145.4
6045.02
35792
11810.1
18274.4
8059.96
30221.9
9500.92
9397.48
4999.69
13529.1
5677.23
8891.03
5331.87
14389.1
5688.92
11329.7
7134.36
9269.95
4137.7
15266.1
5719.67
5879.25
2245.11
19064.7
14910.6
10943.8
10118.5
18706.5
16426.4
9812.27
10356.5
11107.9
10083.4
16009.8
14123.5
7662.24
6716.85
3955.14
3373.85
6865.71
6755.75
3388.7
3360.13
7935.16
6574.39
4212.24
3020.97
10127
5893.6
10690.4
11587.1
14623.6
11134.3
16072.9
20451.1
6879.19
3109.91
6510.09
6703.37
3582.43
1332.74
2704.06
2452.2
12253.1
23323.9
8448.03
26178.7
13263.3
23158
10010.9
27372.2
16488.4
22211.7
13442.8
27141.2
14897
14787.5
14009.5
14642
16576.9
9655.85
13073.8
19608.9
24206.5
34931.4
13317
12982.8
13890.8
17817.8
27203.7
28805.1
27556.3
33656.9
33682.3
27521.6
27131.8
33247.8
32929.9
24543
25084.2
31199
31286.8
11831.5
12321.2
14088.5
14746.3
17965.4
18491.5
22333
22144
29431.3
29847.7
10481.3
11628.1
13499.3
15365.9
16586.2
19047.5
20447.4
23385
27900.3
31138.6
12722.8
8498.73
9953.05
9181.92
12727.7
12914.7
10096.3
11954.6
10118.9
9441.1
13327.2
9466.63
4454.04
6404.64
1402.97
2098.1
6038.54
8559.28
1911.01
2879.34
4296.31
6235.87
1294.32
2034.47
10406.1
8423.33
11394.9
7134.35
15141.6
10794.8
18169.3
12279.4
5128.3
5196.6
6381.24
3650.01
3385.4
3402.33
3793.55
2746.67
23970.8
15753.1
5270.83
26022.1
16367
5649.63
23193.7
15206
5293.99
25547.2
16161.6
5509.69
21493.9
13882.3
4641.27
24480.1
15607.6
5343.84
9177.59
5561.16
1673.49
12751.8
8588.55
2801.89
16138.7
10998.2
3691.93
18990.8
12379
4092.93
23057.5
14619.8
5086.57
9463.96
5428.59
1878.52
11906.9
7846.22
2830.78
14706.1
9738.77
3444.42
17941.9
11465
3979.91
21884
12972.7
4534.72
-612.449
849.773
125.838
2426.91
2147.23
2002.37
5430.21
4562.02
572.693
803.471
603.997
837.51
267.518
739.522
512.163
1096.85
1264.48
901.505
3256
2439.21
1353.78
1970.37
2749.33
-144.321
6811.68
1451.51
-5393.56
-2117.91
-86.981
-440.21
-1120.82
-1321.83
8505.9
3108.75
2191.1
1086.51
8355.71
3073.51
2310.73
1206.34
7916.31
3179.8
2742.34
1486.75
1870.72
834.641
311.751
285.571
13354.8
11340.6
5498.69
6991.6
17008.1
15561.1
8029.69
9416.23
4259.85
5148.51
9955.53
7826.49
3131.43
4253.45
1269.39
2009.25
5043.07
5815.06
2359.32
2829.51
1985.98
3119
597.409
1512.87
3261.22
1753.9
3634.74
1785.39
6193.77
2747.3
5096.92
2450.87
1534.25
980.438
2310.19
1076.63
385.626
345.735
1179.84
492.747
9462.88
5165.99
3800.25
3250.83
9412.7
5245.57
3659.18
3148.44
9568.57
5250.51
3601.06
2922.69
13323.3
14757.2
10850.8
7210.3
3093.16
8768.44
9030.18
8223.84
6565.01
3353.37
12664.7
9791.44
6972.04
4718.66
2226.76
3376.11
2549.61
2800.65
2576.74
3544.63
2688.3
2781.68
2606.09
3717.32
2927.17
2726
2618.69
9643.54
8949.8
7585.72
6224.18
4773.21
4336.78
3697.31
3323.78
2439.86
2599.52
7308.23
8004.56
5327.58
5702.82
3911.73
4101.45
2964.71
3108.56
1803.41
2449.61
4931.64
3812.86
3303.36
2053.27
8281.55
5954.7
6493.24
4160.65
2040.28
1316.59
3134.3
2666.17
3653.88
1735.63
1287.77
682.737
5472.29
3160.74
1784.57
1187.35
2485.08
1104.31
940.509
432.665
1186.43
1285.07
994.481
1514.03
1948.2
2068.9
1203.55
1950.23
1415.13
886.174
673.214
1075.43
386.735
77.8176
-166.226
82.6569
1777.37
819.889
235.075
1600.6
457.052
124.593
1932.73
957.122
295.469
1665.86
503.656
143.922
2107.99
1086.93
307.731
1701.67
533.207
143.004
6130.02
3522.16
1036.66
4157.05
2375.81
718.042
3156.88
1726.45
531.226
2342.3
1209.59
341.312
1743.26
544.503
139.926
6471.08
3502.56
1160.65
4616.37
2502.58
832.083
3343.56
1779.59
581.46
2446.91
1157.34
355.45
1945.5
594.445
193.145
944.535
279.836
109.144
33.3234
373.468
113.9
46.6384
14.8626
940.076
285.399
121.112
39.7993
406.153
131.879
65.3911
24.1938
1019.08
319.472
146.455
51.3085
571.862
205.552
76.6914
27.0119
270.399
119.775
17.8368
3.10133
176.246
94.1954
23.0762
7.40249
715.91
246.767
94.7085
26.5144
644.195
216.9
104.595
26.4355
1002.22
322.785
152.514
48.4145
841.099
268.129
140.047
29.9485
432.647
163.335
55.7421
17.9471
419.31
151.199
70.4576
20.8046
204.806
91.5125
33.5748
13.0377
198.633
83.155
39.6005
15.3061
1172.29
347.472
143.733
40.9555
1122.77
333.65
165.974
37.6785
1138.94
341.64
148.937
42.4243
1068.08
317.761
162.451
35.4816
1109.74
337.277
164.094
48.1128
953.84
283.417
155.818
34.8943
975.357
299.378
160.513
54.5182
1024.14
302.768
187.735
45.2177
720.304
221.243
121.338
32.4547
835.94
236.294
125.502
26.3663
308.579
82.2732
39.3789
10.4135
824.293
233.75
123.606
25.6785
315.098
84.5483
40.8473
11.2464
782.613
221.423
121.073
24.8328
309.35
83.2418
41.9548
12.1558
666.826
185.982
112.143
25.017
278.204
72.9931
42.7663
13.2092
580.924
165.046
100.78
25.8953
256.136
69.605
42.4716
13.6648
390.914
125.085
59.4827
15.1713
197.005
67.8638
27.4165
9.62117
460.305