/*--------------------------------*- C++ -*----------------------------------*\
| =========                 |                                                 |
| \\      /  F ield         | OpenFOAM: The Open Source CFD Toolbox           |
|  \\    /   O peration     | Version:  2412                                  |
|   \\  /    A nd           | Website:  www.openfoam.com                      |
|    \\/     M anipulation  |                                                 |
\*---------------------------------------------------------------------------*/
FoamFile
{
    version     2.0;
    format      ascii;
    arch        "LSB;label=32;scalar=64";
    class       volScalarField;
    location    "0.6";
    object      gradTx;
}
// * * * * * * * * * * * * * * * * * * * * * * * * * * * * * * * * * * * * * //

dimensions      [0 -1 0 1 0 0 0];

internalField   nonuniform List<scalar> 
5712
(
-10269.1
-12665
-23107.8
-36683.2
-35491.5
-69227.6
-24119.8
-72349.9
-24583.3
-57665.1
-30269.5
-50273.2
-22957
-30934.4
-12406.2
-12791
-18286.5
-21476.3
-24110.8
-22396.7
-16321
-24413.1
-23936.8
-24017.2
-7122.73
-5512.73
-9618.97
-7199.59
-16455.2
-11549.7
-29858.8
-21714.6
-24834.5
-25691.3
-26537.8
-28254.1
-7070.91
-5774.44
-55839.5
-69022.1
-30516.6
-40301.6
-69750.4
-86079.5
-32773
-40313.5
-43037.2
-56226.3
-35226.9
-48154.4
-20638.6
-25780.4
-4542.07
-1487.47
-5778.2
-2060.76
-10280.4
-4306.25
-17112.2
-6436.8
-12091.2
-4044.5
-11445.6
-3331.38
-21853.5
-6529.24
-28468.4
-9158.93
-33656.1
-19770.5
-28327.5
-19598.5
-32622.2
-21033.5
-25951.1
-20284.8
-23425.4
-17148.9
-26075
-16957.8
-27543.3
-19939.1
-28567.1
-20361.1
-25525.9
-20374.4
-26629.4
-20691
-23921.2
-17802.5
-25692.2
-18363.2
-26228.9
-11370.4
-16009.7
-19018.1
-28433.2
-13366.7
-16217.8
-20330.3
-26151.2
-10449.7
-16499.8
-18507.2
-27060.2
-10474.2
-17201.2
-18592.6
-4405.39
-5045.68
-1594.8
-3445.82
-12592.8
-14918.3
-5517.82
-11153.6
-20483.7
-24252.9
-10300
-18948.8
-19388.6
-9545.41
-22648.9
-30152.1
-16654.6
-6148.72
-10177.9
-15399.1
-30396.1
-22826.7
-12799.2
-17967.4
-21526.5
-22701.8
-29759.1
-4616.3
-4511.42
-3036.82
-3116.8
-13581.5
-11947.6
-9612.98
-9298.3
-20144
-16808.6
-14442.6
-13727.1
-9689.2
-10319.7
-15465.3
-16119.7
-20745.1
-18854.7
-26806.6
-23279.2
-21470.4
-20639.2
-14098.9
-13374.5
-18883.5
-14771.1
-19373.4
-13876.4
-19057.1
-13105.3
-23663.2
-17184.5
-15329.2
-5892.27
-12668.2
-10440
-16126.8
-16361.1
-16641.5
-19416.4
-11589.3
-9537.82
-14874.6
-4148.66
-12690.4
-17285.4
-13411.1
-18901.6
-17160.7
-24320.2
-18010.6
-25466.6
-11802.7
-16423.6
-12530.2
-18228.4
-15225.7
-9552.19
-21008.3
-8185.73
-15597.4
-3160.3
-19580.3
-2240.55
-16162.7
-14439.1
-22208.2
-10455.8
-15003.2
-16968.7
-20741.3
-13386.1
-3848.88
-3219.9
-2303.42
-2554.17
-2272.57
-1737.7
-9875.81
-7219.6
-5207.47
-7052.35
-5001.05
-3517.54
-12211.5
-8458.98
-6523.21
-10283.7
-6768.52
-5089.39
-8093.01
-4835.31
-3651.48
-13793.9
-7675.11
-4804.74
-14310.3
-8057.11
-4736.56
-17137.7
-10647.1
-7136.63
-16080.5
-8985.39
-5256.4
-14967.5
-9419.52
-6525.42
-12471.4
-7638.23
-4711.25
-12610.9
-7349.09
-4235.37
-12830.7
-7533.78
-4397.66
-16229.1
-8076.17
-3729.2
-13036
-20490.5
-11530.8
-15785.6
-11685.4
-22917.5
-10228.8
-19204.1
-35.0446
-1539.48
342.637
-991.435
-3462.14
-6287.56
-2359.03
-4123.2
-2503.52
-4363.89
-11781.1
-16801.9
-8318.29
-6818.5
-13497.5
-12010.8
-19334
-20910.6
142.87
5588.51
-9241.72
-6497.94
-6768.94
-3801.19
-1472.89
-925.857
-1314.47
-857.024
-3787.39
-1176.87
-2243.42
-595.007
-9692.12
-2625.31
-7796.97
-2437.3
-8635.69
-2521.97
-9542.98
-2883.25
-14102.5
-12691.2
-10913.2
-12309.4
-22490.7
-19037.9
-18282
-17793.4
-7448.3
-8458.95
-8715
-7978.59
-10150.4
-12032.1
-10560.5
-12029.4
-17449.7
-17235.6
-18076
-17273.9
-6552.32
-8416.77
-6249.49
-8395.8
-705.115
-819.218
-5804.74
-2336.17
-841.324
-645.887
-5161.11
-1974.53
-636.212
-698.964
-6013.82
-2533.78
-794.339
-716.11
-5968.74
-2622.4
113.44
256.354
-399.596
-189.673
610.827
1040.3
-609.129
-238.747
-1039.69
-133.423
-1749.69
-1254.87
5916.12
2995.93
3246.8
2132.39
160.623
6371.3
8688.71
3639.16
3556.27
270.8
-10511.9
-7212.24
-5133.05
-4372.65
-1800.22
342.661
258.221
-69.7003
-52.6089
979.263
902.196
-159.267
-108.652
839.416
1005.76
-601.622
-458.4
1894.95
97.6281
5861.66
3172.53
2695.55
1387.33
2470.65
1661.42
182.992
-14.6307
-5841.45
-4072.03
-672.418
544.902
5.74266
718.856
-246.46
405.729
-1.50901
-1.92421
-4342.17
-4049.28
-8870.63
-5296.77
-9014.94
-7547.78
-12854.4
-9088.24
-5917.64
-3342.12
-2310.48
-2464.95
-10304.3
-4436.7
-11010.4
-4262.5
-14664.5
-9002.26
-15697.6
-8941.18
-7004.97
-2554.98
-7519.78
-2300.86
-3510.22
-2292.83
-1572.59
-2565.21
-1651.27
-1829.26
-839.993
-2051.4
-3817.36
-2027.62
-1969.78
-2940.5
-4626.14
-1827.55
-2501.09
-2744.54
202.426
164.162
160.231
-38.6005
27.7128
32.6648
700.772
572.624
514.599
-46.1739
124.824
130.512
877.405
860.096
793.39
-244.252
223.81
266.004
-559.002
122.627
136.727
1383.27
1397.26
1169.21
953.275
992.613
886.684
1150.3
1088.49
976.254
-127.884
305.745
254.548
-4345.59
-2117.45
-1117.73
-597.191
173.336
449.593
-135.465
408.987
549.655
-67.1405
395.106
479.886
-595.978
136.014
186.332
-81.8649
-18.5687
-3.47364
-0.11707
-16.0442
6.7755
16.6641
8.77357
-206.494
-49.1177
-4.8761
1.27441
-38.69
14.4672
32.1955
16.54
-327.145
-87.626
-17.5456
4.31381
-189.697
-29.5178
0.268495
8.62594
-108.619
-18.6214
-13.7782
-3.5618
-148.307
-40.073
-9.13708
0.669649
-606.328
-180.177
-87.0834
-19.4015
-730.033
-215.734
-133.755
-25.9438
-504.677
-148.642
-67.1602
-0.92565
-601.236
-177.762
-118.706
-22.9107
-546.174
-165.085
-75.2222
-18.2195
-790.423
-233.526
-141.567
-27.0653
-539.939
-167.913
-66.4232
-13.3279
-817.476
-242.009
-145.227
-28.6196
-61.8323
-16.0778
-7.62591
-2.30537
-41.1762
-10.5208
-10.006
-1.17637
-158.23
-42.4541
-17.4706
-3.62147
-79.8937
-18.8736
-21.7316
-2.25578
-417.298
-122.364
-57.821
-11.837
-303.859
-85.3934
-54.0368
-2.40963
-213.646
-62.5841
-34.6151
8.59166
-133.38
-34.6165
-34.9579
2.54711
-510.285
-149.578
-103.834
-8.30295
5.52244
4.03142
-0.806466
1.87275
44.6258
15.4781
4.77728
2.55063
-13.8806
2.69579
-8.09093
3.34161
111.467
39.6674
10.1462
6.0859
-60.5772
-9.43781
-17.0997
5.07844
165.845
58.1153
14.8001
8.65154
-55.0549
-7.33092
-21.2075
6.15055
201.672
69.6456
14.1752
8.19668
-128.057
-22.8058
-46.3946
-2.70329
143.331
59.5957
2.02226
4.36922
-470.284
-98.3921
-95.3428
-15.7872
-132.069
-7.103
-22.0561
-4.2599
-288.793
-53.0805
-76.7741
-11.1458
-10.7903
26.856
-12.0138
-0.457539
-606.476
-141.926
-109.87
-19.6343
-201.03
-33.3679
-28.7015
-6.75116
-679.893
-173.67
-119.529
-22.9215
-242.095
-54.2748
-33.3413
-8.34473
0.0187859
0.205983
0.112134
0.0458616
0.0205268
1.2066
0.527315
0.209366
0.0772396
0.0331469
-0.462705
0.402267
0.234665
0.0962385
0.0428969
3.05989
1.49144
0.583942
0.212093
0.0901407
0.304044
0.827263
0.385245
0.146988
0.0634649
5.08023
2.27836
0.857096
0.304849
0.1281
1.21283
0.654119
0.260698
0.0949715
0.0404272
-0.377367
0.159702
0.104653
0.0439394
0.0198328
0.581082
0.724131
0.325547
0.122648
0.0526592
-1.17618
-0.0758299
0.0173262
0.0119908
0.00604387
4.13575
1.75082
0.634495
0.221244
0.0919056
-0.0309872
0.246648
0.117135
0.0444383
0.0190988
-2.29501
-0.230466
0.00273159
0.0129136
0.00750452
-1.32675
-0.0867328
0.0186985
0.013151
0.00663749
-3.05936
-0.381015
-0.0271418
0.00616037
0.00540253
-2.02879
-0.271193
-0.0338173
-0.00321118
0.000165769
-0.216247
0.131926
0.0806699
0.0337604
0.015259
0.470676
0.23567
0.0940717
0.034844
0.0150243
-0.139664
0.385294
0.199585
0.0793153
0.0350015
1.28472
0.581316
0.223326
0.0809547
0.0344681
-0.288997
0.503993
0.253586
0.0986451
0.0429677
2.36583
0.877303
0.308529
0.107063
0.0445635
3.98848
1.41926
0.479853
0.16233
0.0664315
2.62267
0.796693
0.254569
0.0843149
0.0342619
2.65062
0.893842
0.295143
0.0986741
0.0401406
-508.68
-706.396
-1442.62
-2072.72
-2274.52
-3426.54
-2729.01
-4590.5
-2493.69
-4255.96
-2504.29
-3746.95
-1843.51
-2485.48
-3368.26
-4846.3
-3717.91
-5210.22
-943.458
-220.173
-52.3464
-13.1205
-4.4162
-295.805
-130.701
-13.4846
-4.9474
-2.26658
-3057.14
-718.027
-171.771
-43.4131
-14.7426
-751.962
-173.412
-40.0682
-9.98289
-3.21508
-5334.56
-1262.52
-304.793
-78.109
-26.9574
-1401.7
-372.46
-94.8149
-26.1836
-9.47781
-7508.87
-1794.43
-440.101
-115.127
-40.712
-2046.48
-602.968
-164.679
-47.5617
-17.9254
-10253.6
-2534.78
-639.781
-172.36
-62.8732
-2867.35
-956.536
-274.791
-81.1324
-31.0863
-13393.2
-3654.17
-987.395
-282.359
-108.536
-3537.35
-1220.06
-359.489
-108.124
-42.3057
-12369.1
-3254.24
-852.155
-236.646
-88.6436
-3322.67
-1175.51
-346.588
-103.667
-40.0447
-13864.8
-3844.8
-1056.54
-307.424
-119.975
-3690.3
-1223.53
-353.65
-105.197
-41.093
-14256.2
-3946.8
-1091.47
-320.439
-126.09
-3745.47
-1236.27
-355.125
-99.5801
-40.4878
-658.05
-8587.92
-8297.82
-4491.17
4099.16
5666.99
11176.3
14934.3
5994.43
12783.6
1374.47
6870.62
5860.05
10367.7
11876.4
16783.4
14243.9
16476.7
8100.04
9285.46
-17253.4
-11981.3
-1584.65
-880.367
-615.664
-917.279
-821.216
-10288.5
-8184.71
-7240.3
-6348.7
-4212.33
-2843.48
-4703.03
-2130.88
-1592.42
-1770.96
-1106.4
-17271.1
-6983.88
-1317.32
-2505.5
-4749.54
-2786.63
-2755.54
-1848.63
-680.066
-1118.88
-1270.73
-1549.7
-16930.6
-9498.06
-9282.89
-5242.67
-4870.55
-5555.24
-1728.69
-1814.1
-2595.68
-10473.2
-8800.75
-6354.27
-4952.79
-3413.2
-7947.37
-5377.28
-3848.93
-2648.83
-999.049
-1341.92
-1054.85
-748.362
-445.731
-147.818
-758.94
-608.086
-437.352
-262.059
-87.1441
-527.337
-419.282
-299.159
-178.119
-59.0554
-793.892
-638.621
-460.445
-276.071
-91.8152
-702.138
-557.37
-397.555
-236.917
-78.6062
-6257.16
-4769.02
-3273.88
-2413.09
-1953.9
-4164.1
-2941.55
-1800.09
-1186.26
-786.916
-4817.59
-3112.91
-2106.55
-1355.33
-520.661
-3310.43
-2232.49
-1376.08
-884.41
-485.086
-2056.84
-1305.51
-778.709
-514.432
-248.358
-2168.19
-1545.46
-1029.8
-601.252
-202.92
-3277.21
-2192.5
-1447.15
-866.09
-311.354
-1438.81
-921.339
-585.252
-339.572
-118.738
-1262.56
-929.711
-628.005
-364.999
-121.025
-1369.57
-983.916
-652.653
-375.32
-124.155
-888.361
-661.308
-448.756
-260.253
-85.8009
-10740.1
-7943.74
-5667.59
-4217.88
-2975.14
-5043.5
-3487.56
-2401.17
-1522.93
-567.205
-1047.42
-774.363
-526.903
-309.167
-103.137
-2020.45
-1515.7
-1045.68
-620.336
-207.773
-3713.95
-2715.27
-1865.82
-1124.6
-383.853
-2262.74
-1706.88
-1184.08
-704.68
-234.842
-2277.36
-1744.29
-1219.27
-724.383
-239.419
-1540.26
-1190.76
-834.113
-493.904
-163.817
-563.03
-431.799
-299.173
-175.128
-57.7385
-945.497
-741.144
-523.06
-309.73
-102.541
-1035.01
-781.972
-537.752
-315.11
-104.361
-1282.21
-984.604
-686.162
-405.305
-134.518
-10280.3
-8121.12
-5902.26
-4525.41
-3025.27
-6538.67
-4470.4
-3169.71
-2122.86
-808.173
-6845.81
-4971.35
-3441.65
-2285.01
-868.717
-4028.43
-2806.84
-1938.74
-1200.45
-374.289
-3878.83
-2851.12
-1970.63
-1185.08
-386.273
-4256.78
-2955
-2034.01
-1256.1
-382.446
-1415.77
-1075.28
-745.904
-441.459
-146.507
-1531.58
-1199.69
-847.457
-502.928
-166.673
-2132.09
-1625.4
-1131.25
-670.829
-222.854
-8683.98
-19326.8
-14892.7
-49882.1
-13561.1
-62860.4
-9380.69
-24960.7
-11949.1
-10563.1
-24174.4
-19121.2
-11536.9
-13776.5
-25496.3
-20832.3
-5624.87
-3931.38
-13191
-9541.25
-9718.65
-5204.41
-36082
-26182.4
-20752.1
-14084.8
-22485.5
-14908.3
2772.35
-2116.65
-58558.7
-70146.2
-29634
-40263.9
-72268.7
-87179.6
-31668.7
-40079.4
-44875.3
-57231.1
-34509.5
-48319
-22668.6
-26641.3
-3208.34
-649.62
-7085.43
-2323.05
-6093.2
-3023.2
-19692.8
-7161.33
-3223.48
-1661.91
-8470.13
-2438.37
-22143.8
-6524.11
-28863.1
-9254.12
-23969.2
-15479.1
-25235.7
-17600
-21822.4
-15952.6
-22400.9
-18004.6
-21323
-15628.5
-19536.7
-13860.9
-26362.3
-19061.9
-28318.1
-20130.4
-24061
-19363.6
-26245.1
-20417.7
-23259.4
-17137
-25590.1
-18186.8
-25300.6
-11188.9
-14944
-18716.2
-24844.9
-12487.3
-13937.2
-19547.9
-26054.7
-10449.2
-16056.2
-18408
-27123.6
-10499.6
-17093.6
-18570.6
-958.907
-826.639
104.787
-1419.93
-3778.06
-5001.59
-2971.25
-8037.75
-6254.33
-8705.15
-6793.29
-14822.7
-20440.5
-18230.1
-18390.5
-22923.9
-15081.4
-11007.7
-9083.74
-10275.4
-22593.2
-21201.8
-16022.7
-16862.8
-17494
-17829.3
-27702.6
-1292
-1581.57
-1042.18
-1371
-5133.91
-4590.56
-6070.39
-5825.11
-5843.43
-3811.11
-10013.6
-9158.67
-11729.8
-11666.7
-11551
-11283.4
-13121.6
-10844.9
-18814.4
-15764.9
-18868.9
-17267.3
-16101
-14509.2
-16448.6
-12641
-14990.3
-10635.3
-14919
-10206.1
-21848.6
-14933.7
-14055.9
-6327.12
-11733.2
-10326.8
-16026.6
-16989.1
-15987.1
-19359.2
-10655.6
-9432.02
-13267.1
-4523.66
-12098.6
-17076
-13194.5
-18809.3
-16629.7
-24167.9
-17794
-25369.7
-11266
-16257.1
-12344
-18156.3
-14631.5
-9573.66
-20931.9
-8353.03
-14393.7
-3785.8
-19368.8
-3207.34
-15856
-14361.2
-22160.6
-10459.9
-14891.1
-16931.4
-20719.4
-13384.8
-1781.98
-1455.91
-1233.92
-1480.43
-3800.74
-2483.06
-4729.91
-4714.38
-2410.68
-2037.82
-7900.47
-7337.49
-11707.7
-9019.11
-10931.2
-7422.18
-8845.71
-5445.17
-12362.2
-8756.03
-14534.7
-9376.49
-16777.8
-12470.2
-10061.3
-6804.38
-9107.34
-5505.04
-9052.31
-5193.55
-11423.4
-4814.11
-5710.79
-11080.6
-5113.72
-11365.7
-8202.77
-13214.9
-10016
-15643.6
-1465.01
-1249.91
-1141.83
-1046.85
-4082.3
-3970.12
-3548.01
-3385.51
-872.165
-1568.98
-8500.93
-9011.59
-4350.22
-4772.01
-11421.9
-11391.7
-17493.8
-20312.1
1001.16
5781.65
-7519.16
-5927.9
-5830.61
-3546.39
-1030.53
-909.67
-1046.5
-848.19
-2336.73
-1286.74
-1601.6
-741.18
-6658.1
-2691.27
-6282.83
-2425.79
-7653.01
-2456.44
-9152.47
-2837.83
-7089.95
-9680.93
-8148.72
-10641.3
-13121
-14416.5
-14874
-15588.2
-5760.45
-7509.24
-4804.44
-6657.25
-8810.76
-11229.4
-10162.3
-11799.3
-15874.6
-16226.9
-17608.3
-16992.4
-5705.19
-7915
-5978.56
-8242.77
-234.167
-779.454
-5408.87
-2277.97
-339.362
-771.68
-4833.3
-1969.98
-334.137
-682.62
-5762.56
-2494.79
-671.805
-708.275
-5884.32
-2611.86
-897.304
-963.889
-875.444
-899.574
-2221.02
-2356.95
-1406.71
-1461.21
-5762.33
-5939.83
-2609.58
-2621.99
-4176.88
-10143.7
-2427.21
160.888
-428.834
-3804.88
-725.084
-1775.02
1607.09
-136.284
-15258.5
-10090.4
-6666.22
-5295.37
-2050.56
-1091.96
-1077.01
-968.651
-998.175
-2663.42
-2613.52
-1604.9
-1716.05
-5810.79
-5794.67
-2415.91
-2580.92
-5672.58
-6434.49
-1591.37
-3308.99
-2763.15
-3583.97
-351.175
-1044.7
-530.805
-859.277
-11105.9
-7791.53
-5492.59
-3490.14
-3368.33
-2212.79
-2464.63
-1488.74
-702.165
-781.782
-6095.2
-5900.27
-9157.04
-5846.89
-10354.8
-9171.62
-12768.8
-9506.97
-6436.15
-3905.14
-3917.31
-4085.48
-10207.5
-4624.69
-10922
-4273.23
-14346
-9101.8
-15533.6
-8918.01
-7086.23
-2778.85
-7498.5
-2334.46
-4051.19
-2774.48
-2024.43
-3041.75
-2903.66
-3081.74
-1567.5
-3016.53
-3994.88
-2244.77
-2176.1
-3161.29
-4651.34
-1875.26
-2550.64
-2791.92
-831.304
-856.678
-661.437
-564.289
-2642.99
-2803.58
-1036.43
-697.136
-5593.67
-4491.93
-1408.86
-291.663
-7471.85
-5782.13
-4666.87
-3469.85
-3615.48
-2697.21
-1318.54
-877.59
-680.959
118.713
-6969.41
-4934.88
-3481.4
-2250.23
-2264.73
-1341.41
-1469.84
-803.055
-1291.59
21.806
-127.997
-38.3802
-10.5857
-2.53618
-100.592
-31.7403
1.66949
3.20317
-325.766
-100.175
-22.4297
-4.02222
-222.048
-71.4532
-3.41716
1.21504
-485.745
-157.611
-45.6485
-5.74391
-384.671
-129.257
-49.4533
-16.4068
-215.025
-76.4873
-41.8038
-14.4049
-187.019
-63.4149
-20.705
-4.03565
-646.418
-211.163
-108.122
-30.8862
-733.261
-222.635
-143.762
-28.8539
-622.282
-202.969
-98.3259
-18.5327
-618.014
-188.88
-132.316
-26.6365
-576.586
-188.405
-88.0193
-22.4415
-794.562
-239.356
-149.295
-30.7025
-552.519
-177.686
-71.809
-15.4107
-820.225
-244.754
-148.029
-29.7622
-127.424
-36.3661
-13.9817
-3.80853
-126.81
-33.1494
-18.4402
-3.12197
-322.834
-94.72
-34.6581
-7.94918
-313.724
-83.8035
-45.0437
-7.40288
-568.798
-175.989
-80.803
-17.507
-542.12
-157.53
-85.2214
-9.56425
-498.014
-162.898
-76.2381
-7.09333
-377.07
-113.299
-64.7111
-3.4618
-604.016
-185.612
-129.559
-15.464
-96.0472
-23.4128
-8.8278
-0.436831
-60.6797
-15.0978
-3.4626
-0.408785
-255.488
-64.3902
-29.642
-3.11085
-156.645
-40.4289
-12.7148
-2.11836
-333.242
-91.1751
-46.2388
-4.44404
-184.278
-54.9594
-18.4288
-3.38066
-347.737
-104.122
-57.0984
-6.23644
-181.286
-62.6747
-24.9255
-5.73378
-385.876
-111.293
-82.8079
-16.497
-220.787
-65.9168
-37.0541
-9.963
-671.797
-178.843
-129.312
-28.5826
-307.888
-76.6512
-46.1889
-13.4155
-560.783
-150.413
-117.416
-26.275
-301.899
-75.508
-45.7707
-13.1496
-712.59
-189.32
-130.573
-27.5378
-285.407
-71.2233
-42.4854
-11.9166
-709.631
-188.227
-126.111
-25.456
-264.262
-65.3201
-37.5399
-9.93936
-1.30559
-0.375
-0.106731
-0.0330791
-0.0133151
-1.2335
-0.438857
-0.14415
-0.0492022
-0.0209747
-3.41867
-0.845447
-0.229064
-0.0700966
-0.0282486
-3.87182
-1.19218
-0.389826
-0.135503
-0.058691
-4.68714
-1.0937
-0.306624
-0.0984434
-0.0411354
-5.3622
-1.61961
-0.539007
-0.191398
-0.0841543
-2.23963
-0.607658
-0.191669
-0.0664499
-0.0288522
-2.07411
-0.474462
-0.126257
-0.0393141
-0.0161324
-4.03553
-0.918901
-0.251941
-0.0807159
-0.0338437
-1.78896
-0.279441
-0.0520896
-0.0119701
-0.00399614
-3.98973
-1.11106
-0.364908
-0.129845
-0.057368
-1.77014
-0.35977
-0.0922044
-0.028493
-0.0117229
-3.22594
-0.501058
-0.0858726
-0.017249
-0.00504244
-2.06052
-0.319127
-0.0601723
-0.0143097
-0.00498245
-3.67006
-0.576639
-0.0941726
-0.0173296
-0.00454665
-2.14093
-0.292096
-0.0386174
-0.00447795
-0.000246512
-1.14837
-0.292563
-0.0802696
-0.0242487
-0.00955273
-0.599844
-0.195894
-0.0632793
-0.0209945
-0.0086889
-2.54021
-0.627484
-0.17407
-0.0539283
-0.02175
-1.33552
-0.434468
-0.141084
-0.0475273
-0.0199699
-3.50176
-0.786136
-0.211398
-0.065598
-0.0267326
-1.33817
-0.473265
-0.16348
-0.0578286
-0.02513
-2.08416
-0.673818
-0.240725
-0.0889071
-0.0399575
-0.447999
-0.264344
-0.108495
-0.0416519
-0.0189016
-1.21298
-0.388215
-0.142097
-0.0534894
-0.0243057
-192.179
-418.117
-690.507
-1355.05
-1412.62
-2542.38
-2051.46
-3802.69
-2150.8
-3878.48
-2552.65
-3847.02
-1883.02
-2722.92
-3366.91
-4857.99
-3708.16
-5204.52
-926.618
-219.939
-52.676
-13.2381
-4.45198
-246.799
-124.438
-12.256
-4.78747
-2.26029
-3022.82
-719.619
-173.204
-43.864
-14.8764
-633.954
-155.176
-37.1457
-9.50299
-3.11966
-5291.68
-1266.12
-307.29
-78.8867
-27.1896
-1267.69
-352.136
-91.6517
-25.6927
-9.38912
-7463.92
-1798.91
-443.15
-116.088
-41.0019
-1951.33
-588.59
-162.456
-47.2296
-17.8711
-10231.8
-2542.9
-643.662
-173.533
-63.2263
-2854.31
-953.451
-274.349
-81.1182
-31.1035
-13449.4
-3669.61
-991.665
-283.474
-108.854
-3565.2
-1224.72
-360.273
-108.275
-42.34
-12400.2
-3267.76
-856.701
-237.926
-89.0213
-3362.21
-1180.01
-347.311
-103.837
-40.0951
-13910.1
-3856.55
-1059.56
-308.181
-120.184
-3698.46
-1225.41
-353.979
-105.258
-41.1037
-14272.7
-3951.05
-1092.55
-320.706
-126.163
-3745.95
-1236.57
-355.184
-99.5819
-40.4879
-300.236
-8282.47
-7309.92
-3034.34
-1599.57
-733.75
-3203.7
-2069.27
-6504.57
-7064.45
-3939.33
-3663.27
-28.2021
-53.5393
-112.41
-217.487
-385.989
-632.005
-22.2723
-58.1633
-142.297
-295.591
-542.257
-900.259
-19.547
-7.94137
-41.9887
-23.3163
-96.5863
-64.2575
-197.408
-155.657
-349.474
-317.986
-572.931
-560.408
-989.916
-1507.29
-2317.1
-4162.05
-5293.48
-7079.56
-1364.85
-1873.7
-2305.1
-2644.4
-2604.55
-2692.72
-25.0282
-20.7329
-15.3717
-9.4054
-3.16062
-47.4014
-39.1531
-28.9434
-17.6684
-5.92983
-99.2444
-81.6996
-60.1929
-36.6496
-12.2833
-191.335
-156.852
-115.095
-69.8665
-23.3796
-337.984
-275.577
-201.198
-121.702
-40.6536
-549.753
-444.946
-322.762
-194.418
-64.8188
-19.7384
-16.3224
-12.0804
-7.38135
-2.47863
-51.4037
-42.3676
-31.2529
-19.0472
-6.38709
-125.398
-103.005
-75.7319
-46.0408
-15.419
-259.526
-212.27
-155.437
-94.2218
-31.5083
-473.805
-385.424
-280.841
-169.667
-56.6465
-781.713
-631.554
-457.5
-275.391
-91.799
-17.3682
-14.4094
-10.6999
-6.55495
-2.20419
-7.06171
-5.86399
-4.35845
-2.67205
-0.898895
-37.2359
-30.8178
-22.8271
-13.9563
-4.68786
-20.7013
-17.157
-12.7264
-7.78955
-2.61808
-85.4332
-70.4857
-52.0437
-31.7396
-10.6468
-56.9085
-47.021
-34.7693
-21.2286
-7.12523
-173.983
-142.922
-105.076
-63.8731
-21.3887
-137.32
-112.931
-83.113
-50.5598
-16.9368
-306.479
-250.305
-183.011
-110.803
-37.028
-279.104
-228.151
-166.928
-101.102
-33.7908
-498.548
-403.6
-292.779
-176.329
-58.7755
-488.208
-395.644
-287.155
-172.934
-57.635
-852.873
-683.235
-491.578
-294.772
-98.0999
-1279.69
-1009.94
-719.202
-429.575
-142.824
-1922.86
-1484.54
-1044.65
-623.555
-207.611
-3340.33
-2501.27
-1742.81
-1049.93
-351.533
-4002.66
-2890.79
-2013.58
-1254.45
-440.56
-5136.64
-3625.88
-2535.74
-1623.13
-580.023
-1175.66
-941.83
-677.755
-406.537
-135.348
-1597.19
-1266.19
-904.565
-541.055
-180.057
-1936.99
-1514.93
-1073.75
-641.494
-213.731
-2173.44
-1666.66
-1171.06
-701.571
-234.793
-2062.39
-1538.87
-1074.08
-652.399
-222.588
-2056.23
-1495.56
-1040.07
-642.648
-222.798
-28.7094
-55.4347
-116.867
-226.457
-402.126
-657.514
-22.8705
-60.4132
-147.512
-305.621
-558.57
-922.638
-19.9744
-8.19485
-43.7688
-24.5166
-101.499
-68.1932
-209.07
-167.429
-373.517
-353.953
-612.384
-653.726
-1027.73
-1560.02
-2383.95
-4209.4
-5308.67
-7077.18
-1390.81
-1898.83
-2324.97
-2652.58
-2603.01
-2689.95
-25.4868
-21.1217
-15.6672
-9.59001
-3.22339
-49.1145
-40.6055
-30.0473
-18.358
-6.16426
-103.275
-85.1176
-62.7917
-38.2735
-12.8355
-199.451
-163.742
-120.338
-73.1455
-24.4952
-352.609
-288.015
-210.684
-127.644
-42.6778
-572.969
-464.787
-337.968
-203.986
-68.0855
-20.2791
-16.781
-12.4291
-7.59922
-2.55269
-53.4396
-44.0958
-32.5681
-19.8695
-6.66685
-130.123
-107.022
-78.7936
-47.9577
-16.0716
-268.634
-220.033
-161.37
-97.9447
-32.7775
-488.681
-398.164
-290.625
-175.831
-58.7528
-802.271
-649.309
-471.251
-284.114
-94.7912
-17.7544
-14.7363
-10.9479
-6.70962
-2.25674
-7.2903
-6.05717
-4.50478
-2.76318
-0.929816
-38.8418
-32.176
-23.8568
-14.5982
-4.90582
-21.7828
-18.0703
-13.4177
-8.21986
-2.76409
-89.8624
-74.2287
-54.879
-33.506
-11.2464
-60.4512
-50.009
-37.0282
-22.6336
-7.60181
-184.489
-151.793
-111.791
-68.0545
-22.808
-147.904
-121.846
-89.845
-54.7439
-18.3556
-328.121
-268.562
-196.819
-119.397
-39.9445
-311.299
-255.129
-187.197
-113.652
-38.0381
-534.187
-433.778
-315.697
-190.647
-63.6462
-571.423
-465.056
-339.087
-205.001
-68.4749
-887.538
-713.105
-514.663
-309.4
-103.114
-1328.67
-1052.72
-752.711
-451.051
-150.233
-1986.61
-1541.6
-1090.38
-653.448
-218.029
-3391.76
-2552.18
-1787.15
-1080.96
-362.631
-4027.31
-2919.86
-2042.07
-1276.66
-449.431
-5140.51
-3633.57
-2545.08
-1631.59
-583.649
-1199.81
-962.99
-694.372
-417.196
-139.027
-1621.11
-1287.65
-921.792
-552.301
-183.976
-1956.78
-1533.44
-1089.17
-651.85
-217.395
-2183.56
-1677.67
-1181.3
-709.027
-237.531
-2063.74
-1542.26
-1078.39
-656.196
-224.171
-2055.06
-1495.62
-1040.95
-643.762
-223.327
-17204.4
-11966.8
-1675.48
-955.905
-815.271
-1085.28
-966.375
-10821.5
-10476.3
-8321.69
-9275.24
-3696.74
-6877.01
-2438.33
-2656.45
-1698.63
-17615.2
-7521.2
-1679.51
-2819.31
-5036.76
-2947.16
-2943.56
-2061.26
-915.024
-1422.41
-1673.08
-1796.62
-16810.6
-9506.27
-9473.17
-5346.52
-5010.84
-5740.64
-1964.44
-2044.02
-2786.43
-10448
-8790.74
-6360.47
-4974.96
-3438
-7948.55
-5387.11
-3863.7
-2664.85
-1006.61
-1426.13
-1128.2
-805.671
-482.417
-160.471
-827.281
-666.057
-481.47
-289.681
-96.5541
-704.505
-566.354
-408.884
-245.88
-81.9953
-944.037
-764.221
-554.741
-334.495
-111.608
-832.457
-666.954
-480.307
-288.478
-96.1419
-7096.64
-5669.05
-4114.5
-3106.18
-2437.45
-6565.86
-5324.16
-3831.22
-2753.04
-1739.85
-5958.21
-4131.49
-2953.97
-1964.75
-766.2
-6097.52
-4672.98
-3311.9
-2349.57
-1264.76
-2966
-2227.1
-1560.9
-949.87
-329.346
-5223.17
-3742.37
-2623.7
-1651.72
-616.043
-2011.44
-1546.56
-1089.31
-654.797
-221.521
-2182.5
-1671.81
-1175.76
-707.422
-239.905
-1414.33
-1096.5
-774.642
-464.507
-156.262
-11310.8
-8570.71
-6268.68
-4718.51
-3300
-5597.15
-3997.54
-2826.45
-1820.98
-682.005
-1378.55
-1055.58
-742.935
-447.594
-151.698
-2314.38
-1772.76
-1248.18
-752.133
-254.173
-4004.46
-2985.18
-2090.96
-1279.19
-440.616
-2418.21
-1847.31
-1297.97
-780.426
-261.752
-2453.71
-1899.33
-1341.59
-803.473
-266.844
-1736.91
-1361.33
-966.997
-579.025
-193.296
-774.678
-610.087
-434.452
-260.208
-86.9605
-1216.67
-967.918
-693.683
-415.986
-138.726
-1397.36
-1086.63
-768.983
-461.08
-154.779
-1508.98
-1179.64
-837.098
-501.693
-167.913
-10247.7
-8140.6
-5961.27
-4613.28
-3119.25
-6580.85
-4526.73
-3229.39
-2174.54
-831.475
-7111.19
-5248.75
-3702.53
-2489.7
-956.969
-4147.43
-2925.81
-2043.42
-1275.37
-399.355
-4025.94
-2990.89
-2089.47
-1267.34
-415.644
-4458.6
-3145.82
-2197.62
-1371.22
-422.873
-1633.36
-1263.47
-892.152
-535.011
-178.881
-1740.67
-1378.01
-984.095
-589.158
-196.233
-2312.54
-1785.25
-1258.48
-753.992
-252.046
-179.602
-517.403
-849.723
-1213.85
-1621.27
-2026.67
-3119.13
-7861.22
-7025.88
-2981.36
-9056.6
-9053.88
-8974.28
-12427.4
-1839.66
-120.266
-3503.65
2202.49
-13076.7
-12227.2
3189.71
-2195.28
-5985.92
-5425.57
-2190.28
-6640.96
-4252.34
-6799.8
-6948.61
-791.991
1568.96
-1465.35
5492.72
-8463.09
-6629.63
6011.9
-1216.53
-3656.39
-3530.02
-1340.64
-3598.66
-356.802
-4418.23
-4056.3
-104.991
1694.75
434.809
5345.14
-4241.25
-341.449
6482.54
-672.752
-2224.01
-2380.56
-853.266
-1342.78
1599.98
-3091.6
-3031.35
184.902
1064.91
930.427
3997.99
-2490.37
2343.43
5741.74
-493.106
-1860.84
-1994.07
-671.378
-939.278
1298.53
-2973.01
-3878.78
271.843
590.171
983.126
2825.44
-2454.51
1942.92
3217.02
-437
-1725.21
-1790.69
-592.258
-1444.24
61.5559
-2723.59
-3749.02
288.626
882.395
681.61
2538.93
-3564.99
67.3052
1643.05
-1272.4
-2964.79
-4638.8
-1940.92
-6130.38
-11197.4
-7510.13
-13378.6
-1354.07
-1069.29
-4421.39
-3285.6
-1738.6
-8229.54
-3470.8
-1179.25
-2741.21
-3927.85
-1588.67
-5510.43
-8980.75
-6380.19
-8991.64
-1329.1
-871.909
-4045.87
-2840.86
-943.003
-7078.84
-3071.52
-973.676
-2270.67
-2899.73
-1136.24
-4451.75
-6883.1
-4751.13
-6900.74
-997.785
-1047.99
-3125.57
-3141.32
-1029.63
-5575.41
-3202.59
-829.39
-2128.72
-2240.3
-834.817
-4004.77
-5728.89
-4007.66
-5824.95
-892.678
-1174.08
-2769.72
-3440.01
-1204.62
-5303.51
-3422.93
-729.443
-1864.42
-1930.89
-694.954
-3418.61
-5465.24
-3611.31
-5931.37
-851.545
-1401.12
-2626.64
-3997.46
-1807.53
-5617.75
-4091.81
-672.099
-1705.18
-1745.42
-622.523
-3302.97
-5396.84
-3260.13
-5563.97
-901.159
-1644.36
-2748.31
-4300.86
-2627.54
-6034.44
-4395.42
9412.64
11508.8
23108
36624.1
35499.1
69209.3
24124.6
72345.7
24590.1
57660.6
30290.7
50269.8
23004.9
30922.9
10681.9
10990.3
18290.3
21476.9
24105.6
22394.9
16324.4
24414.8
23937
24017.6
6565.88
5101.81
8821.76
6607.21
16462.8
11544.4
29812.1
21676.3
24815.5
25688.9
26530.1
28249.9
7065.51
5753.72
55841.4
69024
30516.5
40302.3
69751.2
86080.5
32773.4
40314
43038.8
56228.8
35225.8
48155.5
20642.6
25783.1
4255.44
1406.49
5330.3
1911.48
10258.4
4307.95
17077.6
6429.1
12079.6
4040.87
11430.1
3326.52
21853.9
6529.15
28470.4
9159.57
33654.9
19769.8
28326.2
19597.8
32622.4
21033.6
25951
20284.7
23423.1
17147.8
26072.6
16956.4
27542.8
19938.7
28567
20360.8
25526
20374.3
26629.5
20690.9
23920.6
17801.9
25692.2
18362.8
26224.8
11369.3
16008.3
19017.7
28427.5
13365.2
16215.6
20329.4
26150.4
10449.5
16499.1
18507
27060.6
10474.4
17200.8
18592.6
4131.31
4714.26
1506.8
3217.35
12548.9
14845.8
5515.83
11117.9
20464.4
24228.3
10294
18937.9
19387.3
9545
22646.4
30143.6
16652.7
6148.33
10177.1
15397.2
30386.4
22824.1
12799.1
17966.5
21524.5
22697.4
29757.1
4254.24
4166.36
2758.48
2882.87
13570.6
11910.2
9647.76
9304.15
20134.8
16797.9
14448.1
13730.4
9688.85
10319.4
15464.4
16119.1
20743.2
18853.4
26801.8
23275.4
21472.5
20641.9
14098.5
13374.2
18882.5
14770.6
19371.8
13875.6
19054.8
13104.4
23663.8
17185.8
15328.5
5892
12667.7
10439.8
16126.5
16360.8
16641.2
19416
11588.6
9537.6
14873.6
4148.36
12690.1
17285.2
13410.8
18901.4
17160.4
24319.8
18010.4
25466.3
11802.2
16423.5
12529.9
18228.3
15225.2
9552.14
21008.4
8185.94
15596.4
3160.14
19580.5
2240.94
16162.4
14439.1
22208.3
10455.9
15003
16968.8
20741.4
13386.2
3509.43
2933.58
2104.99
2369.57
2111.33
1619.18
9864.56
7209.56
5204.57
7056.41
5003.1
3520.92
12206.9
8456.38
6522.73
10285.8
6769.75
5091.17
8092.82
4835.22
3651.43
13793.5
7674.93
4804.67
14309.6
8056.83
4736.5
17135.8
10646.2
7136.47
16082
8986.13
5257.18
14967.2
9419.35
6525.34
12471.1
7638.08
4711.19
12610.6
7348.96
4235.35
12830.4
7533.63
4397.66
16229.7
8076.48
3729.48
13045
20493.8
11542.8
15788.6
11690.4
22920.2
10234
19206.1
67.4359
1427.8
-281.286
915.599
3421.47
6272.77
2314.31
4111.23
2493.97
4355.74
11778.4
16798.5
8311.09
6811.01
13498.4
12011.3
19334.9
20911.1
-143.941
-5588.74
9240.91
6498.01
6768.16
3801.08
1342.91
858.032
1195.63
788.031
3791.38
1171.45
2244.21
592.546
9690.14
2622.95
7794.69
2435.44
8634.79
2521.33
9542.91
2883.08
14103.5
12691.5
10913.8
12309.6
22492
19038.4
18282.8
17793.7
7447.79
8458.78
8714.24
7978.35
10150.8
12032.2
10560.8
12029.5
17450.2
17235.7
18076.3
17274
6552.18
8416.73
6249.64
8395.92
703.929
818.401
5804.37
2335.79
839.962
644.681
5160.65
1974
635.591
698.524
6013.64
2533.55
794.227
715.927
5968.77
2622.31
-108.052
-238.39
374.617
178.686
-607.223
-1036.68
604.312
234.22
1039.99
134.26
1747.32
1253.16
-5916.08
-2995.87
-3246.93
-2132.66
-161.691
-6371.27
-8688.67
-3639.12
-3555.97
-271.569
10511.9
7212.31
5132.84
4372.28
1799.5
-323.921
-240.384
58.1411
42.7353
-973.305
-899.566
161.555
110.583
-837.509
-1004.12
602.053
459.371
-1894.9
-97.5996
-5861.52
-3172.38
-2695.41
-1387.12
-2469.94
-1660.61
-183.127
14.9138
5841.42
4071.97
672.476
-544.832
-5.73464
-718.75
246.517
-405.543
1.29846
1.97198
4342.21
4049.24
8870.59
5296.69
9014.95
7547.67
12854.4
9088.1
5917.49
3342.03
2310.39
2464.91
10304.2
4436.65
11010.4
4262.51
14664.3
9002.14
15697.5
8941.1
7004.86
2554.92
7519.78
2300.87
3510.01
2292.7
1572.31
2565.01
1651.1
1829.19
839.713
2051.25
3817.21
2027.52
1969.58
2940.34
4626.11
1827.52
2501
2744.46
-192.006
-154.18
-149.971
28.8887
-29.6455
-32.9223
-696.176
-569.878
-513.015
49.8012
-122.96
-129.542
-875.579
-858.908
-792.668
245.441
-223.032
-265.539
559.021
-122.595
-136.696
-1383.13