/*--------------------------------*- C++ -*----------------------------------*\
| =========                 |                                                 |
| \\      /  F ield         | OpenFOAM: The Open Source CFD Toolbox           |
|  \\    /   O peration     | Version:  2412                                  |
|   \\  /    A nd           | Website:  www.openfoam.com                      |
|    \\/     M anipulation  |                                                 |
\*---------------------------------------------------------------------------*/
FoamFile
{
    version     2.0;
    format      ascii;
    arch        "LSB;label=32;scalar=64";
    class       volScalarField;
    location    "0.6";
    object      gradTy;
}
// * * * * * * * * * * * * * * * * * * * * * * * * * * * * * * * * * * * * * //

dimensions      [0 -1 0 1 0 0 0];

internalField   nonuniform List<scalar> 
5712
(
15841.1
8709.79
27144.5
17983.8
26229
22624.3
37426.1
47572.8
57467.8
74350.4
30994.3
27626
19025.5
13298.9
12774.1
7291.49
24871
20528.8
22979.7
21505.7
28167.1
25536.5
33589.7
27382.4
9039.9
6002.45
4768.3
3314.15
12786.9
7929.03
7161.01
4709.48
27678
28299.1
23361.4
17128.2
18358.9
15154.3
15841.9
15300.8
20391.1
20445.7
44246.9
49226.3
29981.8
32309.9
24552
19415.6
23520.9
16170
10108.9
8956.2
8341.66
14483.3
4204.61
6337.43
10948.2
18967.4
7064.82
10518.2
10790.2
22385.5
8447.27
15373.9
2461.98
10159.8
285.741
7225.39
19202.1
23323.7
21372.3
23750
23524
23179
25229.5
23421.6
20509.3
24967.3
19596.7
24190.9
21957.1
23993.2
21789.6
24086.9
26134.5
23595.6
26557.6
23693
19580.2
25257.1
17933.4
25316.5
24152.3
28103.7
30325.6
46762.1
25442.8
33438.4
30278.9
52476.5
22801.7
24485.7
30086.8
43786.4
21954
22347.6
30085.6
42473.6
7759.35
10296.4
21543.8
37192
8993.1
10480.9
25915.7
40513.9
10207.5
10734.6
30824.2
43716.6
27651.6
26870.6
26531.5
26838.1
41919.4
26991.4
25829.2
26066.2
24060.2
49169.2
24567.2
24723.7
23166.1
27910.6
61460.4
2439.93
3213.86
7235.59
16265.7
3367.47
4819.47
9094.41
17930.8
4810.83
4551.36
11638.2
19979.4
24948.7
22484.4
22577
19367.7
21733.3
17126.2
17081
13768.4
15532.1
24414.6
22182
18192.6
22169.4
18864.8
20713.2
17345.4
20276.3
16422.9
17909.8
25377.1
23606.5
24223.8
24751.8
26361.5
22067.3
19575.6
22827.4
21169.9
23538.1
23120.3
23137.2
22142.3
25298
27097
25307.2
27063.1
23390.5
22270.6
23340.8
22312.8
23218.6
22847.5
23655.5
23145.5
22266.6
21413.4
16188.1
19626.9
22626.3
21132.7
16968.3
20907.7
21458.7
20932.1
15861.7
19350.2
21579.9
20642.5
15608.6
18771.4
2382
1630.75
1029.25
1147.36
797.81
747.816
3725.37
2069.24
1334.24
2767.03
2112.39
1509.33
3497.62
2565.17
2279.45
4996.75
3567.58
2745.44
18114.3
12627.9
9517.51
16254.6
12138.7
9582.92
11943.9
9179.1
7616.42
9817.25
7462.82
6100.67
8211.2
4704.85
3042.8
14341.9
10359.3
8011.82
15419.4
11232.5
8904.84
12446.9
8539.14
6622.27
10067.8
6916.82
5394
7986.85
4484.93
2889.07
30575.7
30546.5
33447
29602.8
31261.8
29838.5
38539.5
31572
18409.2
18989.5
18626
17353.2
24707.3
20444.7
24688.4
18423.5
26962.3
27407.9
22796.2
24891.8
28235.5
25601.1
31444.4
33152.4
34654.2
37836.7
26157.4
27241.8
22629
22601.2
25023.9
24363.9
15169.4
8167.34
14441.4
9076.79
14876.5
7998.8
14042
8764.27
13716.6
7334.87
13231.4
8304.39
13093.8
8609.97
12598.3
8531.73
22084.8
16049.6
22346.3
16717.4
25476.4
21504.3
26539.1
21871.3
19918.4
12373.3
20088.3
11582.1
23294.8
17118.8
24229.6
17247.7
27879
22202.4
28785.4
22353.8
19724.1
12745.8
19744
12827.8
11009
6995.01
8867.8
5474.35
9854.07
6180.87
8061.65
4957.49
11409.3
7428.71
9238.4
5751.17
11526.4
7662.69
9325.99
5868.37
2294.9
1147.32
4156.5
2372.86
2344.53
1292.55
4185.7
2573.57
2487.58
1680.56
4098.49
2894.73
10978.1
19958.6
6938.04
6246.68
4486.23
20122.2
11868.4
6143.93
5430.59
3444.6
19623.8
13266.3
9236.69
6507.94
4161.48
683.533
508.888
1586.08
1268.73
845.196
544.938
1861.89
1476.84
1189.79
821.698
2215.92
1780.41
19626.1
16638.1
11335.6
8951.28
6482.51
5198.83
4795.62
3738.39
3027.73
2451.12
17123.5
13099.8
11495.4
8524.85
7993.36
6049.99
5402.58
4163.02
3649.45
3275.89
11194.4
7520.42
11639.8
7276.3
15544
10355.5
16307.3
10614.2
8736.72
5770.89
8478.01
6008.8
12329.4
7080.57
12579.3
7266.24
17509.6
11191.7
17666.9
11423.6
8926.14
5529.17
9141.53
5812.04
5919.42
4300.92
4021.56
4136.63
5907.41
4409.47
4073.13
4000.48
5933.62
4228.96
3933.74
4304.91
6250.71
4331.7
4089.08
4265.65
658.155
420.065
271.593
2294.65
947.366
608.49
617.527
459.165
320.063
2495.95
1124.42
751.868
829.591
679.769
549.154
2771.89
1423.31
1018.08
12035.4
8372.69
6376.21
6538.05
4579.91
3555.25
4051
2853.17
2248.78
3005.3
2075.73
1617.32
3380.46
1917.44
1385.86
9003.63
6118.18
4540.88
5780.82
3881.56
2892.54
4322.75
2839.15
2055.45
3455.87
2248.71
1642.74
4520.99
2401.59
1733.71
3715.86
1614.74
728.053
332.254
4170.36
1755.56
766.431
348.844
3585.89
1583.78
724.227
333.989
4106.1
1750.62
780.73
361.15
3360.8
1537.15
746.297
347.104
3937.71
1747.03
823.657
383.531
4081.41
1796.57
792.181
365.296
4123.47
1832.16
790.149
358.421
3510.58
1612.18
782.299
362.326
2903.4
1413.7
718.885
321.3
3083.61
1462.33
750.265
347.822
2655.47
1321.38
690.748
308.766
3742.63
1705.52
791.12
362.865
3050.31
1477.34
732.502
324.521
3845.68
1758.45
800.221
364.252
3117.8
1516.03
746.725
330.348
2793.37
1378.35
676.1
310.897
1968.05
1121.69
610.084
275.481
2705.26
1353.99
676.443
311.433
1961.38
1118.99
610.276
275.704
2579.18
1318.58
685.552
314.611
2006.12
1135.18
616.986
276.674
2462.58
1267.66
676.279
310.668
2033.77
1142.45
634.414
282.457
2338.29
1222.48
650.738
291.57
1274.89
909.06
482.487
132.873
679.751
805.956
431.272
118.033
1350.6
936.692
494.485
139.467
770.477
836.39
441.175
120.882
1479.77
981.157
504.571
139.326
922.63
888.669
452.918
122.836
1688.76
1042.3
528.718
150.084
1139.78
961.204
474.688
129.388
2015.45
1130.48
567.729
169.363
1443.5
1041.48
496.527
135.001
2308.15
1242.25
591.442
165.094
1624.11
1150.87
539.223
142.973
2238.73
1195.56
576.795
164.483
1594.26
1110.28
518.062
138.757
2326.85
1269.19
591.629
156.961
1627.36
1178.02
547.783
142.288
2305.84
1292.1
603.004
158.582
1684.12
1202.16
558.558
144.152
147.934
65.7823
27.9272
10.8724
2.79966
152.917
66.7728
28.1242
10.9148
2.80747
150.046
66.2386
28.0992
10.936
2.81534
155.699
67.4231
28.3656
11.0019
2.82867
150.006
66.5162
28.2736
11.006
2.8328
155.893
68.3235
28.7549
11.1412
2.86209
161.624
70.2115
29.415
11.3591
2.91274
163.08
71.5982
29.9809
11.556
2.95954
155.363
68.3281
28.8878
11.2068
2.87934
148.516
67.4972
28.7858
11.1964
2.87884
148.116
66.8931
28.4829
11.0847
2.85193
144.998
66.7132
28.5533
11.1242
2.86245
158.883
69.6445
29.3212
11.3452
2.91109
150.706
68.6231
29.1849
11.3272
2.90912
160.597
71.0948
29.9237
11.5572
2.9617
152.499
69.9792
29.7615
11.5325
2.95834
139.99
64.3417
27.6618
10.8186
2.79012
132.044
63.2309
27.4774
10.7832
2.78404
140.662
64.6454
27.7871
10.8652
2.80163
133.062
63.5797
27.6004
10.8258
2.79429
141.018
65.0003
27.9565
10.9288
2.81718
135.041
64.1215
27.7863
10.8889
2.80922
141.572
65.5569
28.1846
11.0075
2.83577
138.196
65.0124
28.0504
10.97
2.82761
141.343
66.114
28.3759
11.0691
2.84992
16518.1
25829.2
16989.4
25950.7
17762
26141.4
18678.8
27033.6
19396.5
28802.2
16502.6
20167.2
17461.9
22457.1
16160.2
19532.2
15935.8
19338.4
13733.8
2518.19
576.363
136.655
25.4351
16288
4637.98
1174.51
280.89
51.9148
13829.9
2451.79
552.167
130.038
24.1255
16332.3
4598.35
1152.07
272.686
50.3928
13995.6
2397.02
528.607
123.395
22.831
16463.3
4555.46
1125.34
264.377
48.7233
14154.6
2317.34
500.828
116.457
21.5938
16635.2
4499.79
1100.17
258.079
47.6766
14102.2
2228.8
481.833
113.428
21.2885
16625.2
4421.71
1086.63
257.989
48.2071
12847.6
2442.92
594.055
150.535
29.5475
14197.8
4344.17
1170.19
297.863
58.379
13428.2
2366.79
544.909
133.054
25.5212
15189
4395.61
1131.06
277.451
53.0196
12527.1
2494.2
626.762
162.802
32.4877
13784.4
4315.85
1193.15
311.163
62.1179
12382.9
2446.26
618.651
162.374
32.6784
13608.6
4260.48
1188.54
313.073
62.997
40740.9
59885.5
53005.8
37764.2
19962.9
21202.7
32025.4
32697.8
22372.1
24464.4
36815.2
50618
55238.7
76941.3
27596.3
30941.3
21714.3
21539.5
14789.9
15389.1
3311.4
2017.76
154.463
88.4173
107.135
83.4012
131.643
2856.25
2392.39
1365.75
1566.29
1127.69
445.643
784.991
514.4
294.243
348.409
247.967
2587.4
1057.69
404.612
370.317
581.581
463.247
296.071
265.057
176.699
153.941
258.067
247.831
2835.64
1460.23
1593.52
870.368
611.776
1086.4
297.577
164.873
351.658
6451.15
5703.04
4812.53
4832.71
7133.83
4152.33
3987.96
3556.87
3507.58
3704.16
382.648
492.394
540.723
555.552
558.105
222.132
292.613
328.478
342.437
346.272
268.873
353.43
395.515
410.874
414.496
210.125
278.03
313.257
327.2
331.063
328.107
426.413
472.264
487.429
490.413
5894.23
5517.69
4530.48
4239.35
6093.41
4758.98
4279.75
3541.15
3225.69
3529.18
2915.88
2925.55
2609.73
2452.33
2474.68
3108.2
2863.87
2395.91
2131.89
2146.83
2248.24
2110.9
1775.31
1568.22
1536.33
1032.15
1192.37
1191.08
1154.17
1135.15
1727.13
1834.07
1711.77
1608.11
1580.38
1157.82
1277.2
1226.79
1159.11
1127.32
702.245
851.138
884.519
874.54
863.436
816.64
961.816
975.276
949.568
931.734
598.034
736.942
776.371
772.984
764.312
5404.19
5166.5
4343.18
4181.84
6076.29
2345.57
2502.4
2344.51
2253.83
2265.88
954.188
1133.04
1157.84
1138.77
1126.66
881.478
1062.19
1099.57
1090.68
1082.61
1345
1544.46
1536.76
1501.4
1492.72
1097.28
1307.91
1340.42
1326.18
1316.47
717.102
887.904
941.45
948.058
945.389
644.329
803.167
855.929
862.393
859.331
435.598
556.036
604.922
615.595
614.737
381.779
492.11
540.488
554.075
555.434
624.144
772.404
817.537
818.339
812.368
602.663
752.145
802.298
807.834
804.322
5702.04
5237.98
4432.26
4407.58
6461.95
3119.5
3173.45
2929.38
2875.49
2978.77
3704.56
3905.67
3428.71
3356.07
3548.32
1992.93
2229.87
2171.35
2131.29
2130.35
1434.3
1672.67
1680.97
1655.35
1643.05
2465.97
2665.7
2489.01
2414.78
2394.25
720.215
890.9
943.346
948.145
944.491
407.525
522.406
571.205
584.53
585.892
842.361
1024.63
1068.92
1065.14
1058.32
23645.5
15805.6
24844.4
19303.3
28892.7
43680.5
31353.9
46049.2
25692.9
24061.9
23124.7
22972.7
25611.3
24475.9
33285.8
26994.2
19215.4
18281
8569.62
7269.9
22223.2
18899.3
11799
8271.02
29289
31782.3
25542.3
21883.2
28342.9
18698.7
16168.4
15501.7
21179
20726.5
45195.4
49720.9
30110.8
32456.9
25901
19789.6
25114.1
16546.2
11147.7
9188.11
20590.9
25547.1
8219.48
10306.8
21719.5
28342
10895.3
14304.1
18420.6
28560.8
11324.5
18421.5
2988.53
11300.1
330.224
7460.18
21578.4
22967.8
22093.1
23693.3
23075.7
22184
24912
22932.4
22239.1
25393.8
23973.2
24612.9
22324.3
24008.6
21888.6
24096.8
26055.4
23376.8
26555.4
23626.2
20326.5
25532.5
18114.4
25411.2
25637.3
30164.6
31215.8
47940
27707.8
36858
31545.3
54200.5
23575.4
25520.9
30606.9
44481.1
22178
22643.1
30262.6
42712.6
27997.7
31673.3
38230.9
55106.9
26328
28012.1
39297.1
54507.3
22372.4
22628.7
39460.3
52036.4
21679.5
21336.7
24794.6
28211.4
46149.4
20841
19745.9
25676.6
25461.6
53620.1
20735.4
21556.5
22290.7
29367.3
63692.5
17229.8
15446.9
15374.8
20508.8
16674.4
15237.1
15693.2
21151.5
15177.4
13007.7
15614.9
21291.2
19492.4
17552.8
18432.8
16410.6
22146.8
18840.4
18803.9
15710.7
17283.1
24049.6
19299.1
16710.7
19990.2
18097.5
20210
17557.2
21272
17277.6
18432.8
24277.9
22684.6
23487.8
24344
25915.9
20810.5
18764.8
22207.3
20700.1
23523.5
22976.6
22932.7
21910.9
25138.8
26897.9
25265.8
27005.3
23115.2
22049.6
23262.1
22246.5
23244
22788.2
23665
23128.1
22529.6
21493.2
16461.7
19754.8
23030.7
21267.5
17401.4
20921.4
21612.5
20990
16019
19455.8
21639.2
20667.5
15669.7
18813.8
14053.6
15136.8
5579.9
5643.26
13687.1
13402.2
6552.11
6723.93
10722
9907.45
7366.98
6922.86
15642.1
13653.8
15450.3
14172.4
15102.9
13592
12454.5
10660.5
9549.45
6828.35
14911.4
13128.6
16926.7
14854
14273.2
11938.7
11960.2
9794.42
8169.77
5599.28
24661.9
23714.6
31070.5
26486.8
28009.7
25897.7
39126.5
30290.5
19323.4
14040.7
21728.7
15671
20000.8
14113.4
22543.1
15722.4
23086.4
20165
19766.5
18231.1
19405.6
21672.3
29921.5
32701.5
34140.3
37711.9
24356
26727.1
21064.2
22153.3
22962.9
23737.8
10823.1
7824.02
12106
8314.89
10574.9
7642.31
11893.3
8104.83
10096.3
7057.5
11431.2
7765.39
12055.4
8196.01
12256.4
8380.05
17777.7
14889
20329.7
15880.6
22451.6
19826.6
25199.9
20936.8
17654.2
11815.7
15643.9
11076.3
22284.1
16644.3
23932
17091.8
27274.5
21733.9
28619.4
22208.9
18558.3
12378.7
19387
12699.2
10244.4
6826.75
8650.78
5523.2
9151.29
6351.88
8120.43
5279.32
10918.2
7246
9038.84
5722.87
11366.3
7590.39
9248.93
5850.74
8823.01
8504.91
6931.04
6387.28
8416.92
8273.16
6678.25
6162.84
7856.64
7683.82
6044.11
5550.95
14567.2
19628.8
12116.1
7922.03
5760.13
18952.1
15435.6
12871.7
7746
5296.52
18722.7
14139.4
10520.4
7775.85
5099.67
8698.02
8833.51
6284.31
6246.43
8294.43
8100.32
5961.16
5837.24
7469.86
6969.93
5174.57
4799.5
17483.6
14705.3
13006.8
10696.3
10876.9
9687.48
7326.82
6604.66
4994.41
4537.06
15982.6
12395.5
11939.8
8957.52
9209.67
7261.26
6823
5616.7
4660.25
4373.46
10984.9
7599.02
11393.2
7261.23
14777.1
10036.3
15828.5
10415.5
8684.71
5872.25
8670.14
6381.17
12143.6
7033.45
12512.5
7245.06
17247.8
11074.7
17584.3
11385.6
8824.7
5521.23
9095.12
5799.11
6000.34
4465.7
4169.85
4370.72
6324.54
4917.94
4516.58
4592.6
5909.84
4255.33
3970.81
4383.27
6234.11
4332.82
4096.41
4282.46
9607.05
9397.15
9510.36
8043.58
8496.28
8238.78
8859.32
7494.55
6995.9
6647.16
7523.48
6374.1
12072.6
10432.6
9082.87
7983.72
8642.56
7837.72
6117.54
5291.19
7057.93
5900.96
9171.65
7965.6
6689.56
5914.02
5845.18
5147.98
5228.4
4484.22
7178.45
5612.46
4124.48
1867.01
842.24
384.667
4300.13
1927.32
859.673
395.547
3957.52
1818.42
828.623
382.329
4204.33
1895.27
860.469
402.455
3681.76
1745.68
839.995
390.645
4001
1857.7
888.796
418.035
4082.51
1855.54
832.041
386.659
4116.56
1850.38
802.987
365.619
3617.08
1709.69
836.207
390.445
3040
1508.31
767.731
344.883
3386.08
1637.37
832.625
386.509
2950.06
1484.72
764.495
340.616
3767.08
1752.96
821.126
379.567
3104.12
1524.81
760.581
339.243
3847.2
1772.6
810.068
369.841
3131.39
1530.33
755.925
335.235
3804.26
1762.38
825.138
372.171
3416.88
1627.28
796.213
342.771
3613.33
1714.45
816.991
369.382
3243.72
1588.63
785.664
339.695
3341.63
1642.37
815.521
368.054
3005.09
1532.76
770.768
333.464
3078.09
1540.78
787.684
355.705
2844.33
1481.93
767.397
331.012
2859.17
1460.01
750.1
328.83
2897.5
1479.44
667.824
172.774
2115.97
1390.63
625.217
160.261
2771.02
1458.95
668.699
178.511
2045.02
1371.45
622.571
160.959
2588.85
1421.48
654.504
173.109
1933.05
1340.55
609.721
157.907
2559.91
1398.56
657.917
180.881
1964.15
1324.21
604.902
159.456
2603.81
1386.48
669.998
196.215
2070.71
1311.59
597.62
159.365
2456.12
1339.92
643.855
180.303
1745.2
1247.41
585.668
155.298
2558.61
1364.4
654.291
185.488
1886.69
1281.12
589.753
156.8
2383.96
1317.24
620.791
165.635
1664.75
1224.08
572.721
149.121
2318.16
1306.06
612.135
161.354
1690.83
1215.27
566.213
146.296
171.604
75.3519
31.5497
12.1454
3.10689
174.736
75.891
31.6231
12.1512
3.10648
172.329
75.0641
31.425
12.1042
3.09738
175.2
75.5185
31.4658
12.0979
3.09388
170.227
74.4588
31.2606
12.056
3.08651
171.379
74.7448
31.2221
12.0165
3.07432
171.237
74.1088
30.9346
11.9039
3.04553
166.616
73.0946
30.5717
11.7693
3.01168
168.491
73.7823
30.9976
11.9588
3.06215
161.004
72.8469
30.8666
11.9398
3.0598
165.472
73.8019
31.0956
12.0067
3.07521
160.956
72.9808
30.9395
11.9703
3.06782
167.575
73.4869
30.8403
11.8919
3.04452
158.645
72.3757
30.693
11.8727
3.0425
163.445
72.3716
30.4371
11.7437
3.00739
155.124
71.2751
30.2949
11.7276
3.00625
166.245
74.4941
31.4326
12.1337
3.10665
160.91
73.8057
31.3436
12.1242
3.1062
165.822
74.253
31.3401
12.1034
3.09971
160.805
73.6562
31.2739
12.0996
3.10038
164.518
73.8288
31.2119
12.0641
3.09073
160.844
73.4353
31.1787
12.0666
3.09255
162.803
73.3812
31.0811
12.0221
3.08081
161.511
73.3252
31.0993
12.034
3.08423
160.031
73.1089
30.9985
11.9933
3.0737
18721.8
25496.2
18646.2
25383.6
18646.6
25229.4
19056.4
25906.3
19403.3
27427.3
16660.2
20254.5
17606.7
22290.9
16271.6
19629.3
15971.3
19373.1
14385
2591.23
589.993
139.782
26.0122
16532.6
4731.34
1200.13
287.242
53.0918
14337.8
2508.91
563.333
132.708
24.6282
16453
4667.52
1173.16
278.163
51.4344
14281.4
2430.55
536.237
125.419
23.2302
16396.3
4588.1
1139.67
268.589
49.5637
14254.6
2330.23
505.186
117.847
21.887
16420.2
4500.88
1108.25
261.041
48.312
14096.5
2231.01
484.256
114.372
21.4995
16350
4409.87
1091.26
260.095
48.6853
12910.3
2452.73
596.717
151.312
29.7095
14248.4
4360.12
1175.43
299.416
58.7014
13461.6
2372.27
547.325
133.908
25.7097
15138.3
4398.73
1135.66
279.212
53.4143
12581.8
2503.31
628.954
163.379
32.6027
13842.3
4331.7
1197.41
312.288
62.34
12403.2
2449.65
619.438
162.573
32.7173
13630.6
4266.54
1190.1
313.468
63.0733
40376.2
60181
53748.3
36605.9
26050
32803.6
25437.9
32541.4
30677.2
51547.7
33725.9
56712.3
3.0203
4.535
8.24693
15.6384
29.2196
53.0208
4.2149
6.10198
10.5835
19.1445
34.3393
60.2864
2.18027
1.79874
3.4298
2.90324
6.63887
5.81648
13.5092
12.4059
26.7177
25.8187
50.5205
50.2502
93.4426
165.141
300.569
564.762
869.679
1133.77
103.501
173.99
284.768
441.313
605.2
721.513
7.85152
10.9571
13.0467
14.2439
14.765
11.7528
16.3143
19.3144
20.9853
21.6935
21.2844
29.3378
34.474
37.2241
38.345
40.1685
54.9189
63.9861
68.6116
70.4041
74.6125
101.003
116.485
123.899
126.579
134.365
179.598
204.526
215.466
219.031
10.9298
15.187
17.9988
19.5737
20.2451
15.7693
21.7839
25.6581
27.761
28.6306
27.2264
37.3221
43.6065
46.8705
48.1611
48.9957
66.5811
77.0982
82.278
84.2138
87.3425
117.476
134.632
142.534
145.272
152.172
202.105
228.784
240.017
243.507
5.68235
7.9634
9.52399
10.4366
10.8416
4.69517
6.59687
7.9113
8.68953
9.03867
8.91225
12.4258
14.7784
16.1184
16.6985
7.5562
10.5636
12.5996
13.7748
14.2899
17.1817
23.7909
28.0872
30.444
31.4277
15.0786
20.9371
24.7898
26.934
27.8414
34.7915
47.7735
55.903
60.1503
61.837
31.9992
44.0506
51.6792
55.7194
57.3458
68.3845
92.9212
107.554
114.711
117.357
66.1605
90.0682
104.438
111.533
114.18
128.289
172.018
196.448
207.354
210.97
127.761
171.636
196.325
207.412
211.098
234.379
308.021
345.125
359.419
363.332
408.329
524.219
574.94
590.599
593.573
727.784
902.981
961.533
972.034
972.088
1325.95
1564.32
1599.54
1591.53
1590.93
1970.5
2208.19
2182.82
2156.99
2176.96
2506.19
2706.51
2612.43
2575.61
2620.66
258.751
338.29
377.297
391.763
395.546
429.765
551.019
603.786
619.931
623.029
693.003
867.564
931.268
945.221
946.46
1055.26
1284.97
1348.81
1355.02
1354.77
1422.15
1687.35
1738.18
1734.99
1737.44
1675.83
1954.44
1989.75
1980.27
1987.06
3.05322
4.65595
8.52707
16.2289
30.3762
55.0897
4.2563
6.24583
10.8883
19.7165
35.3229
61.8244
2.20684
1.82169
3.53175
2.99382
6.90011
6.06103
14.1396
13.0466
28.1397
27.4404
53.5385
54.5957
96.6365
169.293
304.761
566.243
868.428
1132.57
105.623
176.475
287.041
442.529
605.322
721.348
7.93984
11.0861
13.2074
14.4262
14.9583
12.0745
16.7817
19.8962
21.6452
22.3927
22.0298
30.4207
35.8214
38.7519
39.9637
41.7395
57.2007
66.8246
71.8298
73.8143
77.6906
105.477
122.055
130.221
133.282
139.882
187.644
214.579
226.909
231.187
11.0408
15.3492
18.2014
19.8043
20.49
16.153
22.3439
26.3583
28.5581
29.477
28.0409
38.5129
45.0976
48.5698
49.9669
50.527
68.8261
79.9166
85.4967
87.6384
89.9847
121.37
139.545
148.167
151.279
156.33
208.292
236.659
249.111
253.244
5.75311
8.06611
9.65153
10.581
10.9944
4.7562
6.68536
8.02107
8.81369
9.17007
9.18309
12.8181
15.2653
16.6691
17.2811
7.79665
10.9115
13.0306
14.2618
14.8048
17.875
24.7937
29.3291
31.8467
32.9108
15.727
21.8731
25.9467
28.2386
29.2197
36.462
50.1838
58.8816
63.5094
65.3859
33.6946
46.4906
54.6861
59.1029
60.9164
72.1464
98.3368
114.232
122.233
125.299
70.4393
96.1999
111.966
119.984
123.088
136.262
183.466
210.533
223.196
227.69
139.14
187.748
215.879
229.179
233.948
242.964
320.687
361.126
377.795
382.954
419.719
541.523
597.384
616.905
621.981
739.989
922.944
988.949
1005.52
1009.05
1332.46
1578.95
1623.38
1623.8
1628.4
1970.46
2214.33
2196.74
2178.72
2204.15
2504.63
2707.29
2616.36
2582.94
2630.53
264.559
347.091
388.687
405.082
409.907
436.749
561.985
618.409
637.412
642.1
699.791
879.03
947.412
965.249
968.738
1059.7
1293.95
1362.84
1373.57
1376.07
1423.74
1692.24
1747.11
1747.73
1752.64
1675.97
1955.79
1992.66
1984.72
1992.54
3300.8
2013.34
162
93.5312
123.146
93.055
144.011
2802.07
2428.28
1424.22
1732.44
519.079
884.968
362.232
460.875
315.417
2549.59
1082.48
449.995
400.428
610.986
480.995
305.376
284.431
221.715
183.927
301.481
277.233
2809.19
1453.88
1582.01
871.71
620.674
1095.22
312.333
183.419
374.255
6434.38
5694.76
4813.97
4849.14
7178.4
4145.54
3986.25
3561.61
3520.12
3723.51
402.931
522.291
578.405
598.802
604.314
235.702
312.211
352.711
369.82
375.266
310.38
411.207
464.499
486.831
493.861
235.236
313.177
355.433
373.781
379.788
360.631
472.728
528.791
550.733
557.163
5918.58
5773.14
4987.46
4910.56
7173.02
5120.44
5006.11
4468.14
4420.81
5135.32
3122.26
3282.73
3085.24
3047.57
3173.14
3876.5
4018.41
3639.38
3564.88
3880.78
1231.13
1478.6
1538.26
1548.39
1561.55
2019.06
2270.16
2242.52
2225.46
2271.93
879.363
1096.88
1176.22
1197.9
1205.83
1104.28
1348.35
1420.7
1435.93
1445.64
772.231
976.4
1058.65
1083.55
1091.07
5378.39
5250.12
4538.82
4497.05
6622.3
2432.9
2662.31
2571.8
2543.91
2602.02
1077.26
1313.22
1381.72
1395.73
1404.06
963.74
1184.78
1254.84
1270.73
1277.33
1430.31
1679.88
1715.99
1717
1731.75
1148.16
1388.53
1447.72
1455.11
1458.37
743.261
928.711
995.352
1012.22
1015.37
696.518
879.975
952.501
973.34
978.221
550.807
712.938
788.602
815.759
823.43
458.929
598.155
665.69
691.11
698.413
738.303
933.844
1012.84
1036.88
1043.92
680.64
864.17
939.979
963.414
969.698
5667.25
5235.1
4461.17
4478.9
6624.03
3112.79
3180.7
2953.27
2917.32
3034.98
3707.37
3960.3
3535.36
3520.17
3760.41
2003.83
2259.25
2221.48
2201.21
2212.56
1463.4
1725.07
1756.68
1751.46
1751.59
2508.11
2755.82
2626.43
2598.12
2607.89
760.741
952.15
1022.14
1040.25
1044.09
456.14
591.234
654.767
677.877
684.298
904.381
1117.93
1188.23
1204.26
1208.93
1726.31
1711.03
1705.23
1651.39
1387.02
587.801
22851.8
24177.9
24542.6
25682.5
23973.9
23182.8
23015.7
22647.6
21419.7
28545.1
24007.1
28012.9
32452.4
21088.3
38242.6
20631.2
22010.4
22276.3
22859.8
22166.8
22784.9
21311.6
21835.9
22096
37883.2
24761.2
36262.2
33802.5
26500.3
44481.8
18271.3
19431.9
19083.5
19156.4
20084.7
21606.8
18812.8
20212.7
24579.2
34976
27496.9
34185.7
34341.3
29823.4
41045
16063.4
17035.8
15928.1
15767.1
18068.2
20218.9
16057.5
18036.8
21497.6
30700.5
23771
28844.6
28709.9
24990.4
34827.5
14066.7
14981.5
13542.9
13343.6
16217.9
18503.2
13667.2
15416.9
18173
23398.2
20274.6
21298.6
23272.5
18976.9
25429.4
12440.7
13263.4
11806.6
11623.7
13942
15260.1
11891.7
13086.2
14653.2
17266.8
16419
16005.7
18755.1
14051.8
19799
22475.2
22135.2
24590.2
26230.4
22152.5
22200.9
22911.2
23000.3
17888.6
10298
18730
10139.8
18330.2
14838.4
14690.5
20628
20644.2
21958.3
22922.7
20720.2
20879.1
20872
21192.7
14788.8
9343.63
15280.2
9134.48
14613.3
12927.6
12425.1
16771.6
16870.9
18284.3
18629.4
17118.1
17246.6
17867.4
18639.4
12212.8
8718.42
12714
8361.03
12698.8
10441.7
11672.6
12814.2
13044.7
14670.4
14687
13361.7
13421.9
14799.9
15537.4
9066.81
7634.15
9535.8
7312.24
9604.67
7980.58
10286.4
10160.1
10451
12073
12012.9
10766.1
11102
12225
12725.8
7209.16
7242.17
7834.07
7406.13
8373.06
7859.35
10065.9
8227.7
8552.71
10262.6
10183
9251.65
9984.55
10408.8
11118.2
6480.59
7454.02
7309.84
7927.7
8110.65
7830.77
10352
15507
8356.51
27121.9
17927.9
26225.3
22606.1
37421.6
47561
57467.4
74334
31006.4
27616
19036.6
13273.8
12358.2
6888.77
24864.8
20525.4
22972.5
21502.7
28163.5
25534.1
33584.6
27380
8832.49
5896.41
4620.24
3248.39
12772.9
7918.99
7159.49
4714.64
27670.8
28290.1
23357.7
17125.4
18353.6
15155.2
15839.8
15300.2
20389.7
20444.9
44245
49225.4
29980.3
32308.9
24551.6
19415.9
23520.4
16169.9
10108.9
8956.26
8199.74
14220.1
4113.32
6176.32
10954.4
18984
7078.13
10537.4
10793.9
22393.7
8452.58
15381.1
2462.73
10162.4
285.734
7226.28
19200.5
23322.9
21371.1
23749.5
23522.6
23178.2
25228.2
23420.9
20509.1
24967.3
19595.5
24190.7
21956.3
23992.8
21789
24086.6
26133.5
23595
26556.8
23692.5
19580
25257.2
17933.2
25316.6
24153.3
28106.9
30326.6
46763.8
25443.8
33442.5
30280
52478.7
22802.5
24487.6
30087.6
43787.8
21954.7
22349
30086.3
42474.7
7674.6
10237
21273.7
36963.5
9007.61
10496.7
25939.6
40545.7
10213.5
10740.7
30834.7
43725.9
27650
26869.6
26529.2
26839
41924.1
26990.3
25827.7
26063.4
24061.1
49173.7
24566.3
24722.7
23165.5
27912.1
61463.3
2410.24
3176.32
7161.7
16152.9
3382.22
4827.17
9113.69
17948.7
4816.1
4555.09
11646.9
19986.9
24947.8
22483.8
22575.9
19367
21731.9
17125.4
17082.7
13769.8
15536.4
24418.4
22181.3
18192.2
22168.7
18864.5
20713.1
17345.5
20277.6
16423.9
17911.8
25378.8
23606.1
24223.5
24751.5
26361.3
22066.8
19575.3
22827
21169.6
23538.1
23120.3
23137.2
22142.4
25297.8
27096.8
25307
27063
23390.1
22270.4
23340.5
22312.5
23218.6
22847.5
23655.6
23145.5
22267.1
21413.8
16188.7
19627.4
22627
21133.2
16969.3
20908.5
21459
20932.4
15862.1
19350.6
21580.2
20642.7
15608.9
18771.7
2333.48
1597.82
1012.22
1129.97
785.77
741.585
3728.06
2070.63
1335.87
2772.61
2116.05
1512.03
3499.25
2566.18
2280.23
4999.2
3569.06
2746.72
18113.8
12627.7
9517.36
16254.2
12138.5
9582.83
11943.5
9178.92
7616.42
9817.96
7463.14
6100.99
8212.57
4705.56
3043.35
14341.6
10359.1
8011.71
15419.3
11232.4
8904.78
12447
8539.19
6622.33
10068.4
6917.1
5394.23
7987.49
4485.26
2889.32
30580.7
30548.8
33451.5
29604.6
31260
29837.8
38536.5
31571
18246.2
18942.1
18418.1
17294.7
24729.5
20437.7
24716.3
18416.3
26968.4
27414.5
22798.8
24894.6
28234.9
25600.5
31444.9
33152.3
34653.5
37835.9
26159.5
27242.4
22629.9
22601.4
25024.5
24364.4
15146.9
8148.26
14414.3
9060.74
14872.5
7998.63
14038.3
8763.32
13715
7334.35
13230.2
8303.76
13093.7
8609.67
12598.6
8531.77
22085.6
16049.6
22346.9
16717.4
25476
21503.9
26538.6
21870.9
19918.8
12373.4
20088.6
11582.2
23294.9
17118.7
24229.4
17247.4
27878.5
22202
28784.8
22353.3
19724.3
12745.8
19744.1
12827.7
11009.2
6994.8
8867.83
5474.27
9854.33
6180.66
8061.7
4957.4
11409.5
7428.62
9238.42
5751.12
11526.6
7662.75
9326.02
5868.37
2284.66
1137.53
4144.25
2360.16
2346.32
1294.32
4186.33
2574.56
2488.12
1681.08
4098.49
2894.93
10978.1
19958.1
6938.22
6246.9
4486.18
20121.7
11868.3
6143.89
5430.68
3444.66
19623.4
13266.2
9236.72
6508
4161.41
673.199
499.549
1571.58
1258.72
846.198
545.226
1862.77
1477.15
1190.18
821.888
2216.14
1780.43
19625.6
16637.6
11335.4
8950.98
6482.26
5198.49
4795.58
3738.25
3027.78
2451.1
17123.1
13099.5
11495.2
8524.66
7993.28
6049.85
5402.59
4162.97
3649.42
3275.82
11194.3
7520.29
11639.6
7276.19
15543.7
10355.3
16307
10614.1
8736.66
5770.81
8477.97
6008.71
12329.2
7080.46
12579.1
7266.11
17509.3
11191.5
17666.6
11423.4
8926.06
5529.09
9141.43
5811.95
5919.4
4300.87
4021.5
4136.54
5907.41
4409.42
4073.07
4000.39
5933.59
4228.9
3933.7
4304.83
6250.67
4331.64
4089.05
4265.6
648.29
413.683
267.417
2278.86
938.602
602.224
617.226
459.082
320.154
2497.61
1125.53
752.688
829.674
679.804
549.169
2772.3
1423.64
1018.36
12035.1
8372.47
6376.05
6537.76
4579.68
3555.08
4050.64
2852.9
2248.59
3005.1
2075.55
1617.18
3380.54
1917.55
1385.98
9003.42
6118.03
4540.78
5780.65
3881.43
2892.43
4322.6
2839.03
2055.35
3455.76
2248.61
1642.67
4520.88
2401.59
1733.74
3715.57
1615.6
728.032
332.051
4169.78
1756.12
766.36
348.499
3584.42
1583.45
724.172
333.956
4104.89
1750.47
780.735
361.154
3360.06
1536.9
746.228
347.072
3937.07
1746.85
823.614
383.515
4081.04
1796.42
792.132
365.276
4123.32
1832.07
790.113
358.405
3510.27
1612.03
782.241
362.301
2903.25
1413.59
718.83
321.274
3083.24
1462.16
750.194
347.791
2655.29
1321.26
690.686
308.738
3742.42
1705.4
791.07
362.842
3050.2
1477.26
732.457
324.499
3845.59
1758.38
800.184
364.234
3117.74
1515.97
746.692
330.331
2792.65
1379.05
676.21
310.832
1965
1121.4
610.055
275.499
2703.99
1353.68
676.365
311.386
1960.62
1118.82
610.192
275.665
2578.55
1318.35
685.474
314.576
2005.77
1135.05
616.925
276.648
2462.28
1267.51
676.209
310.638
2033.56
1142.34
634.355
282.432
2338.11
1222.36
650.677
291.543
1271.53
908.787
482.592
132.98
676.59
805.204
431.088
117.984
1350.83
936.87
494.504
139.477
770.965
836.593
441.252
120.904
1479.76
981.151
504.548
139.319
922.793
888.712
452.929
122.839
1688.69
1042.23
528.678
150.072
1139.82
961.168
474.665
129.381
2015.34
1130.39
567.678
169.347
1443.49
1041.41
496.488
134.99
2308.06
1242.17
591.396
165.081
1624.07
1150.8
539.18
142.961
2238.63
1195.47
576.745
164.468
1594.22
1110.2
518.017
138.744
2326.79
1269.12
591.59
156.95
1627.33
1177.96
547.748
142.278
2305.81
1292.05
602.977
158.574
1684.11
1202.12
558.533
144.145
147.842
65.7551
27.9175
10.8688
2.79878
152.75
66.7378
28.1124
10.9105
2.80643
150.032
66.2332
28.0972
10.9353
2.81515
155.698
67.4193
28.3642
11.0014
2.82854
149.993
66.5104
28.2713
11.0051
2.83258
155.885
68.319
28.7531
11.1405
2.86191
161.615
70.207
29.4131
11.3583
2.91255
163.072
71.5942
29.9792
11.5553
2.95936
155.352
68.323
28.8856
11.206
2.87913
148.503
67.4918
28.7835
11.1955
2.87862
148.104
66.8877
28.4807
11.0838
2.85171
144.986
66.7077
28.551
11.1233
2.86223
158.873
69.6397
29.3191
11.3444
2.91088
150.694
68.618
29.1827
11.3263
2.90891
160.589
71.0908
29.9219
11.5565
2.96151
152.49
69.975
29.7596
11.5318
2.95815
139.942
64.3199
27.6534
10.8155
2.78936
131.985
63.2089
27.4693
10.7803
2.78334
140.648
64.6393
27.7846
10.8643
2.80139
133.059
63.5747
27.5982
10.825
2.79407
141.007
64.9945
27.954
10.9278
2.81693
135.035
64.1162
27.7839
10.8879
2.80899
141.561
65.5515
28.1822
11.0066
2.83553
138.187
65.0071
28.048
10.9691
2.82738
141.331
66.1085
28.3735
11.0682
2.84969
16475.5
25782.8
16991.3
25956.5
17763.8
26144.3
18679.9
27035.1
19397.2
28803.2
16503
20167.6
17462.4
22457.7
16160.5
19532.6
15936.1
19338.7
13723.6
2507.46
573.536
135.972
25.3076
16274.1
4631.61
1172.7
280.42
51.8239
13825.9
2447.63
550.712
129.628
24.0424
16329.1
4593.84
1150.2
272.114
50.2713
13993.4
2395.54
527.99
123.197
22.7878
16462
4553.27
1124.3
264.025
48.6441
14153.6
2316.79
500.562
116.361
21.5713
16634.8
4498.81
1099.64
257.885
47.6302
14101.9
2228.61
481.723