/*--------------------------------*- C++ -*----------------------------------*\
| =========                 |                                                 |
| \\      /  F ield         | OpenFOAM: The Open Source CFD Toolbox           |
|  \\    /   O peration     | Version:  2412                                  |
|   \\  /    A nd           | Website:  www.openfoam.com                      |
|    \\/     M anipulation  |                                                 |
\*---------------------------------------------------------------------------*/
FoamFile
{
    version     2.0;
    format      ascii;
    arch        "LSB;label=32;scalar=64";
    class       volScalarField;
    location    "0.6";
    object      T;
}
// * * * * * * * * * * * * * * * * * * * * * * * * * * * * * * * * * * * * * //

dimensions      [0 0 0 1 0 0 0];

internalField   nonuniform List<scalar> 
5712
(
529.607
551.609
513.236
539.396
491.947
521.664
460.534
492.088
465.483
497.209
494.838
526.59
508.637
537.932
521.782
547.342
479.593
457.141
502.311
468.717
449.5
426.589
470.202
435.963
538.864
546.536
556.638
560.563
525.714
535.725
546.709
552.844
524.393
506.58
490.162
479.397
523.505
539.024
528.105
535.236
479.356
488.46
499.711
506.741
445.941
453.331
541.893
548.566
502.911
515.422
555.263
563.124
551.579
563.718
563.693
569.265
541.379
559.714
556.64
566.605
527.588
552.874
542.159
560.739
551.879
564.282
557.598
566.411
436.853
417.192
447.912
422.924
401.23
384.801
411.366
390.349
480.134
454.569
469.319
448.042
455.074
426.451
458.828
427.919
418.117
393.725
421.509
395.076
487.518
458.603
491.382
460.307
512.934
550.846
489.685
534.406
502.592
544.027
481.948
527.95
519.575
554.099
494.05
537.941
522.853
555.393
495.821
539.904
541.827
522.112
557.811
543.311
529.957
510.243
552.615
536.447
513.176
493.464
543.603
525.759
413.641
374.455
452.767
487.34
530.843
372.552
409.995
444.465
475.695
514.797
371.962
407.159
439.264
470.935
515.093
483.859
448.737
489.617
455.792
477.359
442.795
487.603
453.536
467.113
434.691
483.965
450.42
363.475
346.665
398.81
378.544
429.283
403.795
454.779
425.198
481.016
448.219
362.447
344.688
394.942
374.818
424.049
400.185
451.836
423.719
480.6
447.8
396.901
382.837
398.328
385.473
363.537
341.727
364.178
341.26
429.938
418.661
427.643
414.026
399.156
386.296
400.147
387.519
365.258
341.583
366.392
343.102
430.873
419.817
432.111
421.262
461.47
449.814
491.239
479.717
458.157
443.61
487.818
472.231
462.246
450.903
492.477
482.023
463.083
451.947
492.728
481.879
408.368
374.932
356.674
412.127
377.163
358.53
404.264
370.708
352.606
410.181
374.344
355.246
396.237
362.71
344.772
407.145
369.773
350.135
325.43
309.107
300.665
351.955
327.792
315.028
372.422
342.71
326.715
388.314
355.14
337.458
403.455
364.73
344.303
323.014
306.76
298.15
349.761
326.667
314.211
369.431
340.65
325.083
385.53
351.354
333.171
398.893
360.119
339.873
380.924
365.851
385.208
370.154
412.895
393.357
423.258
400.55
351.434
331.547
352.615
333.166
352.557
332.134
354.159
334.141
351.894
349.11
350.746
344.826
331.176
334.472
372.656
374.961
405.47
409.45
352.703
353.954
352.634
353.434
335.872
336.187
311.655
294.788
316.117
297.036
312.91
294.468
317.165
296.907
313.613
293.926
318.784
297.005
320.661
298.008
321.372
298.503
342.961
330.406
349.927
335.006
368.657
353.568
377.785
359.122
329.929
317.046
323.639
313.334
353.5
337.491
355.167
338.416
382.955
362.219
385.47
363.348
332.686
319.034
333.722
319.788
313.677
294.784
303.825
291.17
308.766
292.4
301.207
289.717
316.108
296.189
305.32
292.019
317.071
296.927
305.977
292.384
297.088
289.278
290.09
285.781
297.981
290.45
289.873
285.903
299.081
292.909
289.564
286.427
322.62
342.621
309.015
300.187
289.012
340.441
319.32
304.058
295.429
286.731
340.699
320.859
306.965
297.431
287.949
284.271
280.664
282.221
279.251
285.715
281.811
282.735
279.776
288.275
284.123
283.63
280.698
332.836
319.468
312.713
302.754
299.731
293.401
291.822
287.124
284.793
281.924
332.604
318.865
314.435
304.339
302.007
294.916
293.502
288.264
286.248
283.284
317.31
305.17
318.604
305.368
334.728
318.099
336.471
317.555
305.503
296.489
304.447
296.028
319.575
305.466
320.458
306.398
338.246
317.018
339.461
318.188
306.192
296.822
306.789
297.459
295.338
289.615
287.767
283.997
295.064
289.023
287.326
283.782
295.448
290.115
287.942
284.098
296.208
290.458
288.118
284.553
277.146
275.221
274.446
275.291
274.102
273.69
278.154
275.877
274.91
275.682
274.358
273.859
279.88
277.014
275.792
276.326
274.742
274.141
304.888
294.398
289.212
293.351
286.502
283.212
286.633
281.825
279.608
281.923
278.393
276.83
277.008
275.187
274.432
303.803
293.117
287.829
293.83
286.276
282.593
287.262
281.866
279.308
282.263
278.609
276.988
277.524
275.521
274.597
282.922
277.264
274.882
273.784
283.71
277.504
274.972
273.808
282.777
277.233
274.885
273.792
283.703
277.523
275.008
273.828
282.508
277.168
274.894
273.805
283.661
277.542
275.05
273.85
284.012
277.688
275.07
273.852
284.24
277.802
275.079
273.851
282.946
277.34
274.973
273.836
281.807
276.991
274.794
273.797
282.072
277.046
274.865
273.813
281.275
276.805
274.725
273.784
283.491
277.541
275.022
273.843
282.176
277.131
274.833
273.804
283.799
277.67
275.055
273.853
282.399
277.228
274.867
273.817
281.596
276.877
274.746
273.751
280.145
276.44
274.57
273.712
281.467
276.843
274.74
273.755
280.135
276.441
274.568
273.717
281.266
276.788
274.73
273.76
280.228
276.475
274.578
273.724
280.974
276.702
274.699
273.765
280.267
276.49
274.588
273.741
280.696
276.62
274.647
273.769
278.956
276.092
274.366
273.673
278.345
275.93
274.272
273.64
279.109
276.141
274.386
273.682
278.516
275.985
274.292
273.648
279.368
276.224
274.416
273.695
278.814
276.081
274.322
273.662
279.709
276.329
274.466
273.718
279.222
276.208
274.369
273.681
280.183
276.47
274.526
273.739
279.669
276.344
274.414
273.699
280.819
276.71
274.58
273.76
280.288
276.588
274.487
273.728
280.553
276.597
274.556
273.751
280.055
276.481
274.455
273.715
280.993
276.799
274.591
273.765
280.449
276.674
274.503
273.736
281.136
276.875
274.613
273.775
280.595
276.746
274.524
273.746
273.317
273.133
273.054
273.021
273.01
273.321
273.134
273.054
273.021
273.01
273.319
273.134
273.054
273.021
273.01
273.324
273.135
273.054
273.021
273.01
273.32
273.135
273.054
273.022
273.01
273.328
273.137
273.055
273.022
273.01
273.337
273.14
273.056
273.022
273.01
273.343
273.142
273.057
273.022
273.011
273.328
273.137
273.055
273.022
273.01
273.325
273.137
273.055
273.022
273.01
273.322
273.136
273.055
273.022
273.01
273.322
273.136
273.055
273.022
273.01
273.334
273.139
273.056
273.022
273.01
273.33
273.139
273.056
273.022
273.01
273.341
273.142
273.057
273.022
273.011
273.337
273.141
273.057
273.022
273.011
273.311
273.132
273.053
273.021
273.01
273.306
273.131
273.053
273.021
273.01
273.312
273.132
273.054
273.021
273.01
273.308
273.132
273.053
273.021
273.01
273.314
273.133
273.054
273.021
273.01
273.31
273.133
273.054
273.021
273.01
273.316
273.134
273.054
273.022
273.01
273.314
273.134
273.054
273.021
273.01
273.319
273.135
273.055
273.022
273.01
504.447
495.369
504.159
495.218
503.558
494.903
503.015
494.343
503.389
494.468
508.503
504.06
506.15
500.203
509.759
505.702
510.468
506.44
558.141
569.575
572.165
572.785
572.926
545.722
566.091
571.318
572.576
572.86
558.552
569.721
572.206
572.796
572.93
546.002
566.242
571.364
572.59
572.865
558.897
569.863
572.246
572.806
572.934
546.295
566.404
571.414
572.604
572.869
559.382
570.026
572.287
572.816
572.936
546.62
566.544
571.448
572.609
572.869
559.89
570.132
572.302
572.815
572.934
547.034
566.605
571.44
572.598
572.862
558.454
569.424
572.059
572.733
572.897
547.239
566.053
571.175
572.495
572.813
558.994
569.739
572.175
572.774
572.916
547.077
566.32
571.312
572.55
572.839
558.085
569.211
571.976
572.702
572.883
547.33
565.895
571.084
572.455
572.792
558.351
569.252
571.975
572.697
572.879
547.584
565.909
571.065
572.441
572.784
387.619
432.264
429.301
385.976
366.713
368.724
374.578
378.105
388.526
392.406
418.127
427.103
423.696
432.376
398.161
401.42
387.831
390.747
378.322
380.611
320.87
305.399
277.103
275.475
275.979
275.356
276.57
316.15
306.796
295.799
295.239
289.209
282.449
287.262
282.951
279.852
280.649
278.969
313.816
292.684
282.075
281.565
285.294
283.509
280.252
279.568
277.594
277.094
279.283
279.15
315.853
298.535
302.827
290.724
286.353
293.817
280.266
277.337
281.292
308.4
298.454
291.179
284.749
277.39
298.337
291.933
286.373
281.262
275.85
276.562
275.878
275.085
274.256
273.419
275.165
274.764
274.287
273.779
273.26
275.604
275.119
274.544
273.932
273.311
275.064
274.684
274.23
273.744
273.249
276.109
275.52
274.83
274.103
273.368
305.348
295.705
288.807
282.952
276.811
297.745
290.23
284.774
280.163
275.516
291.019
286.368
282.242
278.539
274.885
289.373
284.406
280.693
277.561
274.594
285.056
281.385
278.619
276.292
274.118
280.889
279.129
277.312
275.556
273.849
284.515
281.688
279.012
276.553
274.188
281.151
279.22
277.319
275.54
273.842
278.822
277.598
276.269
274.945
273.645
279.43
278.025
276.544
275.099
273.696
278.101
277.051
275.89
274.722
273.571
304.037
295.086
288.542
282.828
276.717
288.982
285.118
281.475
278.085
274.713
280.659
279.01
277.26
275.537
273.843
280.269
278.736
277.083
275.437
273.811
283.258
280.968
278.625
276.358
274.121
281.888
279.985
277.964
275.964
273.985
279.216
277.953
276.552
275.128
273.708
278.64
277.502
276.231
274.935
273.643
276.975
276.199
275.307
274.384
273.46
276.555
275.871
275.079
274.25
273.416
278.38
277.282
276.063
274.829
273.608
278.282
277.218
276.026
274.811
273.602
305.175
296.098
289.442
283.532
276.942
293.425
288.447
283.904
279.659
275.278
297.02
290.498
285.258
280.474
275.393
287.678
284.31
280.989
277.796
274.595
284.212
281.744
279.194
276.701
274.228
290.015
285.876
282.018
278.409
274.774
279.224
277.956
276.552
275.126
273.707
276.76
276.032
275.193
274.318
273.439
280.062
278.589
276.988
275.383
273.792
473.769
531.679
463.337
518.226
435.084
493.596
444.383
508.121
451.491
436.945
491.462
458.887
423.092
407.746
459.9
426.487
495.89
515.466
542.302
550.208
487.822
507.393
533.331
543.002
513.372
479.801
480.94
460.455
501.122
529.876
524.247
534.325
474.533
487.142
495.47
505.541
441.033
451.837
538.335
547.811
498.739
514.355
552.702
562.703
534.235
557.903
557.573
567.222
524.669
554.365
550.362
564.567
513.876
548.575
535.668
558.611
549.393
563.388
557.076
566.207
427.818
413.355
441.836
419.806
393.864
382.369
405.98
387.812
474.335
451.568
460.327
443.952
451.804
424.523
457.868
427.249
415.043
392.024
420.573
394.466
484.507
456.811
490.506
459.693
508.371
549.252
487.435
533.531
495.082
541.404
478.691
526.756
517.289
553.284
492.738
537.425
522.203
555.155
495.375
539.734
515.378
493.797
549.16
533.968
505.391
484.712
545.14
528.638
493.811
474.547
538.002
520.496
412.529
380.547
445.626
478.205
527.642
380.084
409.177
436.344
465.273
511.558
376.391
406.179
435.202
466.823
513.803
460.337
434.027
481.457
456.057
455.892
429.536
481.261
454.834
450.91
425.519
480.41
453.309
369.919
354.897
397.748
380.146
422.6
401.422
447.19
423.23
479.526
452.059
366.789
350.38
395.195
378.52
422.088
403.072
450.006
427.149
480.569
452.203
396.092
383.658
397.254
385.248
364.487
344.137
363.918
341.984
428.584
418.054
426.055
414.167
398.333
385.884
399.838
387.34
364.763
341.586
366.173
343.045
429.965
419.238
431.784
421.036
460.365
449.198
490.609
479.337
456.795
443.771
487.288
472.701
461.505
450.331
492.007
481.614
462.8
451.721
492.569
481.727
414.469
404.265
433.691
423.233
409.798
398.469
431.625
418.927
405.159
392.744
428.354
412.152
340.396
331.869
364.148
352.93
383.696
370.354
402.288
387.493
423.975
404.129
333.017
325.436
362.089
351.239
383.414
369.531
401.824
384.3
417.722
397.251
361.736
353.659
373.796
362.934
390.58
377.872
412.629
392.038
342.008
324.647
347.844
328.734
340.624
325.009
347.259
329.536
345.404
338.184
345.611
337.009
325.232
330.432
368.451
373.6
400.684
407.887
348.828
352.62
349.445
352.324
333.254
335.241
312.541
297.428
314.857
298.247
313.41
296.917
315.727
297.892
314.006
296.109
317.394
297.715
319.434
298.255
320.883
298.55
340.572
331.653
346.933
334.584
363.823
353.212
373.497
357.641
328.518
317.483
323.806
315.531
351.479
336.864
354.505
338.145
380.298
361.014
384.627
362.888
331.482
318.937
333.291
319.699
313.659
295.64
304.708
292.137
310.716
294.396
303.59
291.602
315.685
296.498
305.568
292.452
316.878
296.996
306.017
292.505
308.847
305.944
295.723
293.644
309.363
306.46
295.069
293.055
309.233
306.488
294.107
292.268
333.056
353.246
318.062
307.175
292.755
353.549
333.021
316.895
305.445
291.6
349.009
328.988
313.722
302.614
291.058
303.078
299.387
291.098
287.265
303.662
299.992
290.726
287.098
303.645
299.776
290.155
286.767
345.077
333.094
326.752
317.999
313.131
307.624
302.593
298.295
289.978
286.902
340.489
326.867
322.9
312.888
309.399
302.394
299.24
294.006
289.719
286.918
320.623
308.78
319.674
306.771
337.432
321.568
337.082
318.838
306.777
297.837
307.717
299.281
319.764
305.849
320.454
306.464
338.141
317.296
339.356
318.216
306.57
297.243
306.858
297.548
296.542
290.742
288.78
284.855
297.859
291.605
289.318
285.574
295.907
290.523
288.386
284.44
296.326
290.56
288.232
284.638
296.048
294.455
281.118
280.229
297.216
295.193
281.262
280.285
296.214
293.435
281.289
280.075
322.159
315.599
310.32
305.632
301.922
298.341
293.721
290.76
281.313
279.763
313.922
308.619
303.469
299.409
295.325
292.279
288.252
286.293
280.617
279.262
284.478
277.959
275.182
273.905
284.83
278.074
275.238
273.921
284.227
277.884
275.167
273.905
284.657
278.02
275.245
273.929
283.797
277.75
275.15
273.909
284.397
277.935
275.242
273.932
284.424
277.929
275.189
273.901
284.372
277.884
275.121
273.869
283.584
277.666
275.13
273.905
282.416
277.288
274.933
273.862
283.153
277.535
275.084
273.904
282.278
277.254
274.918
273.866
283.823
277.728
275.118
273.888
282.495
277.299
274.916
273.846
283.902
277.731
275.087
273.868
282.498
277.282
274.894
273.831
283.853
277.754
275.093
273.885
283.045
277.5
274.954
273.858
283.591
277.68
275.072
273.883
282.839
277.447
274.934
273.857
283.179
277.557
275.037
273.88
282.538
277.365
274.908
273.854
282.596
277.368
274.969
273.873
282.25
277.274
274.882
273.858
282.107
277.21
274.882
273.866
282.222
277.276
274.759
273.834
281.692
277.164
274.674
273.81
282.111
277.249
274.76
273.836
281.591
277.137
274.672
273.81
281.923
277.198
274.752
273.836
281.432
277.091
274.662
273.809
281.793
277.146
274.759
273.842
281.343
277.045
274.661
273.81
281.703
277.095
274.765
273.846
281.27
276.997
274.654
273.809
281.438
277.011
274.708
273.823
280.898
276.888
274.611
273.789
281.585
277.055
274.741
273.837
281.097
276.946
274.636
273.801
281.31
276.966
274.665
273.803
280.752
276.837
274.573
273.771
281.231
276.928
274.637
273.788
280.683
276.797
274.547
273.757
273.361
273.15
273.06
273.023
273.011
273.363
273.15
273.06
273.023
273.011
273.36
273.149
273.059
273.023
273.011
273.361
273.149
273.059
273.023
273.011
273.357
273.148
273.059
273.023
273.011
273.358
273.148
273.059
273.023
273.011
273.355
273.147
273.058
273.023
273.011
273.35
273.145
273.058
273.023
273.011
273.354
273.147
273.059
273.023
273.011
273.35
273.147
273.059
273.023
273.011
273.354
273.148
273.059
273.023
273.011
273.351
273.147
273.059
273.023
273.011
273.352
273.146
273.058
273.023
273.011
273.348
273.146
273.058
273.023
273.011
273.347
273.144
273.058
273.023
273.011
273.343
273.144
273.058
273.023
273.011
273.358
273.149
273.06
273.023
273.011
273.355
273.149
273.06
273.023
273.011
273.356
273.149
273.059
273.023
273.011
273.354
273.149
273.059
273.023
273.011
273.355
273.148
273.059
273.023
273.011
273.353
273.148
273.059
273.023
273.011
273.353
273.148
273.059
273.023
273.011
273.352
273.148
273.059
273.023
273.011
273.351
273.147
273.059
273.023
273.011
501.313
494.127
501.71
494.526
502.17
495.046
502.519
495.158
503.399
495.56
508.191
503.807
505.978
500.375
509.488
505.427
510.368
506.335
557.716
569.495
572.147
572.78
572.925
545.169
565.941
571.281
572.568
572.858
558.218
569.655
572.19
572.792
572.929
545.587
566.118
571.332
572.583
572.863
558.698
569.817
572.234
572.803
572.933
546.089
566.319
571.389
572.597
572.867
559.301
570
572.279
572.813
572.935
546.595
566.494
571.43
572.604
572.868
559.871
570.117
572.296
572.814
572.933
547.086
566.576
571.427
572.595
572.861
558.395
569.408
572.054
572.732
572.897
547.141
566.022
571.166
572.492
572.812
558.958
569.724
572.17
572.772
572.916
547.049
566.291
571.302
572.547
572.838
558.031
569.198
571.972
572.701
572.882
547.237
565.87
571.077
572.453
572.792
558.331
569.247
571.974
572.697
572.879
547.549
565.9
571.062
572.441
572.784
385.771
430.358
423.416
380.009
366.602
375.774
364.563
375.602
396.904
419.984
401.457
423.405
273.097
273.144
273.257
273.478
273.872
274.536
273.134
273.192
273.326
273.577
274.01
274.72
273.071
273.059
273.11
273.094
273.21
273.185
273.418
273.386
273.805
273.781
274.474
274.472
275.602
277.368
280.406
285.638
290.783
294.8
275.849
277.589
280.145
283.481
286.691
288.824
273.087
273.072
273.054
273.033
273.011
273.128
273.107
273.079
273.049
273.016
273.229
273.19
273.141
273.086
273.029
273.424
273.35
273.259
273.158
273.053
273.77
273.634
273.467
273.284
273.095
274.35
274.106
273.811
273.492
273.165
273.12
273.099
273.074
273.045
273.015
273.17
273.141
273.105
273.064
273.022
273.289
273.239
273.177
273.108
273.036
273.51
273.42
273.31
273.189
273.063
273.889
273.73
273.537
273.326
273.109
274.509
274.234
273.903
273.547
273.183
273.063
273.053
273.04
273.024
273.008
273.053
273.044
273.033
273.02
273.007
273.098
273.082
273.061
273.037
273.013
273.084
273.07
273.052
273.032
273.011
273.186
273.155
273.115
273.071
273.024
273.165
273.137
273.102
273.062
273.021
273.37
273.307
273.227
273.139
273.047
273.343
273.284
273.21
273.129
273.043
273.711
273.586
273.433
273.264
273.088
273.691
273.57
273.421
273.257
273.086
274.297
274.064
273.781
273.474
273.159
274.296
274.063
273.781
273.474
273.159
275.275
274.852
274.351
273.817
273.273
276.79
276.06
275.217
274.335
273.445
279.354
278.072
276.645
275.188
273.729
283.661
281.378
278.968
276.579
274.194
287.739
284.436
281.114
277.888
274.643
290.831
286.714
282.712
278.877
274.985
275.487
275.021
274.472
273.89
273.297
276.98
276.213
275.327
274.402
273.467
279.148
277.923
276.545
275.13
273.71
281.936
280.094
278.081
276.048
274.016
284.572
282.122
279.51
276.907
274.305
286.299
283.436
280.435
277.467
274.495
273.099
273.148
273.268
273.5
273.914
274.61
273.136
273.197
273.337
273.598
274.046
274.779
273.072
273.06
273.114
273.097
273.219
273.194
273.44
273.408
273.855
273.837
274.579
274.618
275.722
277.535
280.609
285.813
290.883
294.828
275.934
277.698
280.264
283.584
286.756
288.845
273.088
273.073
273.055
273.034
273.011
273.132
273.11
273.082
273.05
273.017
273.238
273.197
273.146
273.09
273.03
273.443
273.366
273.271
273.166
273.056
273.808
273.666
273.491
273.299
273.1
274.418
274.163
273.855
273.52
273.174
273.121
273.101
273.075
273.046
273.015
273.175
273.145
273.108
273.066
273.022
273.299
273.247
273.183
273.112
273.038
273.529
273.437
273.323
273.197
273.066
273.923
273.759
273.558
273.34
273.114
274.563
274.279
273.938
273.569
273.191
273.064
273.054
273.04
273.025
273.008
273.053
273.045
273.033
273.021
273.007
273.102
273.085
273.063
273.039
273.013
273.087
273.072
273.054
273.033
273.011
273.195
273.162
273.12
273.074
273.025
273.172
273.143
273.107
273.066
273.022
273.39
273.323
273.24
273.147
273.049
273.363
273.301
273.223
273.137
273.046
273.756
273.624
273.461
273.281
273.094
273.741
273.612
273.453
273.276
273.093
274.391
274.143
273.841
273.512
273.171
274.427
274.173
273.864
273.526
273.176
275.383
274.944
274.421
273.861
273.288
276.942
276.191
275.318
274.399
273.467
279.543
278.237
276.774
275.27
273.757
283.831
281.532
279.094
276.662
274.223
287.844
284.538
281.201
277.948
274.665
290.864
286.748
282.742
278.899
274.993
275.565
275.088
274.523
273.922
273.308
277.08
276.299
275.394
274.444
273.482
279.26
278.022
276.623
275.179
273.727
282.035
280.184
278.154
276.095
274.033
284.637
282.182
279.56
276.941
274.317
286.321
283.457
280.453
277.479
274.499
320.883
305.432
277.384
275.656
276.496
275.672
276.993
319.384
313.87
299.415
304.916
285.075
291.314
282.059
284.054
281.104
315.173
294.384
283.758
282.728
286.634
284.309
280.653
280.29
278.981
278.036
280.752
280.181
316.052
298.706
303.578
291.091
286.914
294.835
280.854
277.963
282.184
308.452
298.527
291.256
284.817
277.42
298.386
291.989
286.427
281.304
275.866
276.817
276.094
275.25
274.359
273.454
275.328
274.902
274.392
273.844
273.282
276.065
275.504
274.832
274.11
273.371
275.347
274.92
274.407
273.854
273.286
276.489
275.839
275.071
274.253
273.419
308.787
298.893
291.473
284.826
277.547
304.684
296.129
289.479
283.38
276.751
294.43
289.336
284.582
280.08
275.439
298.414
291.646
286.209
281.192
275.964
283.258
281.122
278.822
276.507
274.177
288.216
284.814
281.406
278.086
274.729
280.791
279.24
277.5
275.711
273.907
282.441
280.511
278.396
276.249
274.088
280
278.629
277.071
275.453
273.82
305.537
296.546
289.807
283.738
277.082
290.596
286.544
282.609
278.829
274.977
282.183
280.301
278.243
276.156
274.056
281.326
279.637
277.772
275.872
273.96
284.496
282.038
279.456
276.89
274.305
282.625
280.624
278.46
276.281
274.094
279.584
278.271
276.798
275.285
273.762
279.294
278.058
276.654
275.2
273.734
278.205
277.217
276.066
274.852
273.619
277.393
276.568
275.598
274.57
273.525
279.696
278.386
276.895
275.347
273.784
279.211
278.001
276.618
275.181
273.728
305.474
296.423
289.75
283.774
277.047
293.618
288.641
284.076
279.781
275.324
297.813
291.247
285.892
280.912
275.544
288.04
284.644
281.262
277.979
274.659
284.741
282.213
279.566
276.943
274.312
291.002
286.763
282.734
278.884
274.94
279.761
278.415
276.904
275.349
273.783
277.321
276.503
275.548
274.539
273.514
280.874
279.284
277.52
275.719
273.908
274.303
276.876
279.436
281.992
284.39
286.447
445.099
438.196
411.253
417.84
428.139
419.476
402.033
391.491
469.494
492.819
463.981
486.144
456.646
444.379
479.358
429.459
424.614
399.464
404.295
416.587
410.467
392.099
384.325
451.952
469.363
448.515
465.044
442.714
433.056
460.215
407.387
404.714
382.537
385.49
399.554
396.619
377.563
372.635
426.795
443.204
424.971
440.842
421.9
416.047
438.021
384.794
383.321
364.35
366.231
380.033
378.622
360.89
357.35
402.517
418.494
401.503
416.566
399.401
394.929
414.266
368.447
367.369
350.97
352.452
364.488
362.985
347.982
344.294
384.217
398.472
383.613
397.62
381.907
377.739
395.601
357.271
356.314
341.878
343.187
353.611
352.053
339.173
335.775
371.08
385.202
370.52
384.716
369.039
365.081
382.515
357.388
354.58
381.629
385.904
350.971
344.069
375.47
365.822
335.036
317.636
333.107
317.424
328.856
327.793
317.029
351.467
348.857
373.271
376.77
345.531
339.307
367.94
359.774
329.125
314.923
327.211
314.996
323.631
323.059
314.617
342.555
340.397
360.73
363.234
337.639
332.743
356.719
350.749
325.299
312.807
323.776
312.463
320.807
320.293
311.705
332.381
330.538
346.61
348.453
327.781
323.199
343.423
338.162
319.458
309.66
318
308.766
315.219
314.146
307.395
324.766
323.144
336.155
337.692
320.743
316.6
333.359
328.551
314.695
307.371
313.22
305.838
310.487
308.909
303.82
319.718
318.225
329.103
330.481
316.043
312.186
326.564
322.229
311.956
305.29
310.446
303.379
307.378
305.461
301.106
530.431
552.158
513.235
539.359
491.949
521.651
460.538
492.087
465.494
497.21
494.854
526.583
508.665
537.919
522.851
548.066
479.59
457.137
502.303
468.712
449.501
426.587
470.201
435.961
539.471
547.005
557.016
560.85
525.702
535.701
546.666
552.803
524.376
506.569
490.154
479.39
523.487
539.003
528.102
535.235
479.353
488.457
499.71
506.741
445.939
453.329
541.887
548.564
502.906
515.42
555.258
563.122
551.964
563.898
563.928
569.364
541.347
559.706
556.605
566.595
527.57
552.868
542.144
560.734
551.874
564.28
557.596
566.41
436.849
417.189
447.908
422.921
401.228
384.799
411.364
390.347
480.128
454.565
469.313
448.038
455.071
426.448
458.825
427.917
418.115
393.723
421.507
395.075
487.514
458.6
491.379
460.304
512.927
550.843
489.681
534.405
502.584
544.023
481.944
527.949
519.571
554.097
494.047
537.94
522.85
555.392
495.819
539.903
542.218
522.468
558.036
543.556
529.912
510.189
552.603
536.429
513.153
493.443
543.596
525.754
413.637
374.453
452.76
487.33
530.84
372.549
409.991
444.459
475.684
514.794
371.96
407.156
439.259
470.929
515.092
484.117
448.903
489.801
455.899
477.34
442.769
487.623
453.547
467.101
434.681
483.969
450.425
363.473
346.664
398.806
378.541
429.278
403.792
454.772
425.193
481.016
448.22
362.445
344.686
394.939
374.816
424.045
400.183
451.833
423.717
480.599
447.8
396.898
382.835
398.326
385.472
363.536
341.725
364.176
341.259
429.936
418.659
427.64
414.023
399.153
386.295
400.145
387.518
365.256
341.581
366.391
343.1
430.871
419.816
432.109
421.26
461.468
449.812
491.237
479.716
458.155
443.608
487.817
472.23
462.244
450.901
492.476
482.022
463.081
451.945
492.727
481.878
408.515
375.085
356.842
412.214
377.276
358.665
404.252
370.699
352.603
410.187
374.347
355.251
396.232
362.707
344.771
407.147
369.774
350.137
325.429
309.107
300.665
351.953
327.791
315.027
372.42
342.708
326.714
388.312
355.139
337.457
403.456
364.73
344.303
323.012
306.759
298.15
349.76
326.666
314.21
369.429
340.648
325.082
385.528
351.353
333.171
398.892
360.119
339.873
380.93
365.853
385.214
370.155
412.899
393.358
423.262
400.551
351.289
331.487
352.441
333.089
352.54
332.119
354.14
334.127
351.888
349.104
350.745
344.824
331.169
334.466
372.656
374.961
405.47
409.449
352.701
353.954
352.633
353.435
335.87
336.187
311.61
294.785
316.066
297.034
312.906
294.46
317.16
296.901
313.609
293.922
318.779
297.002
320.659
298.006
321.371
298.502
342.961
330.405
349.926
335.006
368.657
353.567
377.784
359.121
329.928
317.045
323.637
313.333
353.5
337.49
355.167
338.415
382.955
362.218
385.469
363.347
332.685
319.033
333.722
319.787
313.676
294.782
303.824
291.169
308.764
292.398
301.205
289.716
316.107
296.188
305.319
292.019
317.071
296.927
305.976
292.384
297.057
289.234
290.085
285.764
297.98
290.453
289.867
285.899
299.079
292.909
289.561
286.425
322.619
342.619
309.014
300.185
289.01
340.44
319.319
304.058
295.429
286.73
340.698
320.858
306.964
297.43
287.947
284.224
280.621
282.206
279.236
285.72
281.816
282.736
279.779
288.276
284.124
283.63
280.699
332.835
319.467
312.712
302.753
299.73
293.401
291.822
287.124
284.792
281.924
332.603
318.863
314.434
304.338
302.006
294.915
293.501
288.264
286.247
283.284
317.309
305.169
318.603
305.368
334.727
318.098
336.47
317.554
305.503
296.489
304.446
296.027
319.575
305.466
320.457
306.398
338.245
317.017
339.46
318.187
306.192
296.821
306.788
297.459
295.337
289.614
287.766
283.996
295.063
289.023
287.326
283.782
295.447
290.115
287.942
284.097
296.208
290.458
288.118
284.553
277.116
275.201
274.431
275.287
274.098
273.686
278.159
275.881
274.912
275.685
274.36
273.86
279.882
277.016
275.793
276.328
274.743
274.142
304.887
294.398
289.212
293.351
286.502
283.212
286.633
281.825
279.608
281.924
278.394
276.83
277.008
275.187
274.432
303.802
293.116
287.829
293.83
286.276
282.592
287.262
281.866
279.308
282.263
278.609
276.988
277.524
275.522
274.597
282.926
277.265
274.881
273.783
283.712
277.503
274.971
273.808
282.775
277.233
274.885
273.792
283.702
277.523
275.008
273.828
282.507
277.167
274.894
273.805
283.66
277.541
275.05
273.85
284.011
277.688
275.07
273.852
284.239
277.802
275.079
273.851
282.945
277.34
274.973
273.836
281.807
276.99
274.794
273.796
282.071
277.045
274.865
273.812
281.275
276.804
274.725
273.784
283.491
277.541
275.022
273.843
282.175
277.131
274.833
273.804
283.799
277.67
275.054
273.853
282.399
277.227
274.867
273.817
281.599
276.878
274.746
273.751
280.144
276.44
274.57
273.712
281.465
276.843
274.74
273.755
280.134
276.441
274.568
273.717
281.264
276.788
274.729
273.76
280.227
276.474
274.578
273.724
280.973
276.701
274.699
273.765
280.267
276.49
274.588
273.741
280.696
276.62
274.647
273.769
278.955
276.092
274.366
273.673
278.341
275.929
274.272
273.64
279.11
276.141
274.386
273.682
278.517
275.985
274.292
273.648
279.368
276.224
274.416
273.695
278.814
276.081
274.322
273.662
279.709
276.328
274.466
273.718
279.222
276.207
274.369
273.681
280.182
276.47
274.526
273.739
279.669
276.343
274.414
273.699
280.819
276.71
274.58
273.76
280.287
276.587
274.487
273.728
280.553
276.597
274.556
273.751
280.055
276.481
274.455
273.715
280.993
276.799
274.59
273.765
280.449
276.674
274.503
273.736
281.136
276.875
274.613
273.775
280.594
276.746
274.524
273.746
273.317
273.133
273.054
273.021
273.01
273.321
273.134
273.054
273.021
273.01
273.319
273.134
273.054
273.021
273.01
273.324
273.135
273.054
273.021
273.01
273.32
273.135
273.054
273.022
273.01
273.328
273.137
273.055
273.022
273.01
273.337
273.14
273.056
273.022
273.01
273.343
273.142
273.057
273.022
273.011
273.328
273.137
273.055
273.022
273.01
273.325
273.137
273.055
273.022
273.01
273.322
273.136
273.055
273.022
273.01
273.322
273.136
273.055
273.022
273.01
273.334
273.139
273.056
273.022
273.01
273.33
273.139
273.056
273.022
273.01
273.341
273.142
273.057
273.022
273.011
273.337
273.141
273.057
273.022
273.011
273.311
273.132
273.053
273.021
273.01
273.306
273.131
273.053
273.021
273.01
273.312
273.132
273.054
273.021
273.01
273.308
273.132
273.053
273.021
273.01
273.314
273.133
273.054
273.021
273.01
273.31
273.133
273.054
273.021
273.01
273.316
273.134
273.054
273.022
273.01
273.314
273.134
273.054
273.021
273.01
273.319
273.135
273.055
273.022
273.01
504.511
495.438
504.189
495.247
503.572
494.917
503.022
494.349
503.391
494.471
508.503
504.059
506.15
500.203
509.759
505.701
510.468
506.439
558.205
569.592
572.17
572.786
572.927
545.761
566.102
571.321
572.577
572.86
558.577
569.73
572.209
572.797
572.931
546.03
566.253
571.368
572.591
572.865
558.907
569.866
572.248
572.807
572.934
546.309
566.41
571.416
572.604
572.869
559.385