/*--------------------------------*- C++ -*----------------------------------*\
| =========                 |                                                 |
| \\      /  F ield         | OpenFOAM: The Open Source CFD Toolbox           |
|  \\    /   O peration     | Version:  2412                                  |
|   \\  /    A nd           | Website:  www.openfoam.com                      |
|    \\/     M anipulation  |                                                 |
\*---------------------------------------------------------------------------*/
FoamFile
{
    version     2.0;
    format      ascii;
    arch        "LSB;label=32;scalar=64";
    class       volScalarField;
    location    "40/leftSolid";
    object      T;
}
// * * * * * * * * * * * * * * * * * * * * * * * * * * * * * * * * * * * * * //

dimensions      [0 0 0 1 0 0 0];

internalField   nonuniform List<scalar> 
130
(
300.00015
300.00019
300.00028
300.00045
300.00071
300.0011
300.00166
300.00243
300.00343
300.00466
300.00601
300.00733
300.00834
300.00017
300.00022
300.00033
300.00053
300.00086
300.00136
300.00211
300.00318
300.00465
300.00654
300.00879
300.01116
300.01311
300.0002
300.00027
300.00041
300.00068
300.00112
300.00183
300.00293
300.00459
300.00701
300.01039
300.01485
300.02019
300.0254
300.00024
300.00032
300.0005
300.00084
300.00141
300.00236
300.00389
300.0063
300.01005
300.01575
300.02416
300.03597
300.05067
300.00026
300.00035
300.00056
300.00094
300.00161
300.00272
300.00457
300.00758
300.01248
300.02041
300.03332
300.05452
300.08868
300.00026
300.00035
300.00056
300.00094
300.00161
300.00272
300.00457
300.00758
300.01248
300.02041
300.03332
300.05452
300.08868
300.00024
300.00032
300.0005
300.00084
300.00141
300.00236
300.00389
300.0063
300.01005
300.01575
300.02416
300.03597
300.05067
300.0002
300.00027
300.00041
300.00068
300.00112
300.00183
300.00293
300.00459
300.00701
300.01039
300.01485
300.02019
300.0254
300.00017
300.00022
300.00033
300.00053
300.00086
300.00136
300.00211
300.00318
300.00465
300.00654
300.00879
300.01116
300.01311
300.00015
300.00019
300.00028
300.00045
300.00071
300.0011
300.00166
300.00243
300.00343
300.00466
300.00601
300.00733
300.00834
)
;

boundaryField
{
    minX
    {
        type            zeroGradient;
    }
    minZ
    {
        type            zeroGradient;
    }
    maxZ
    {
        type            zeroGradient;
    }
    leftSolid_to_bottomWater
    {
        type            compressible::turbulentTemperatureRadCoupledMixed;
        refValue        nonuniform List<scalar> 
130
(
300
300
300.00001
300.00001
300.00002
300.00002
300.00004
300.00006
300.00009
300.00013
300.00017
300.00031
300.00445
300
300.00001
300.00001
300.00001
300.00002
300.00003
300.00005
300.00008
300.00012
300.00018
300.00028
300.00116
300.02025
300
300.00001
300.00001
300.00002
300.00003
300.00004
300.00007
300.00012
300.00019
300.00031
300.00066
300.00858
300.20485
300
300.00001
300.00001
300.00002
300.00003
300.00006
300.0001
300.00017
300.00029
300.0005
300.00174
300.04491
301.30915
300
300.00001
300.00001
300.00002
300.00004
300.00007
300.00012
300.00021
300.00037
300.0007
300.00407
300.14733
305.54747
300
300.00001
300.00001
300.00002
300.00004
300.00007
300.00012
300.00021
300.00037
300.0007
300.00407
300.14733
305.54746
300
300.00001
300.00001
300.00002
300.00003
300.00006
300.0001
300.00017
300.00029
300.0005
300.00174
300.04491
301.30915
300
300.00001
300.00001
300.00002
300.00003
300.00004
300.00007
300.00012
300.00019
300.00031
300.00066
300.00858
300.20485
300
300.00001
300.00001
300.00001
300.00002
300.00003
300.00005
300.00008
300.00012
300.00018
300.00028
300.00116
300.02025
300
300
300.00001
300.00001
300.00002
300.00002
300.00004
300.00006
300.00009
300.00013
300.00017
300.00031
300.00445
)
;
        refGradient     uniform 0;
        valueFraction   uniform 0.0075140686;
        source          uniform 0;
        logInterval     -1;
        writePrecision  8;
        updateHeader    1;
        writeToFile     0;
        useUserTime     1;
        kappaMethod     solidThermo;
        value           nonuniform List<scalar> 
130
(
300.00014
300.00019
300.00028
300.00044
300.0007
300.00109
300.00164
300.00241
300.0034
300.00461
300.00595
300.00726
300.00829
300.00016
300.00021
300.00033
300.00053
300.00085
300.00135
300.00209
300.00315
300.0046
300.00648
300.00871
300.01106
300.01314
300.0002
300.00026
300.00041
300.00067
300.00111
300.00181
300.0029
300.00454
300.00694
300.01029
300.01472
300.02007
300.02671
300.00023
300.00031
300.0005
300.00083
300.0014
300.00233
300.00385
300.00624
300.00996
300.01561
300.02395
300.03598
300.06005
300.00025
300.00034
300.00055
300.00093
300.00159
300.00269
300.00452
300.00751
300.01236
300.02023
300.03305
300.05514
300.12959
300.00025
300.00034
300.00055
300.00093
300.00159
300.00269
300.00452
300.00751
300.01236
300.02023
300.03305
300.05514
300.12959
300.00023
300.00031
300.0005
300.00083
300.0014
300.00233
300.00385
300.00624
300.00996
300.01561
300.02395
300.03598
300.06005
300.0002
300.00026
300.00041
300.00067
300.00111
300.00181
300.0029
300.00454
300.00694
300.01029
300.01472
300.02007
300.02671
300.00016
300.00021
300.00033
300.00053
300.00085
300.00135
300.00209
300.00315
300.0046
300.00648
300.00871
300.01106
300.01314
300.00014
300.00019
300.00028
300.00044
300.0007
300.00109
300.00164
300.00241
300.0034
300.00461
300.00595
300.00726
300.00829
)
;
    }
    leftSolid_to_heater
    {
        type            compressible::turbulentTemperatureRadCoupledMixed;
        refValue        nonuniform List<scalar> 10(309.5095 312.8194 320.08141 332.54398 351.7903 351.79033 332.54399 320.0814 312.81938 309.50944);
        refGradient     uniform 0;
        valueFraction   uniform 2.0832466e-05;
        source          uniform 0;
        logInterval     -1;
        thicknessLayers List<scalar> 1(0.001);
        kappaLayers     List<scalar> 1(0.0005);
        writePrecision  8;
        updateHeader    1;
        writeToFile     0;
        useUserTime     1;
        kappaMethod     solidThermo;
        value           nonuniform List<scalar> 10(300.00852 300.01335 300.02578 300.05127 300.08965 300.08965 300.05127 300.02578 300.01335 300.00852);
    }
    leftSolid_to_topAir
    {
        type            compressible::turbulentTemperatureRadCoupledMixed;
        refValue        nonuniform List<scalar> 
130
(
300.00001
300.00001
300.00002
300.00004
300.00007
300.00012
300.00019
300.0003
300.00046
300.00067
300.00097
300.00211
300.02365
300.00001
300.00001
300.00003
300.00005
300.00008
300.00014
300.00022
300.00035
300.00054
300.00081
300.00119
300.00232
300.02322
300.00001
300.00002
300.00003
300.00006
300.00011
300.00018
300.0003
300.00049
300.00078
300.0012
300.00184
300.00365
300.0352
300.00001
300.00002
300.00004
300.00008
300.00013
300.00023
300.00039
300.00065
300.00107
300.00173
300.00279
300.00589
300.05741
300.00001
300.00002
300.00005
300.00008
300.00015
300.00026
300.00045
300.00077
300.0013
300.00216
300.00365
300.00849
300.08973
300.00001
300.00002
300.00005
300.00008
300.00015
300.00026
300.00045
300.00077
300.0013
300.00216
300.00365
300.00849
300.08973
300.00001
300.00002
300.00004
300.00008
300.00013
300.00023
300.00039
300.00065
300.00107
300.00173
300.00279
300.00589
300.05741
300.00001
300.00002
300.00003
300.00006
300.00011
300.00018
300.0003
300.00049
300.00078
300.0012
300.00184
300.00365
300.0352
300.00001
300.00001
300.00003
300.00005
300.00008
300.00014
300.00022
300.00035
300.00054
300.00081
300.00119
300.00232
300.02322
300.00001
300.00001
300.00002
300.00004
300.00007
300.00012
300.00019
300.0003
300.00046
300.00067
300.00097
300.00211
300.02365
)
;
        refGradient     uniform 0;
        valueFraction   uniform 0.00032132529;
        source          uniform 0;
        logInterval     -1;
        writePrecision  8;
        updateHeader    1;
        writeToFile     0;
        useUserTime     1;
        kappaMethod     solidThermo;
        value           nonuniform List<scalar> 
130
(
300.00014
300.00019
300.00028
300.00045
300.00071
300.00109
300.00165
300.00242
300.00342
300.00464
300.00599
300.00731
300.00833
300.00016
300.00022
300.00033
300.00053
300.00086
300.00136
300.0021
300.00317
300.00463
300.00652
300.00877
300.01114
300.01309
300.0002
300.00026
300.00041
300.00068
300.00112
300.00182
300.00292
300.00458
300.00699
300.01037
300.01482
300.02015
300.02536
300.00023
300.00031
300.0005
300.00084
300.00141
300.00235
300.00387
300.00629
300.01003
300.01572
300.02411
300.0359
300.0506
300.00026
300.00035
300.00056
300.00094
300.0016
300.00271
300.00455
300.00756
300.01245
300.02037
300.03325
300.05443
300.08857
300.00026
300.00035
300.00056
300.00094
300.0016
300.00271
300.00455
300.00756
300.01245
300.02037
300.03326
300.05443
300.08857
300.00023
300.00031
300.0005
300.00084
300.00141
300.00235
300.00387
300.00629
300.01003
300.01572
300.02411
300.0359
300.0506
300.0002
300.00026
300.00041
300.00068
300.00112
300.00182
300.00292
300.00458
300.00699
300.01037
300.01482
300.02015
300.02536
300.00016
300.00022
300.00033
300.00053
300.00086
300.00136
300.0021
300.00317
300.00463
300.00652
300.00877
300.01114
300.01309
300.00014
300.00019
300.00028
300.00045
300.00071
300.00109
300.00165
300.00242
300.00342
300.00464
300.00599
300.00731
300.00833
)
;
    }
}


// ************************************************************************* //
