/*--------------------------------*- C++ -*----------------------------------*\
| =========                 |                                                 |
| \\      /  F ield         | OpenFOAM: The Open Source CFD Toolbox           |
|  \\    /   O peration     | Version:  2412                                  |
|   \\  /    A nd           | Website:  www.openfoam.com                      |
|    \\/     M anipulation  |                                                 |
\*---------------------------------------------------------------------------*/
FoamFile
{
    version     2.0;
    format      ascii;
    arch        "LSB;label=32;scalar=64";
    class       volVectorField;
    location    "2.8";
    object      flux;
}
// * * * * * * * * * * * * * * * * * * * * * * * * * * * * * * * * * * * * * //

dimensions      [0 1 -1 1 0 0 0];

internalField   nonuniform List<vector> 
5712
(
(-0.308076 0.501848 0.282991)
(-0.376218 0.275713 0.860335)
(-0.704841 0.875032 0.214469)
(-1.09981 0.57243 0.94178)
(-1.0638 0.842244 0.117554)
(-2.07544 0.715488 0.998607)
(-0.736737 1.24332 0.201071)
(-2.21569 1.53797 1.58455)
(-0.760145 1.89115 0.328969)
(-1.77702 2.39173 1.99031)
(-0.934252 1.00116 0.336841)
(-1.53515 0.878799 1.41036)
(-0.71512 0.616632 0.359277)
(-0.944506 0.424454 1.25265)
(-0.384558 0.40657 0.353917)
(-0.389912 0.231425 1.07537)
(-0.498089 0.837708 0.166455)
(-0.561811 0.760008 0.0897025)
(-0.685215 0.755933 0.501681)
(-0.62044 0.751082 0.235681)
(-0.477759 0.961904 0.155304)
(-0.719642 0.926596 0.071051)
(-0.712838 1.10895 0.541774)
(-0.714478 0.957636 0.217653)
(-0.200904 0.296123 0.216018)
(-0.1448 0.20863 0.158388)
(-0.272566 0.154049 0.63814)
(-0.194268 0.106599 0.46446)
(-0.455169 0.431886 0.144737)
(-0.293111 0.279976 0.113125)
(-0.843449 0.239142 0.642023)
(-0.586043 0.154961 0.48399)
(-0.702967 0.847233 0.324794)
(-0.710958 0.899352 0.117743)
(-0.711303 0.762795 0.244762)
(-0.714771 0.626276 0.0881086)
(-0.161073 0.618654 0.111343)
(-0.145722 0.481022 0.300216)
(-1.64007 0.522127 1.54778)
(-2.02894 0.498151 0.473242)
(-0.871952 0.699398 0.46377)
(-1.16454 0.686219 0.214702)
(-2.11847 1.4188 1.88191)
(-2.60709 1.56162 0.590422)
(-0.98196 1.01969 0.433987)
(-1.20815 1.07672 0.204507)
(-1.22624 0.730911 1.02254)
(-1.60404 0.575285 0.341014)
(-0.976088 0.748732 0.520628)
(-1.35353 0.526276 0.237503)
(-0.559657 0.317996 0.830343)
(-0.71006 0.274056 0.264244)
(-0.113486 0.235822 0.18702)
(-0.0358236 0.345044 0.101566)
(-0.147917 0.117159 0.336024)
(-0.051118 0.157772 0.135424)
(-0.253725 0.312912 0.165195)
(-0.104151 0.461502 0.105066)
(-0.441902 0.196192 0.353065)
(-0.161835 0.266572 0.132626)
(-0.288124 0.320108 0.222532)
(-0.0956474 0.554028 0.141549)
(-0.293443 0.243628 0.220869)
(-0.0829421 0.396699 0.0921354)
(-0.578374 0.0765275 0.396309)
(-0.168186 0.267114 0.142711)
(-0.759024 0.0135968 0.156172)
(-0.237585 0.191533 0.0575348)
(-0.98304 0.723031 0.482468)
(-0.56031 0.870318 0.361271)
(-0.83258 0.755621 0.293444)
(-0.575135 0.859575 0.262161)
(-1.01281 0.914599 0.545358)
(-0.652158 0.934026 0.477324)
(-0.804132 0.928753 0.295974)
(-0.652116 0.908913 0.315725)
(-0.641791 0.670311 0.270175)
(-0.46225 0.810333 0.230331)
(-0.702184 0.672417 0.349513)
(-0.442535 0.80006 0.297476)
(-0.809514 0.755658 0.219201)
(-0.598533 0.851774 0.187962)
(-0.836796 0.740822 0.127809)
(-0.615199 0.845253 0.109488)
(-0.788413 0.933665 0.220026)
(-0.669171 0.894116 0.219467)
(-0.819179 0.932598 0.126414)
(-0.68353 0.885668 0.12644)
(-0.663949 0.628611 0.208885)
(-0.492076 0.811072 0.162709)
(-0.716543 0.573174 0.122505)
(-0.511532 0.807037 0.085778)
(-0.705779 0.685372 0.23094)
(-0.288304 0.728642 0.129777)
(-0.400474 0.863625 0.230559)
(-0.455077 1.19989 0.255785)
(-0.757613 0.716787 0.304638)
(-0.331207 0.836914 0.232264)
(-0.394641 0.857992 0.328218)
(-0.473033 1.30516 0.435822)
(-0.709149 0.649109 0.169673)
(-0.269912 0.647463 0.0723619)
(-0.421388 0.859743 0.148657)
(-0.450643 1.1424 0.154258)
(-0.73386 0.624179 0.0964514)
(-0.272116 0.595574 0.0335501)
(-0.444274 0.858862 0.0682145)
(-0.455903 1.11427 0.0592088)
(-0.109608 0.169318 0.210819)
(-0.122824 0.21232 0.429316)
(-0.038421 0.460307 0.154808)
(-0.0751585 0.743918 0.486514)
(-0.316339 0.20412 0.227883)
(-0.3705 0.227317 0.435619)
(-0.128965 0.571583 0.184739)
(-0.242981 0.838487 0.518796)
(-0.513872 0.244673 0.302434)
(-0.60982 0.254471 0.43419)
(-0.228525 0.701419 0.257109)
(-0.407742 0.95134 0.529681)
(-0.69139 0.984921 0.342244)
(-0.366193 1.10401 0.417989)
(-0.692551 0.820153 0.258424)
(-0.823326 0.74308 0.258259)
(-0.410116 0.995577 0.318972)
(-0.270432 1.12646 0.275646)
(-0.432396 0.967121 0.298296)
(-0.484622 0.822295 0.407841)
(-0.836032 0.68864 0.473771)
(-0.522034 1.12066 0.697129)
(-0.390533 1.03265 0.371867)
(-0.508279 0.944919 0.295275)
(-0.558893 0.785554 0.278237)
(-0.536175 0.794736 0.352867)
(-0.664869 1.46497 0.566079)
(-0.121923 0.0618658 0.535532)
(-0.125437 0.0813942 0.518585)
(-0.0749149 0.163835 0.62633)
(-0.0801437 0.33298 0.630295)
(-0.361722 0.0880108 0.523633)
(-0.347716 0.121466 0.524774)
(-0.230165 0.219114 0.629125)
(-0.234628 0.392147 0.625821)
(-0.542753 0.133425 0.484486)
(-0.501544 0.128928 0.503247)
(-0.33975 0.295585 0.604694)
(-0.342951 0.471026 0.610619)
(-0.384968 1.10465 0.347353)
(-0.431617 1.1139 0.368691)
(-0.6086 0.910629 0.333752)
(-0.645781 0.881114 0.352174)
(-0.668226 0.758683 0.403868)
(-0.62969 0.683403 0.402913)
(-0.787788 0.549776 0.470483)
(-0.726024 0.491732 0.456749)
(-0.534941 0.416909 0.592508)
(-0.534139 0.614956 0.598592)
(-0.515332 0.976151 0.317295)
(-0.56578 0.891152 0.347632)
(-0.662931 0.895315 0.354967)
(-0.615026 0.848697 0.376561)
(-0.620228 0.748991 0.393358)
(-0.527457 0.699504 0.421971)
(-0.550999 0.637042 0.451224)
(-0.448843 0.568599 0.492622)
(-0.604859 0.497989 0.593112)
(-0.485942 0.677828 0.64207)
(-0.56386 0.915735 0.370032)
(-0.312178 0.978007 0.25228)
(-0.441796 0.9457 0.299787)
(-0.434599 1.04074 0.303715)
(-0.622893 0.930061 0.418024)
(-0.731237 0.862938 0.478414)
(-0.636167 0.941034 0.339986)
(-0.833269 0.905345 0.452168)
(-0.371064 0.820192 0.273165)
(-0.370298 0.831315 0.279226)
(-0.509128 0.809721 0.347052)
(-0.241986 0.807403 0.248658)
(-0.425131 0.960825 0.125368)
(-0.674808 1.06542 0.219349)
(-0.43805 0.952277 0.0512727)
(-0.717915 1.05353 0.0815567)
(-0.644787 0.951369 0.210498)
(-1.01932 0.941814 0.335573)
(-0.664946 0.938665 0.0826356)
(-1.04002 0.933123 0.12576)
(-0.357496 0.812451 0.10393)
(-0.589349 0.824984 0.191087)
(-0.368109 0.821831 0.03852)
(-0.63633 0.830346 0.0693641)
(-0.438932 0.698343 0.258606)
(-0.331887 0.691806 0.221291)
(-0.557421 0.477195 0.263438)
(-0.256209 0.568857 0.164241)
(-0.47767 0.704075 0.363664)
(-0.190437 0.681385 0.258779)
(-0.528093 0.489998 0.412615)
(-0.140036 0.586389 0.27451)
(-0.453703 0.679554 0.119676)
(-0.470366 0.682276 0.141039)
(-0.58255 0.471846 0.149649)
(-0.302995 0.570369 0.084512)
(-0.407726 0.685599 0.093009)
(-0.540293 0.674719 0.102165)
(-0.534013 0.467541 0.103989)
(-0.383983 0.557068 0.0789769)
(-0.118414 0.0713621 0.449381)
(-0.111123 0.0591363 0.29508)
(-0.0974099 0.0442002 0.0960922)
(-0.0763048 0.0403033 0.486829)
(-0.0751777 0.0352153 0.30547)
(-0.0664918 0.0347876 0.105442)
(-0.322574 0.106322 0.443145)
(-0.282001 0.0772091 0.288766)
(-0.249612 0.0612549 0.0977262)
(-0.208579 0.0935236 0.48701)
(-0.17701 0.0846325 0.304817)
(-0.15151 0.0743102 0.103012)
(-0.42467 0.114624 0.424346)
(-0.365673 0.113526 0.27222)
(-0.338022 0.122098 0.0910864)
(-0.299898 0.168984 0.479802)
(-0.245765 0.149316 0.300536)
(-0.22532 0.1383 0.10318)
(-0.391524 1.07746 0.262271)
(-0.323977 0.974743 0.148507)
(-0.311013 0.900287 0.0381238)
(-0.606234 0.891418 0.306726)
(-0.460909 0.847871 0.209145)
(-0.37996 0.808762 0.0678589)
(-0.539586 0.606032 0.349417)
(-0.403586 0.587813 0.24625)
(-0.318416 0.578741 0.0829611)
(-0.596912 0.425282 0.384704)
(-0.476184 0.40891 0.249661)
(-0.406844 0.402977 0.0815729)
(-0.453256 0.274437 0.465681)
(-0.31376 0.206828 0.291561)
(-0.238217 0.171441 0.103078)
(-0.731983 0.851431 0.290748)
(-0.604954 0.797255 0.158435)
(-0.54392 0.756167 0.0515652)
(-0.532353 0.844108 0.275056)
(-0.429281 0.798313 0.177115)
(-0.361633 0.771232 0.0611068)
(-0.464497 0.625357 0.306633)
(-0.355874 0.565088 0.201407)
(-0.285098 0.53145 0.0684605)
(-0.409989 0.446737 0.363785)
(-0.312358 0.400329 0.232941)
(-0.252798 0.379758 0.0792304)
(-0.434777 0.291698 0.441403)
(-0.265046 0.219808 0.256094)
(-0.168994 0.182138 0.0883469)
(-0.451611 1.11481 -0.0197322)
(-0.738546 1.16117 0.0395111)
(-0.381592 1.18368 0.0176185)
(-0.548723 1.09145 0.105142)
(-0.363969 1.08634 0.0693979)
(-0.752063 1.09064 0.0706907)
(-0.30386 1.29303 0.179409)
(-0.615492 1.11824 0.157955)
(-0.0086007 0.71232 0.0238681)
(-0.0694968 0.786704 0.039015)
(0.00865243 0.708883 0.025297)
(-0.0406596 0.699859 0.0409358)
(-0.143009 0.945573 0.0133311)
(-0.268006 0.834656 0.0376981)
(-0.0897036 0.922892 0.0248469)
(-0.161049 0.730198 0.0553264)
(-0.0755318 1.01614 0.0755198)
(-0.15989 1.06356 0.0452055)
(-0.437093 0.873324 0.152793)
(-0.654179 0.985056 0.107871)
(-0.346958 1.14833 0.0701415)
(-0.254998 1.00396 0.115302)
(-0.458465 1.13276 0.11655)
(-0.400686 1.17401 0.0341305)
(-0.611391 1.19753 0.230948)
(-0.653789 1.2814 0.0739521)
(0.0202933 0.971945 -0.160879)
(0.213575 0.996039 -0.0216913)
(-0.332676 0.846999 0.0288749)
(-0.234707 0.833901 0.0297603)
(-0.256028 0.966736 0.00284698)
(-0.147765 0.93207 0.00959628)
(-0.0640706 0.656024 0.414235)
(-0.0411207 0.367078 0.186327)
(-0.0508494 0.610955 0.110191)
(-0.0308702 0.406813 0.0668932)
(-0.15719 0.636615 0.408335)
(-0.0524107 0.358937 0.189279)
(-0.0776045 0.587605 0.120116)
(-0.00978137 0.393213 0.0789497)
(-0.398425 0.582488 0.39655)
(-0.122998 0.331735 0.208514)
(-0.296651 0.545754 0.162709)
(-0.0931751 0.373484 0.118086)
(-0.335131 0.535239 0.124051)
(-0.101459 0.388291 0.0827201)
(-0.379201 0.513355 0.0708068)
(-0.126106 0.387655 0.0648089)
(-0.487515 0.897441 0.523007)
(-0.485198 0.713607 0.457877)
(-0.380363 0.874797 0.229794)
(-0.482863 0.715057 0.293731)
(-0.729705 1.00213 0.579985)
(-0.660797 0.902097 0.542005)
(-0.598419 0.999996 0.282364)
(-0.630377 0.883316 0.339073)
(-0.286975 0.806143 0.211804)
(-0.380504 0.562977 0.255733)
(-0.334741 0.842249 0.448407)
(-0.350595 0.546702 0.371707)
(-0.356517 0.888414 0.14666)
(-0.481734 0.715202 0.191911)
(-0.374912 0.91039 0.0852301)
(-0.487331 0.712512 0.112042)
(-0.571711 1.02037 0.189079)
(-0.620147 0.875145 0.221204)
(-0.592642 1.03563 0.109834)
(-0.625726 0.869799 0.12718)
(-0.25431 0.781702 0.121298)
(-0.387331 0.568376 0.168937)
(-0.246869 0.774656 0.0689625)
(-0.393263 0.567457 0.102988)
(-0.0430912 0.476894 0.191061)
(-0.0693006 0.322896 0.139536)
(-0.313823 0.424311 0.217936)
(-0.187495 0.259883 0.15168)
(-0.042895 0.441906 0.327163)
(-0.0608812 0.287834 0.201903)
(-0.274927 0.39834 0.293031)
(-0.159682 0.236657 0.199971)
(-0.0418255 0.486763 0.114409)
(-0.0622421 0.343143 0.0952552)
(-0.332162 0.435401 0.151271)
(-0.206031 0.2729 0.104063)
(-0.0538921 0.489056 0.0651698)
(-0.0669382 0.356838 0.0602536)
(-0.336432 0.437959 0.0956306)
(-0.217409 0.280682 0.0638797)
(0.00530648 0.104061 0.487579)
(0.0105883 0.0554932 0.335428)
(-0.0203606 0.188992 0.245713)
(-0.0153203 0.100143 0.263007)
(0.0289834 0.107712 0.483701)
(0.0492545 0.0645433 0.333694)
(-0.0351706 0.191211 0.243658)
(-0.0267511 0.11137 0.258326)
(-0.0560425 0.117696 0.489651)
(-0.0157826 0.0872338 0.319222)
(-0.11228 0.188933 0.249302)
(-0.102389 0.130027 0.240378)
(0.305719 0.541789 0.527249)
(0.156002 0.90648 0.504251)
(0.17527 0.347717 0.496834)
(0.108676 0.312801 0.386972)
(-0.0127337 0.213748 0.231088)
(0.282166 0.929045 0.307854)
(0.414976 0.599418 0.375956)
(0.194683 0.333139 0.40345)
(0.189797 0.294878 0.384494)
(-0.0119401 0.162884 0.279652)
(-0.369936 0.895624 0.436452)
(-0.275959 0.650328 0.395835)
(-0.234472 0.475873 0.332721)
(-0.247617 0.344606 0.274064)
(-0.156547 0.199355 0.186198)
(0.0196626 0.0398649 0.296891)
(0.0153335 0.0396571 0.302863)
(-0.00974444 0.065481 0.303542)
(-0.0155917 0.0624588 0.37684)
(0.054572 0.0501222 0.294022)
(0.0629309 0.0388707 0.291326)
(-0.0283313 0.0815552 0.295899)
(-0.0394795 0.0749056 0.367474)
(0.0427725 0.0716623 0.277593)
(0.0700267 0.0643801 0.271659)
(-0.0694186 0.101094 0.280064)
(-0.0874004 0.0904984 0.349848)
(0.126161 0.946882 0.346454)
(0.0693663 0.915071 0.327836)
(0.323901 0.606405 0.328224)
(0.233618 0.561944 0.284182)
(0.169114 0.379615 0.251522)
(0.123177 0.372032 0.254733)
(0.14734 0.289056 0.248745)
(0.123768 0.283085 0.263552)
(-0.0272221 0.14836 0.244521)
(-0.0641632 0.133878 0.328277)
(-0.194919 0.825735 0.253573)
(-0.133995 0.716755 0.287703)
(0.0183103 0.604793 0.215815)
(0.0911156 0.528024 0.246483)
(0.0204063 0.45207 0.196866)
(0.0760793 0.41922 0.226743)
(-0.0286894 0.316367 0.198597)
(0.0171418 0.311179 0.241362)
(-0.0524331 0.184157 0.187585)
(-0.0730069 0.214661 0.30129)
(-0.165406 0.570659 0.18981)
(-0.183451 0.459012 0.152406)
(-0.39315 0.574708 0.129745)
(-0.250793 0.431908 0.0683501)
(-0.343511 0.72509 0.28734)
(-0.337305 0.542626 0.218665)
(-0.518216 0.733385 0.23211)
(-0.407079 0.531409 0.145805)
(-0.309604 0.469057 0.101722)
(-0.194016 0.385454 0.0589204)
(-0.109598 0.464525 0.150683)
(-0.137899 0.412137 0.136789)
(-0.465273 0.592005 0.169354)
(-0.197544 0.410838 0.0730988)
(-0.498593 0.595718 0.0792024)
(-0.181642 0.414226 0.0435317)
(-0.59546 0.767017 0.217783)
(-0.391386 0.543815 0.123919)
(-0.633072 0.763573 0.0898749)
(-0.374662 0.546668 0.0618428)
(-0.371708 0.471675 0.139726)
(-0.143514 0.361086 0.0603866)
(-0.403447 0.478329 0.0712614)
(-0.124699 0.375165 0.0360049)
(-0.246388 0.330935 0.0897524)
(-0.207418 0.310532 0.108642)
(-0.202197 0.206255 0.114041)
(-0.349499 0.291764 0.193982)
(-0.128467 0.336045 0.135218)
(-0.169036 0.326363 0.166628)
(-0.138961 0.210079 0.139)
(-0.296303 0.288471 0.253368)
(-0.270183 0.329666 0.105222)
(-0.196444 0.301471 0.078809)
(-0.242092 0.199785 0.0827685)
(-0.39996 0.305636 0.137849)
(-0.321751 0.34679 0.048447)
(-0.188273 0.30352 0.0203405)
(-0.279915 0.208672 0.0197801)
(-0.398394 0.302019 0.0362245)
(0.0229182 0.10496 0.241714)
(0.0321877 0.0844772 0.110835)
(0.0384927 0.0663464 0.0317989)
(-0.0101045 0.40246 0.263878)
(0.00584576 0.196167 0.0702589)
(0.00853477 0.150053 0.0184955)
(0.0852067 0.0956234 0.233387)
(0.108 0.090391 0.114357)
(0.118263 0.0771573 0.0355703)
(-0.0162103 0.418291 0.261025)
(0.0253404 0.226791 0.0719877)
(0.0317762 0.182742 0.0198269)
(0.102234 0.117355 0.209809)
(0.153898 0.125727 0.103347)
(0.176289 0.126535 0.0265684)
(-0.0482176 0.435261 0.247087)
(0.0446738 0.277139 0.0662962)
(0.0642758 0.243062 0.0149196)
(0.0414033 0.834947 0.221148)
(0.0640786 0.76637 0.120172)
(0.0584457 0.715462 0.031381)
(0.18723 0.538932 0.19044)
(0.204258 0.513727 0.101654)
(0.191123 0.495418 0.0281418)
(0.14588 0.393467 0.191527)
(0.176144 0.383393 0.0957362)
(0.17212 0.377277 0.0271448)
(0.152659 0.348702 0.193582)
(0.200619 0.333699 0.0912084)
(0.210358 0.327221 0.0209636)
(-0.0324677 0.494903 0.232895)
(0.0651288 0.359536 0.0580588)
(0.0638186 0.322795 0.00981649)
(-0.156465 0.619399 0.245892)
(-0.0742013 0.563646 0.128791)
(-0.0408661 0.525137 0.0396367)
(0.062124 0.475882 0.216291)
(0.115002 0.440667 0.117744)
(0.132086 0.419412 0.0387088)
(0.0693212 0.422165 0.199915)
(0.129034 0.385766 0.104543)
(0.144502 0.358127 0.0342537)
(0.0385124 0.407974 0.197352)
(0.11299 0.368245 0.0802547)
(0.129118 0.34647 0.0215204)
(-0.0873045 0.635329 0.24034)
(0.0440034 0.446628 0.0591156)
(0.0541236 0.408974 0.0186364)
(-0.00334743 0.191217 0.0733564)
(0.000294388 0.113359 0.028285)
(0.0016919 0.0851042 0.0131863)
(0.0036571 0.0842663 9.19597e-05)
(0.00442731 0.21655 0.0296908)
(0.00446243 0.123497 0.0121086)
(0.00523185 0.0889844 0.0061559)
(0.00550855 0.0864411 0.00111906)
(-0.00917688 0.184989 0.0759682)
(0.000284053 0.111289 0.0303712)
(0.00450975 0.0847159 0.015728)
(0.00964416 0.085276 0.00277595)
(0.0101522 0.214751 0.0360134)
(0.0102633 0.123767 0.0163276)
(0.0114555 0.0898069 0.0103455)
(0.0126086 0.0868544 0.00484482)
(-0.0186433 0.173928 0.0874501)
(-0.00232337 0.108169 0.0364151)
(0.00497071 0.0850253 0.020628)
(0.014814 0.0835455 0.00626919)
(0.00114002 0.208431 0.0622587)
(0.00849087 0.124777 0.0323897)
(0.0105737 0.0918866 0.0186681)
(0.0146129 0.0847415 0.00883223)
(0.00158353 0.219456 0.0460683)
(0.00557247 0.130491 0.0291478)
(0.00448238 0.0931153 0.0149086)
(0.00498635 0.0906996 0.00512221)
(-0.00715654 0.226077 0.0481743)
(-0.000432079 0.136464 0.0333534)
(0.00226294 0.0974628 0.0201797)
(0.00522724 0.0946662 0.0115143)
(-0.0462975 0.185967 0.0735754)
(-0.0137112 0.115151 0.0351734)
(-0.00413501 0.0882145 0.0183481)
(0.00897504 0.0844875 0.00187731)
(-0.0697701 0.144309 0.0705326)
(-0.0218261 0.0978255 0.0325078)
(-0.0113842 0.0809508 0.0188282)
(0.0125086 0.079568 -0.00185848)
(-0.0394369 0.158123 0.0926447)
(-0.0104611 0.102382 0.039058)
(-0.000920108 0.0832921 0.0223498)
(0.0145152 0.0769658 0.00479646)
(-0.0570654 0.126753 0.0835324)
(-0.01746 0.0895171 0.0345209)
(-0.00970457 0.0768972 0.0204902)
(0.0125609 0.075471 -0.00313394)
(-0.0426972 0.202381 0.0558942)
(-0.0131924 0.124393 0.0308603)
(-0.00415088 0.0922095 0.0164503)
(0.00756394 0.0893106 0.00221345)
(-0.0768123 0.155082 0.0548725)
(-0.0241875 0.10429 0.0288363)
(-0.0121177 0.0840044 0.0176624)
(0.0154225 0.0823368 0.0028853)
(-0.0452307 0.211706 0.0416145)
(-0.0154285 0.130868 0.0269759)
(-0.00421718 0.0957389 0.0174247)
(0.00987732 0.0916101 0.0103151)
(-0.0804325 0.161127 0.0381589)
(-0.025577 0.109015 0.0242009)
(-0.0128161 0.0866787 0.0168791)
(0.0168897 0.0833402 0.00988109)
(-0.00341991 0.139993 0.0945314)
(-0.000222576 0.0961613 0.0345437)
(0.000724027 0.078778 0.0159102)
(0.00332639 0.0792768 -0.00397929)
(-0.00310292 0.0842622 0.100024)
(-0.000137491 0.0753107 0.0337834)
(0.00022019 0.0704828 0.0171374)
(0.00348096 0.0729934 -0.0115508)
(-0.00942141 0.134813 0.0943632)
(-0.000851881 0.0942464 0.0350729)
(0.00203401 0.078466 0.017273)
(0.00878487 0.0791901 -0.00260933)
(-0.0057079 0.0832035 0.0960672)
(0.000606581 0.0749029 0.0326279)
(0.00117539 0.0702901 0.0170897)
(0.00948948 0.0733925 -0.0107403)
(-0.0320339 0.126765 0.0952197)
(-0.00802553 0.0912344 0.0361337)
(-0.000848451 0.0780624 0.0199383)
(0.0136189 0.0784637 -0.000474705)
(-0.0254699 0.0856442 0.0861352)
(-0.00522138 0.0759062 0.0295834)
(-0.000649441 0.0702849 0.0169706)
(0.0151105 0.0748942 -0.00790205)
(-0.0175978 0.117483 0.0884119)
(-0.00183926 0.0864209 0.0348449)
(0.00294595 0.0758247 0.0220945)
(0.0147155 0.0780096 0.00548622)
(-0.0119536 0.085887 0.0948796)
(-0.000585225 0.0757641 0.033516)
(0.00080209 0.0712389 0.0219615)
(0.0146098 0.0748466 -0.0078656)
(-0.0489734 0.103564 0.0692763)
(-0.0136268 0.0812427 0.0271443)
(-0.00666619 0.0719601 0.0174528)
(0.0169287 0.0726668 0.00161525)
(0.00125696 0.0211813 0.0836964)
(0.00124073 0.0553189 0.0248816)
(0.00101278 0.0547803 0.0125537)
(0.00270545 0.0171541 -0.0107728)
(0.00535378 -0.0549023 0.0331353)
(0.00239892 0.043965 0.00885107)
(0.0014757 0.046701 0.00382401)
(0.00163934 0.0165163 -0.00264671)
(0.000112953 0.0282954 0.0823985)
(0.00234658 0.0579361 0.0252214)
(0.00205058 0.0558098 0.0130301)
(0.00716885 0.0181748 -0.00966699)
(0.0128546 -0.0437316 0.0336583)
(0.00616661 0.0470699 0.00931397)
(0.00372439 0.0475706 0.00428397)
(0.00436601 0.0168088 -0.00206188)
(-0.00528285 0.039621 0.0770081)
(0.00154623 0.0618204 0.0245598)
(0.00229753 0.0568562 0.0136942)
(0.0112305 0.0181061 -0.0076134)
(0.0167196 -0.0266325 0.0322254)
(0.00877795 0.0519729 0.00939425)
(0.00558456 0.0486798 0.00485686)
(0.00671691 0.016895 -0.00120666)
(-0.00744771 0.0547521 0.0647186)
(0.00195274 0.0664654 0.0210835)
(0.0029164 0.0581605 0.0132264)
(0.014913 0.0192583 -0.00535256)
(0.0160606 -0.00777676 0.0283405)
(0.0101857 0.0577941 0.00833457)
(0.00642092 0.0503726 0.00523214)
(0.00801135 0.0175078 -9.86715e-05)
(-0.0174235 0.0751324 0.056708)
(-5.3e-05 0.0725337 0.0197385)
(0.00020678 0.0605994 0.0131022)
(0.0147743 0.0215545 -0.00226937)
(0.00683027 0.00880578 0.0253515)
(0.00901176 0.0629792 0.00844091)
(0.00521838 0.0520171 0.00601682)
(0.00754221 0.0180126 0.00152708)
(-0.0512161 0.0884287 0.0448082)
(-0.00628886 0.0794234 0.0193022)
(-0.00359957 0.0622806 0.0114584)
(0.0143238 0.0199903 0.000665581)
(-0.0162581 0.00164726 0.0231593)
(0.0028552 0.0682472 0.0118187)
(0.00214049 0.0554409 0.00744391)
(0.00569229 0.0187788 0.00407017)
(-0.0349526 0.0869332 0.0478754)
(-0.00225229 0.0764188 0.017491)
(-0.00192865 0.0607817 0.0111726)
(0.0144345 0.0200986 -0.000788785)
(-0.00763133 0.00483025 0.0229734)
(0.00598466 0.066307 0.0094467)
(0.00365567 0.0535923 0.00652576)
(0.00671465 0.0182714 0.00291134)
(-0.0648481 0.0869703 0.0397053)
(-0.0118881 0.0816504 0.0207884)
(-0.00616154 0.064008 0.012686)
(0.0154231 0.0187986 0.00318517)
(-0.0220818 -0.0038359 0.0235738)
(-0.000546458 0.0701146 0.0140991)
(0.000470105 0.057041 0.00887487)
(0.00512354 0.0188721 0.00564662)
(-0.0743777 0.0863998 0.0307862)
(-0.0179993 0.0847321 0.0201456)
(-0.00927459 0.0669727 0.0137869)
(0.0152749 0.019522 0.00845289)
(-0.0277299 0.00308262 0.0218232)
(-0.0049483 0.073276 0.0152864)
(-0.00169742 0.0592599 0.0105655)
(0.00435274 0.0194796 0.00800966)
(0.00149813 0.0845407 0.000592774)
(0.000727249 0.067038 0.000522639)
(0.000396422 0.0480063 0.000357092)
(0.00024329 0.0287399 0.000240399)
(0.000181684 0.00955967 0.000185419)
(0.00203277 0.0846675 0.000355813)
(0.00109858 0.0670961 0.000271885)
(0.000628474 0.0480589 0.000182097)
(0.000394542 0.0287708 0.000123101)
(0.000296734 0.00956955 9.56493e-05)
(0.00321784 0.0860438 0.00154262)
(0.00154723 0.0675821 0.00110719)
(0.000839512 0.0482592 0.00071095)
(0.000516843 0.0288557 0.000469265)
(0.000388892 0.00959332 0.000359226)
(0.00536854 0.0859148 0.00168354)
(0.00298851 0.0677281 0.00109357)
(0.00173731 0.0483814 0.000676582)
(0.0011032 0.0289242 0.000440953)
(0.000834603 0.00961488 0.000336303)
(0.00456667 0.0869818 0.0037682)
(0.00222407 0.0681763 0.00253886)
(0.00122917 0.0485411 0.00159198)
(0.000766223 0.0289849 0.00104671)
(0.000580212 0.0096308 0.000801596)
(0.00770027 0.0863263 0.00757534)
(0.00424458 0.0686193 0.00471387)
(0.00249139 0.0488672 0.00290333)
(0.00159543 0.0291616 0.00189459)
(0.00121208 0.00968623 0.00144572)
(0.00261808 0.0892749 0.00782072)
(0.00139669 0.06982 0.00497965)
(0.000820904 0.0495532 0.00310418)
(0.000528047 0.0295127 0.00203732)
(0.000401869 0.00979396 0.0015601)
(0.00150233 0.0909175 0.00853782)
(0.000763355 0.0709579 0.00525957)
(0.000436114 0.0502456 0.00323985)
(0.000278173 0.0298732 0.00211842)
(0.000210726 0.00990509 0.00162222)
(0.0040291 0.0893268 0.00504443)
(0.00184828 0.0693785 0.00340506)
(0.00102567 0.0491761 0.00215433)
(0.000644368 0.0292986 0.00142034)
(0.000486092 0.00972597 0.00108446)
(0.000955176 0.0920172 0.00398845)
(0.00027917 0.0697707 0.00267826)
(0.00012151 0.0492456 0.00169634)
(6.79725e-05 0.029313 0.00112194)
(4.91452e-05 0.00972835 0.000858022)
(0.00587951 0.08783 0.00522274)
(0.00303637 0.0688181 0.00339471)
(0.00175372 0.0488377 0.00211288)
(0.00111845 0.0291218 0.00139008)
(0.000849157 0.00967082 0.00106328)
(0.00165765 0.0914039 0.00407219)
(0.000679856 0.0694154 0.0024023)
(0.000361639 0.0490388 0.00146802)
(0.000222582 0.0292058 0.000962978)
(0.000165783 0.00969484 0.000733667)
(0.00147459 0.0904924 0.00568126)
(0.000404453 0.0700475 0.00399422)
(0.000163352 0.049588 0.0025532)
(8.88343e-05 0.0295153 0.00168973)
(6.38858e-05 0.00979335 0.00129545)
(0.00099644 0.093115 0.00552627)
(0.000312387 0.0704324 0.00369608)
(0.000144905 0.0496452 0.00233636)
(8.51941e-05 0.0295227 0.00154302)
(6.30332e-05 0.00979361 0.00118178)
(0.00143002 0.0915891 0.00761296)
(0.000371998 0.071238 0.00480407)
(0.000142249 0.0503384 0.00297315)
(7.55859e-05 0.0299087 0.00194639)
(5.24649e-05 0.00991505 0.00148997)
(0.000737518 0.0944025 0.00731454)
(0.000112893 0.0715889 0.00463338)
(1.79321e-05 0.0503754 0.00287157)
(1.65048e-06 0.0299073 0.00188038)
(-1.90879e-06 0.00991322 0.00143756)
(0.00122146 0.0845309 0.000199472)
(0.000549427 0.0670123 0.000411058)
(0.000286912 0.0479539 0.000295985)
(0.000171428 0.0287065 0.000201115)
(0.000126576 0.00954892 0.000155695)
(0.00112444 0.0859882 -4.70311e-05)
(0.000514937 0.0670797 0.000153136)
(0.00027107 0.0479282 0.000116483)
(0.000162272 0.0286872 8.0857e-05)
(0.000119876 0.00954257 6.36478e-05)
(0.00280271 0.0855507 0.000765413)
(0.00124407 0.0674523 0.00073242)
(0.000651889 0.0481477 0.000489738)
(0.000391334 0.0287921 0.000327503)
(0.000290634 0.00957318 0.000253113)
(0.00260889 0.0869162 7.61836e-05)
(0.00116879 0.0674741 0.00022733)
(0.000617526 0.0480989 0.000161557)
(0.000371105 0.0287617 0.000110234)
(0.000274495 0.00956374 8.67915e-05)
(0.00365404 0.0871176 0.00135028)
(0.00152173 0.0680452 0.00113524)
(0.000791042 0.0484003 0.000738371)
(0.000473739 0.0289036 0.000492849)
(0.000352175 0.00960487 0.000382216)
(0.00313396 0.0888473 0.000790148)
(0.00143639 0.0680403 0.000596634)
(0.000777474 0.0483335 0.000371181)
(0.000472146 0.0288647 0.000241937)
(0.000353067 0.00959289 0.00018764)
(0.00421693 0.0894478 0.00436197)
(0.00214667 0.0686957 0.002801)
(0.00123149 0.0486791 0.00172508)
(0.00078007 0.0290301 0.00113745)
(0.00059268 0.00964124 0.000875768)
(0.00207293 0.090789 0.00217267)
(0.00104885 0.0685696 0.00139213)
(0.000590977 0.0485825 0.00084821)
(0.000365785 0.0289798 0.00055684)
(0.000277587 0.00962548 0.000429801)
(0.00242739 0.0908975 0.00560833)
(0.00129173 0.0691064 0.00309021)
(0.000755911 0.0488754 0.00183981)
(0.000485227 0.0291237 0.00119553)
(0.000369223 0.00966918 0.000911493)
(-0.0203337 0.321144 0.0915464)
(-0.0242741 0.49557 0.158761)
(-0.0559308 0.339553 0.0860364)
(-0.0688019 0.510857 0.153883)
(-0.0854701 0.370167 0.0796936)
(-0.10984 0.535857 0.142941)
(-0.104109 0.406753 0.0773225)
(-0.145485 0.578376 0.137188)
(-0.104819 0.448055 0.0850237)
(-0.146243 0.650909 0.157799)
(-0.0944598 0.417869 0.0491631)
(-0.123422 0.515906 0.0735666)
(-0.0892168 0.427515 0.0692914)
(-0.106849 0.550256 0.110752)
(-0.105301 0.416657 0.0320479)
(-0.141727 0.510929 0.0437307)
(-0.108019 0.412252 0.011984)
(-0.147099 0.510183 0.0171639)
(-0.0188387 0.257006 0.270979)
(-0.00411096 0.0459322 0.0651079)
(-0.000892039 0.0100815 0.0148959)
(-0.00018872 0.0022606 0.00329128)
(-4.56711e-05 0.000397737 0.000821788)
(-0.00833283 0.30566 0.0720555)
(-0.00294089 0.0842692 0.0190693)
(-0.000331863 0.0204773 0.00509775)
(-9.24309e-05 0.00463466 0.00113907)
(-3.63173e-05 0.00080837 0.000253022)
(-0.0608207 0.263642 0.269384)
(-0.0133711 0.0454375 0.0638154)
(-0.00291836 0.0097868 0.0144904)
(-0.000622145 0.0021741 0.00317788)
(-0.000151655 0.000380305 0.000789758)
(-0.0216829 0.312739 0.0744143)
(-0.00461678 0.0849371 0.0216378)
(-0.000935466 0.02037 0.0053084)
(-0.000182365 0.00454989 0.00122784)
(-3.90835e-05 0.000790706 0.000306615)
(-0.107304 0.275764 0.260784)
(-0.0237285 0.0457467 0.0607045)
(-0.00520903 0.00960521 0.0136314)
(-0.00112049 0.00210515 0.00296581)
(-0.000275522 0.000365718 0.000732783)
(-0.0377484 0.326327 0.0722382)
(-0.00891602 0.0866802 0.0209474)
(-0.00195974 0.0204069 0.00510035)
(-0.000424808 0.00450325 0.00116776)
(-0.000102156 0.000776904 0.000288843)
(-0.15439 0.290536 0.245783)
(-0.034333 0.0459269 0.0560744)
(-0.00761047 0.00939921 0.0124732)
(-0.00165579 0.00203956 0.00270285)
(-0.000412203 0.000353232 0.00066714)
(-0.0528747 0.343859 0.0696055)
(-0.0136 0.0889012 0.019737)
(-0.00319338 0.020603 0.00470914)
(-0.000727947 0.00451253 0.00106078)
(-0.000183593 0.000776095 0.000258648)
(-0.216087 0.303425 0.216701)
(-0.0494248 0.0460782 0.0486678)
(-0.0111894 0.00936664 0.0108115)
(-0.00247897 0.00204247 0.00235122)
(-0.000627829 0.000355905 0.000584141)
(-0.0702284 0.360481 0.0650716)
(-0.0204017 0.0909135 0.0176051)
(-0.00507974 0.0210334 0.00410426)
(-0.00119666 0.00463063 0.000912803)
(-0.00031003 0.000800862 0.00022049)
(-0.293317 0.297983 0.122617)
(-0.0732176 0.0537478 0.0293817)
(-0.0174941 0.0121165 0.00675492)
(-0.00403315 0.00280592 0.00150228)
(-0.00105302 0.000506212 0.000379533)
(-0.0811517 0.335921 0.0330409)
(-0.0250743 0.0953769 0.00838313)
(-0.00645602 0.0238113 0.00181581)
(-0.00154977 0.00554036 0.000373307)
(-0.000408386 0.000994333 8.47439e-05)
(-0.266388 0.301696 0.170648)
(-0.0644387 0.0507099 0.0397548)
(-0.0150268 0.0108956 0.0089794)
(-0.00339747 0.00244695 0.00197292)
(-0.000873448 0.000433401 0.000494535)
(-0.0787688 0.346466 0.0462281)
(-0.0245191 0.0937883 0.0120863)
(-0.00629969 0.0225322 0.00275822)
(-0.00150828 0.00508791 0.000605839)
(-0.000394049 0.000894926 0.000145548)
(-0.306323 0.296239 0.0769706)
(-0.0775127 0.0557866 0.0189148)
(-0.0187519 0.0129379 0.0044105)
(-0.00437089 0.00305706 0.000990223)
(-0.00115115 0.000558764 0.000251518)
(-0.0826631 0.333223 0.0210361)
(-0.0248658 0.0964401 0.00545388)
(-0.00630755 0.0245902 0.00115866)
(-0.00149761 0.00583248 0.000225894)
(-0.000393549 0.0010619 4.86662e-05)
(-0.315944 0.294899 0.0281926)
(-0.0797305 0.0551066 0.00700684)
(-0.019375 0.0128372 0.00164556)
(-0.00454146 0.0030582 0.000371778)
(-0.00120227 0.000562682 9.48896e-05)
(-0.0824888 0.331664 0.0101568)
(-0.0249022 0.0958847 0.00237443)
(-0.00631429 0.0246207 0.000469859)
(-0.00139182 0.00588584 0.000127929)
(-0.000387848 0.00107755 1.75114e-05)
(-0.0107843 1.39126 -0.0474397)
(-0.255781 1.9328 0.025248)
(-0.251584 1.73121 0.16338)
(-0.143297 1.30951 -0.139269)
(0.14424 0.733529 0.0383433)
(0.198627 0.769458 0.0408938)
(0.400678 1.16896 0.102325)
(0.526714 1.17077 0.124768)
(0.225698 0.787144 0.0840768)
(0.458081 0.839415 0.135991)
(0.0885424 1.25383 0.112185)
(0.278109 1.6667 0.16962)
(0.225076 1.851 0.106856)
(0.373406 2.50868 0.139665)
(0.409033 0.944224 0.0510948)
(0.564068 1.03567 0.0745618)
(0.493911 0.764434 0.0558954)
(0.56156 0.74441 0.0650803)
(0.282061 0.530286 0.0391095)
(0.31902 0.544656 0.040521)
(-0.752005 0.167155 0.113868)
(-0.564198 0.120536 0.0903586)
(-0.183232 0.0360602 -0.0163131)