/*--------------------------------*- C++ -*----------------------------------*\
| =========                 |                                                 |
| \\      /  F ield         | OpenFOAM: The Open Source CFD Toolbox           |
|  \\    /   O peration     | Version:  2412                                  |
|   \\  /    A nd           | Website:  www.openfoam.com                      |
|    \\/     M anipulation  |                                                 |
\*---------------------------------------------------------------------------*/
FoamFile
{
    version     2.0;
    format      ascii;
    arch        "LSB;label=32;scalar=64";
    class       volScalarField;
    location    "2.8";
    object      gradTx;
}
// * * * * * * * * * * * * * * * * * * * * * * * * * * * * * * * * * * * * * //

dimensions      [0 -1 0 1 0 0 0];

internalField   nonuniform List<scalar> 
5712
(
-7701.9
-9405.45
-17621
-27495.1
-26595.1
-51886.1
-18418.4
-55392.2
-19003.6
-44425.6
-23356.3
-38378.8
-17878
-23612.6
-9613.96
-9747.8
-12452.2
-14045.3
-17130.4
-15511
-11944
-17991
-17821
-17861.9
-5022.61
-3620
-6814.16
-4856.69
-11379.2
-7327.77
-21086.2
-14651.1
-17574.2
-17774
-17782.6
-17869.3
-4026.84
-3643.04
-41001.8
-50723.5
-21798.8
-29113.4
-52961.8
-65177.2
-24549
-30203.8
-30656
-40101
-24402.2
-33838.3
-13991.4
-17751.5
-2837.16
-895.59
-3697.92
-1277.95
-6343.12
-2603.78
-11047.5
-4045.87
-7203.09
-2391.19
-7336.07
-2073.55
-14459.4
-4204.66
-18975.6
-5939.62
-24576
-14007.7
-20814.5
-14378.4
-25320.1
-16304
-20103.3
-16302.9
-16044.8
-11556.3
-17554.6
-11063.4
-20237.8
-14963.3
-20919.9
-15380
-19710.3
-16729.3
-20479.5
-17088.2
-16598.7
-12301.9
-17913.6
-12788.3
-17644.5
-7207.6
-10011.8
-11376.9
-18940.3
-8280.17
-9866.03
-11825.8
-17728.7
-6747.79
-10534.7
-11266.1
-18346.5
-6802.89
-11106.9
-11397.6
-2740.2
-3070.6
-960.525
-1878.96
-7908.48
-9262.5
-3224.13
-6074.52
-12846.8
-15245.5
-5713.12
-10193.6
-17284.7
-9154.83
-17313.8
-20583.2
-10252.9
-6760.79
-10809.9
-12115.5
-20900.8
-13050.8
-9763.32
-12707
-13972.3
-13404.4
-16621.7
-3048.09
-3135.94
-1872.87
-2003.59
-9043.05
-8692.89
-5754.12
-5865.69
-13568.8
-12538.6
-8493.74
-8573.77
-9624.21
-10790.4
-15215
-16144.5
-16705.7
-15742.3
-19694.7
-18150.6
-13373.5
-13353.5
-12883.3
-14144.5
-16573.3
-15375.7
-15505.7
-13186.4
-13775
-11221.1
-15121.5
-12148.6
-14096.5
-7804.45
-11044.9
-10865
-15572.3
-18280.9
-15904.2
-20831.7
-9276.61
-9257.45
-12728.2
-6049.66
-10628.3
-16870.2
-10951.2
-17947.9
-16119.7
-25483
-16623.6
-26000.4
-8937.4
-14733.7
-9202.72
-15908.3
-10973.3
-8297.17
-13935.5
-6405.23
-11941.8
-4760.92
-13202.3
-3500.91
-11342.6
-11759.1
-14563.7
-7574.87
-10193.2
-13507.3
-13350.3
-9599.58
-2960.36
-2778.08
-2435.25
-1907.62
-1879.44
-1662.3
-8064.36
-7050.02
-6240.3
-5214.47
-4425.25
-3787.74
-10616.8
-9141.82
-8450.54
-7497.44
-6144.13
-5633
-9788.1
-8099.43
-7775.33
-15155.9
-11522.7
-9499
-13489.6
-10089.6
-7960.4
-14922.8
-11904.6
-10171.1
-11331.4
-7844.01
-5955.43
-18299.6
-15123.9
-13598
-13308.8
-10732
-9040.83
-11612.4
-8896.85
-7127.45
-10249.7
-7808.95
-6319.95
-10869.4
-6626.14
-4224.86
-11290.3
-18463.6
-9539.8
-13718.1
-9099.22
-18801.6
-7596.5
-15387.3
-215.017
-1737.42
216.311
-1016.49
-3575.23
-6700.15
-2242.59
-4026.21
-1888.29
-3997.24
-10927.3
-16354.5
-8673.96
-6374.95
-11461.6
-10017.1
-15284.8
-16344.7
507.333
5339.38
-8316.91
-5867.67
-6400.7
-3694.13
-1601.76
-1028.02
-1271.23
-771.755
-3929.76
-1310.27
-1940.11
-244.534
-9960.63
-3074.96
-7416.28
-2329.38
-8378.28
-2536.47
-9480.02
-3152.64
-12187.9
-12129.9
-9509.07
-12071.6
-18242.6
-16519.9
-14960.5
-15759.4
-7174.38
-9512.6
-8368.53
-8764.87
-8912.93
-12043.3
-9372.79
-12183.3
-14292.8
-15503.7
-14816
-15643.2
-6357.76
-9683.28
-6171.72
-9831.58
-1077.28
-1732.51
-7845.56
-4687.38
-1072.38
-1522.03
-6873.18
-3992.04
-1045.64
-1556.05
-8304.05
-5150.78
-1347.3
-1673.45
-8410.8
-5435.21
132.662
264.707
-509.016
-383.008
724.586
1231.36
-879.265
-668.778
-1401.06
-394.566
-2807
-2559.72
7642.97
3900.05
4381.74
2716.89
-318.341
7054.15
10374.4
4867.07
4744.92
-298.502
-9248.41
-6898.98
-5861.79
-6190.41
-3913.67
491.566
383.338
-243.611
-389.793
1364.3
1573.27
-708.283
-986.988
1069.31
1750.67
-1735.47
-2185.01
3154.03
1734.16
8097.52
5840.45
4227.86
3079.41
3683.51
3094.21
-680.551
-1604.08
-4872.97
-3349.88
457.758
2277.89
510.158
1901.98
-717.236
428.546
-1310.83
-1825.17
-4135.14
-4586.28
-9828.76
-6269.83
-8587.78
-8432.62
-12955.4
-10177
-7740.11
-4850.4
-2739.94
-3447.48
-11631.8
-4938.6
-12464.8
-4541.04
-14886.5
-9784.65
-15826.8
-9366.54
-9292.7
-3587.86
-10086.2
-3117.47
-6159.7
-5185.44
-5054.93
-8737.47
-3211.68
-4225.89
-3474.02
-7407.57
-6754.57
-4911.09
-6052.3
-9999
-8043.78
-4706.83
-6997.87
-9959.86
572.954
804.693
962.316
-252.613
146.144
213.369
2130.17
2700
2956.57
-405.257
633.51
794.406
2555.85
3847.46
4407.23
-1205.44
1116.85
1606.9
1035.08
1601.97
1461.14
4680.76
5106.46
4778.08
3647
4403.61
4302.99
3816.48
5015.47
5258.95
-811.693
1628.22
1595.47
-3911.64
-1855.03
-1021.65
1553.1
2875.04
3302.14
1733.03
3225.85
3612.56
962.809
2824.75
3227.94
-2182.61
1100.08
1353.09
-83.6856
7.35969
42.2974
91.4275
110.683
111.561
130.796
137.714
-229.422
7.10132
112.744
241.104
253.804
256.584
286.388
315.216
-466.082
-58.0843
124.268
370.351
28.5005
212.272
264.343
365.324
39.5881
139.312
112.059
124.659
-178.914
-10.802
56.5734
130.681
-1157.44
-342.781
-103.375
224.376
-1744.25
-545.653
-284.604
312.715
-985.922
-261.528
-23.0027
362.881
-1426.64
-436.5
-242.614
314.022
-1067.43
-329.809
-103.772
189.099
-1920.31
-604.687
-302.942
385.562
-1130.77
-385.712
-105.43
246.933
-2010.81
-639.426
-320.402
422.243
-85.4978
-5.5644
18.1007
83.1596
-77.5731
-3.43728
5.50474
87.0239
-235.535
-21.297
50.8502
219.622
-142.698
15.1645
29.3848
237.237
-800.846
-200.638
-21.2113
340.472
-636.747
-130.534
-16.236
377.762
-439.944
-45.9816
73.6488
367.888
-298.84
-14.6306
20.0522
365.245
-1224.34
-340.671
-166.655
423.218
31.4239
31.0183
25.3196
67.6363
133.844
59.9729
36.8924
40.9836
2.82382
58.6645
51.2644
179.221
321.364
154.165
93.1098
109.15
-132.071
38.6557
57.4382
280.762
417.991
219.449
139.614
167.923
-186.193
48.8184
72.9101
372.825
401.516
254.643
160.523
200.284
-435.587
-1.325
5.1695
369.358
170.757
225.294
130.46
188.555
-1280.4
-157.221
-89.9893
358.095
-406.452
71.38
53.5124
142.307
-873.815
-56.3073
-48.2162
360.862
-190.783
149.617
91.3918
167.866
-1621.2
-297.203
-154.039
385.577
-552.044
-13.6614
11.7526
128.088
-1859.44
-449.983
-231.865
381.871
-693.248
-123.707
-42.4355
108.819
37.4533
18.1812
9.91054
6.08224
4.5421
50.8193
27.4646
15.7118
9.86354
7.41835
80.4461
38.6808
20.9878
12.9211
9.72229
134.213
74.7128
43.4328
27.5801
20.8651
114.167
55.6018
30.7294
19.1556
14.5053
192.507
106.114
62.2847
39.8858
30.3021
65.452
34.9173
20.5226
13.2012
10.0467
37.5582
19.0839
10.9028
6.95433
5.26815
100.727
46.207
25.6418
16.1092
12.1523
23.8794
6.97924
3.03775
1.69931
1.22863
146.988
75.9093
43.843
27.9614
21.2289
41.4413
16.9964
9.04098
5.56454
4.14459
36.8647
10.1113
4.08381
2.22086
1.59715
24.911
7.80967
3.62261
2.12985
1.57583
35.7504
9.29995
3.55622
1.88965
1.31162
18.438
2.82234
0.448301
0.041262
-0.0477197
30.5366
13.7357
7.17281
4.2857
3.1644
28.111
12.8734
6.77675
4.05679
2.9969
70.0679
31.1017
16.2972
9.78334
7.26585
65.2223
29.2199
15.4382
9.27763
6.86237
91.351
38.0432
19.7761
11.8435
8.80438
78.3491
35.9098
19.4368
11.8037
8.82668
105.423
53.6666
30.7874
19.5017
14.817
51.8232
26.2213
14.7744
9.14464
6.93968
60.6849
32.2932
18.8978
12.1307
9.23058
-508.342
-606.853
-1398.27
-1720.05
-2136.75
-2745.99
-2602.73
-3637.13
-2620.47
-3656.08
-2361.5
-3085.56
-2230.42
-2671.22
-2632.53
-3543.17
-2700.48
-3677.46
-470.968
-102.774
-22.301
-4.718
-1.14178
-208.321
-73.5224
-8.29658
-2.31077
-0.907933
-1520.52
-334.278
-72.9591
-15.5536
-3.79138
-542.072
-115.42
-23.3867
-4.55912
-0.977088
-2682.59
-593.212
-130.226
-28.0123
-6.88805
-943.709
-222.9
-48.9935
-10.6202
-2.55389
-3859.75
-858.325
-190.262
-41.3948
-10.3051
-1321.87
-339.999
-79.8344
-18.1987
-4.58983
-5402.18
-1235.62
-279.734
-61.9741
-15.6957
-1755.71
-510.042
-126.993
-29.9165
-7.75074
-7332.93
-1830.44
-437.352
-100.829
-26.3254
-2028.79
-626.857
-161.401
-38.7441
-10.2097
-6659.7
-1610.97
-375.67
-84.9368
-21.8362
-1969.22
-612.977
-157.492
-37.707
-9.85124
-7658.07
-1937.82
-468.798
-109.272
-28.7786
-2066.58
-621.644
-157.689
-37.4403
-9.83872
-7898.59
-1993.26
-484.374
-113.536
-30.0567
-2062.22
-622.555
-157.857
-34.7956
-9.69621
-269.607
-6394.52
-6289.6
-3582.43
3606
4965.67
10017
13167.9
5642.46
11452
2213.56
6952.71
5626.89
9335.15
10225.8
14101.7
12347.8
14039
7051.52
7975.49
-18800.1
-14104.9
-4580.8
-3610.83
-2824.14
-4551.88
-3161.84
-12381.8
-12292.3
-10514.1
-11208.6
-9296.27
-6447.16
-8793.36
-5457.82
-4196.59
-5214
-3342.48
-20408.9
-10260.7
-3128.48
-5208.35
-7783.91
-5326.33
-6359.47
-4819.61
-2371.44
-4023.61
-3482.97
-4055.02
-18904.2
-11837.4
-11913.6
-7622.02
-8142.84
-8137.12
-4165.78
-5335.07
-5434.43
-12902.2
-12505.3
-10967.2
-11216.6
-10589.8
-10159.1
-7669.82
-6515.13
-5569.86
-2633.54
-4064.53
-3386
-2550.94
-1595.26
-543.906
-3233.3
-2715.21
-2050.28
-1277.72
-434.317
-2511.62
-2092.22
-1567.11
-970.509
-328.902
-4076.34
-3421.18
-2578.68
-1602.95
-543.962
-2813.96
-2347.62
-1763.22
-1095.54
-372.066
-8321.89
-7191.97
-5902.72
-5706.45
-6421.61
-6790.72
-5455.71
-3955.49
-3315.56
-2856.9
-7323.13
-5047.21
-3891.22
-2992.31
-1364.72
-6088.69
-4611.26
-3244.59
-2596.4
-1864.19
-4726.36
-3320.42
-2229.72
-1865.83
-1133.92
-5149.7
-3890.89
-2784.65
-1747.38
-623.777
-6315.64
-4389.91
-3150.69
-2109.14
-857.957
-3830.96
-2522.01
-1716.24
-1093.91
-420.729
-3476.92
-2705.56
-1946.39
-1198.86
-413.213
-4212.01
-3188.18
-2248.66
-1370.87
-472.166
-2800.11
-2197.39
-1581.57
-966.587
-329.349
-14048.6
-11798.9
-10042.6
-9639.53
-9363.92
-7942.6
-5986.05
-4642.16
-3401.77
-1481.95
-2612.54
-2054.38
-1497.71
-935.988
-325.988
-4434.08
-3562.31
-2651.38
-1685.22
-591.679
-6459.27
-5103.71
-3856.39
-2562.18
-945.289
-4572.62
-3705.47
-2784.62
-1781.8
-622.295
-5555.14
-4562.1
-3429.28
-2164.32
-741.062
-4215.82
-3463.76
-2587.25
-1616.36
-553.351
-2050.32
-1659.35
-1217
-746.889
-253.056
-3547.12
-2930.1
-2183.9
-1351.87
-458.897
-2971.63
-2379.2
-1741.85
-1077.32
-368.913
-3520.5
-2870.76
-2132.41
-1329.36
-455.811
-12874.7
-11726.8
-10280.5
-10221.4
-9410.98
-8856.62
-6715.68
-5549.41
-4488.73
-2088.5
-9672.22
-7980.89
-6484.25
-5212.39
-2394.66
-6278.34
-4803.21
-3733.4
-2611.11
-848.222
-6901.94
-5507.05
-4184.2
-2750.71
-940.883
-6674.15
-5070.64
-3925.12
-2738.84
-865.598
-3609.84
-2941.89
-2196.69
-1382.56
-476.22
-4710.91
-3902.99
-2924.14
-1821.2
-620.438
-4702.97
-3833.08
-2870.45
-1815.2
-627.543
-6106.56
-13381.6
-10756.2
-34887.3
-10169.7
-45631.4
-6794.79
-17936.3
-8885.7
-7472.77
-17383.9
-13582
-9078.75
-10946.3
-19061.4
-15875.8
-3827.34
-2604.33
-8791.5
-6163.75
-6722.51
-3508.08
-24241.1
-17051.8
-14734.6
-10274.3
-15258.1
-9935.91
1636.36
-1455.78
-41943.6
-51076.1
-21171.6
-29014.8
-53569.8
-65412.3
-23783.5
-30019.3
-31310.6
-40474.3
-23798.1
-33820.1
-15034.2
-18167.7
-2050.98
-390.987
-4466.72
-1436.71
-3883.72
-1824.15
-12516.1
-4464.7
-1961.99
-922.282
-5508.86
-1521.81
-14529.7
-4176.57
-19154.9
-5983.22
-18049.2
-11043.3
-18606.1
-12881.9
-17636.9
-12565.9
-17550.5
-14493.6
-14573.3
-10457.2
-13371.2
-8976.58
-19353.9
-14265.3
-20700.8
-15179.2
-18666.3
-15919.2
-20190.9
-16853.2
-16061.1
-11776.3
-17792.9
-12635.8
-16824.9
-7029.63
-9250.97
-11113.1
-16390.4
-7662.7
-8358.6
-11329.7
-17494.7
-6695.56
-10176.2
-11131
-18319.5
-6798.7
-11001.9
-11357.3
-634.455
-471.942
105.928
-632.114
-2346.78
-2885.97
-1639.63
-4244.92
-3475.41
-4629.19
-3597.23
-7799.03
-16428
-15825.3
-13010.3
-15217.2
-9122.45
-10686.5
-8509.39
-7219.91
-15051
-12207
-12299.8
-11581.3
-10941.4
-10252.8
-15582.3
-668.69
-851.164
-421.442
-635.316
-2882.95
-2581.25
-3249.19
-3227.58
-2744.28
-1412.42
-5393.63
-5159.61
-11657.6
-12566.5
-10877.4
-10855.2
-9705.7
-8090.88
-13020.4
-11227.2
-11483
-10891.7
-14995.7
-15542
-14052.7
-12737.3
-11450.5
-9535.2
-10228.6
-8107.21
-13619.3
-10182.8
-12991.1
-7860.13
-10648.1
-10836.7
-16029.3
-19046.6
-16004.8
-21074
-8632.42
-9018.13
-11070.6
-5674.92
-10487.4
-16779.4
-10909.6
-17910.9
-16205.5
-25689.3
-16633.3
-26004.9
-8680.94
-14543.1
-9131.73
-15850.4
-10381.7
-8049.7
-13616.5
-6265.61
-10539.1
-4413.26
-12577.8
-3379.18
-11094.2
-11595.1
-14416
-7501.56
-10124.5
-13455.1
-13313.6
-9570.88
-1040.95
-790.874
-579.216
-715.577
-1959.04
-912.091
-2710.69
-2700.05
-351.976
-200.737
-4825.17
-4700.24
-13588
-11734
-10653
-8276.85
-6812.01
-4658.55
-9003.11
-6882.2
-9471.6
-6376.76
-19823.9
-16960.5
-10324.8
-8424.98
-7934.31
-5904.95
-6839.8
-4788.75
-7626.93
-3937.52
-5855.43
-11126.6
-5401.37
-10822.6
-7244.67
-11838.5
-8493.63
-13198.5
-1650.84
-1572.52
-1484.49
-1504.24
-4619.11
-4855.59
-4335.94
-4515.87
-2049.89
-2395.87
-9150.8
-10079
-5571.16
-6281.49
-10418.4
-9793.59
-14292.6
-16075.2
492.126
5169.04
-7790.19
-5829.2
-6197.56
-3730.72
-1415.12
-1351.59
-1537.21
-1319.81
-3186.2
-2201
-2537.76
-1607.54
-8347.41
-4241.42
-7793.01
-3850.28
-8529.56
-3404.83
-9571.99
-3508.92
-6768.23
-9731.56
-7596.36
-10761.7
-11290.9
-12806.3
-12529.1
-13929.8
-6115.42
-8919.27
-5371.56
-7940.36
-8136.85
-11487.5
-9142.26
-12023.6
-13265.5
-14715.2
-14513.5
-15415.2
-5950.44
-9442.48
-6054.46
-9765.06
-1267.97
-2249.84
-7893.69
-4990.64
-1452.14
-2394.2
-7127.38
-4441.93
-1270.91
-1968.03
-8352.03
-5367.73
-1443.96
-1844.5
-8411.83
-5531.42
-1303.34
-1493.62
-1373.59
-1585.67
-3201.84
-3592.06
-2477.82
-2897.31
-7743.75
-8442.9
-4653.97
-5181.71
-4306.23
-9415.22
-3021.71
-882.401
-1936.72
-4191.69
-1272.57
-2070.73
1479.3
-1394.97
-13615.7
-10136.3
-8053.51
-8038.84
-4843.84
-1809.14
-2011.98
-1868.69
-2339.54
-4277.37
-4635.66
-3459.32
-4400.97
-9001.54
-10223.3
-5252.58
-6779.88
-6187.76
-7508.05
-2278.84
-4298.63
-3662.92
-4984.13
-1386.68
-2264.37
-2521.65
-3880.55
-11283.9
-8827.37
-6379.43
-4398.8
-4980.06
-3431.89
-4970.46
-3512.47
-3206.72
-3995.36
-7649.84
-8159.72
-11469.2
-7850.8
-11227.1
-11242.5
-13983.1
-11419.8
-9702.28
-6488.15
-6190.12
-6897.01
-12435.8
-5845.01
-12687.1
-4755.7
-15360.2
-10521.2
-15941
-9520.1
-10306.9
-4526.18
-10381.8
-3361.97
-8093.95
-6750.53
-6799.83
-10584
-6247.17
-7280.73
-5695.91
-10313.1
-7803.57
-5852.46
-7115.02
-11117.6
-8370.02
-4994.88
-7340.65
-10256.5
-1710.48
-1773.41
-1685.84
-1328.25
-5045.86
-5678.03
-2745.8
-1536.6
-11096.4
-9174.86
-4144.43
-527.094
-9374.01
-8116.34
-6110.76
-5053.21
-5248.29
-4121.74
-2142.6
-952.922
-2764.12
605.253
-8436.13
-6983.39
-4197.12
-2870.35
-2909.49
-1347.35
-2476.1
-639.406
-4539.31
431.957
-328.949
-140.606
-47.248
40.3178
-349.309
-179.733
-55.3897
18.7781
-849.698
-366.537
-103.499
134.328
-799.45
-420.111
-166.083
-8.57374
-1288.88
-556.997
-190.419
190.031
-1256.43
-635.276
-359.506
-135.007
-750.618
-399.424
-255.817
-93.9984
-522.802
-252.226
-109.367
27.145
-1619.39
-643.831
-336.077
39.3983
-1897.75
-611.428
-345.156
319.693
-1638.34
-646.141
-325.96
70.679
-1623.83
-522.918
-320.863
321.545
-1423.03
-568.382
-255.465
132.505
-2037.82
-657.914
-360.473
357.02
-1283.88
-491.179
-175.897
211.656
-2062.34
-665.118
-343.348
415.334
-310.055
-119.385
-44.3777
59.539
-311.877
-104.411
-54.5806
66.771
-806.566
-314.736
-111.713
159.216
-793.645
-276.464
-138.589
187.816
-1440.19
-542.619
-226.127
286.054
-1393.55
-487.674
-241.389
316.16
-1449.54
-587.26
-284.21
126.439
-1061.63
-393.206
-198.862
316.479
-1647.37
-546.236
-337.9
372.135
-225.88
-75.8703
-30.0679
40.935
-128.634
-53.5733
-19.4053
4.15983
-629.69
-212.116
-96.869
108.094
-365.628
-153.737
-65.285
6.49398
-898.065
-311.866
-149.225
173.684
-536.066
-243.792
-104.065
10.9691
-1085.27
-399.108
-200.426
222.625
-730.513
-334.399
-148.34
8.23805
-1311.86
-450.762
-283.224
197.483
-995.574
-392.059
-206.978
-27.5203
-2251.9
-732.304
-456.765
144.35
-1203.16
-420.902
-238.167
-41.2137
-1946.4
-636.067
-417.615
143.522
-1254.78
-439.732
-246.916
-50.436
-2255.83
-699.135
-411.411
240.259
-1040.33
-342.986
-186.006
10.3158
-2072.78
-590.686
-322.101
332.152
-850.757
-235.809
-110.332
69.1391
-7.48105
-12.31
-9.22483
-6.45207
-5.05808
-29.4137
-22.839
-15.256
-10.3228
-8.02571
-15.9839
-25.8699
-19.3256
-13.4409
-10.4583
-93.117
-65.3819
-42.2916
-28.2024
-21.7957
-40.0222
-41.6152
-28.9745
-19.7088
-15.2136
-143.364
-95.9022
-60.4561
-39.8346
-30.6408
-47.2513
-31.612
-19.8224
-13.0074
-9.99481
-20.9988
-15.7262
-10.2949
-6.853
-5.31632
-37.4739
-35.8204
-24.0446
-16.1363
-12.4942
9.34862
-2.10363
-2.53297
-1.925
-1.54329
-97.5942
-67.0388
-42.2234
-27.7897
-21.3592
-7.02568
-12.0807
-8.5209
-5.81412
-4.54669
15.5322
-1.45455
-2.88766
-2.31373
-1.87884
5.26589
-3.22476
-3.01453
-2.17781
-1.72289
18.2602
-0.543651
-2.43536
-2.05321
-1.7613
16.8799
2.23998
0.101881
-0.208099
-0.272639
0.0471906
-8.15385
-6.71438
-4.83198
-3.82193
-3.3289
-8.33156
-6.47909
-4.61184
-3.63846
-3.93979
-19.8833
-15.6346
-11.0992
-8.71804
-10.2007
-20.25
-15.1877
-10.6889
-8.40825
-3.28095
-25.5687
-19.6067
-13.8216
-10.8228
-27.2124
-29.2866
-20.1929
-13.9061
-10.8139
-71.1909
-48.4951
-30.3941
-20.0595
-15.387
-35.8098
-24.7502
-15.7207
-10.561
-8.10084
-51.3038
-30.2602
-18.3067
-11.8925
-9.10591
-181.381
-298.445
-608.967
-957.599
-1189.53
-1799.41
-1757.61
-2743.8
-2003.18
-3009.22
-2236.18
-2989.14
-1930.14
-2444.08
-2589.3
-3504.24
-2692.55
-3668.65
-472.874
-105.403
-23.0305
-4.88199
-1.18191
-144.752
-66.9129
-6.5252
-2.07783
-0.902606
-1544.85
-344.986
-75.6669
-16.1494
-3.93566
-380.694
-88.0487
-18.7581
-3.77231
-0.822213
-2725.98
-610.224
-134.542
-28.9794
-7.12594
-747.81
-189.818
-43.4507
-9.71106
-2.38296
-3897.87
-875.228
-194.82
-42.4619
-10.5772
-1144.24
-309.591
-74.7034
-17.3618
-4.43631
-5425.9
-1249.77
-283.932
-63.0197
-15.9761
-1637.46
-488.92
-123.419
-29.3551
-7.6565
-7330.91
-1834.09
-438.986
-101.341
-26.4865
-2006.39
-621.687
-160.38
-38.5695
-10.1789
-6669.23
-1620.08
-378.796
-85.7914
-22.0818
-1911.93
-601.255
-155.41
-37.381
-9.79966
-7653.05
-1938.81
-469.499
-109.528
-28.8656
-2059.55
-619.932
-157.318
-37.3714
-9.82485
-7896.76
-1993.49
-484.58
-113.616
-30.0849
-2061.27
-622.315
-157.799
-34.7821
-9.69339
-183.25
-6273.22
-5844.82
-2882.31
-1477.37
-879.714
-3170.92
-2500.45
-5372.59
-5843.25
-3052.13
-2871.15
-433.415
-655.656
-1096.96
-1687.48
-2369.59
-3032.93
-298.077
-617.821
-1248.4
-2105.56
-3077.86
-4036.32
-338.418
-147.345
-594.307
-369.57
-1094.96
-818.818
-1738.38
-1500.85
-2365.28
-2345.96
-2879.74
-3161.43
-3707.72
-4408.01
-5250.19
-7271.14
-7566.19
-9077.89
-4867.74
-5413.42
-5497.99
-5213.8
-4266.93
-3786.73
-391.805
-332.201
-252.536
-157.777
-53.6505
-592.414
-502.007
-381.416
-238.205
-80.9834
-990.585
-838.887
-637.026
-397.703
-135.189
-1522.61
-1288.34
-977.679
-610.163
-207.386
-2135.39
-1804.61
-1368.29
-853.68
-290.151
-2727.4
-2300.37
-1742.24
-1086.91
-369.536
-269.363
-228.31
-173.504
-108.373
-36.8449
-558.018
-472.674
-359.006
-224.157
-76.1986
-1126.97
-954.076
-724.329
-452.162
-153.697
-1899.22
-1606.56
-1219.01
-760.812
-258.612
-2772.69
-2342.62
-1776.27
-1108.51
-376.861
-3628.8
-3060.53
-2318.8
-1447.53
-492.411
-306.004
-259.494
-197.292
-123.277
-41.9249
-133.235
-112.986
-85.9017
-53.6739
-18.2539
-537.121
-455.256
-345.96
-216.088
-73.4713
-334.04
-283.157
-215.196
-134.417
-45.7033
-989.064
-837.822
-636.338
-397.308
-135.06
-739.729
-626.704
-476.04
-297.236
-101.042
-1568.91
-1327.77
-1007.66
-628.832
-213.714
-1354.58
-1146.38
-869.933
-542.814
-184.462
-2131.77
-1801.57
-1365.72
-851.79
-289.432
-2113.92
-1785.85
-1353.13
-843.501
-286.519
-2588.83
-2182.36
-1651.69
-1029.67
-349.902
-2840.35
-2392.05
-1807.91
-1125.45
-382.106
-3321.87
-2792.7
-2112.41
-1318.95
-448.973
-3922.21
-3279.11
-2478.04
-1553
-530.639
-4609.7
-3815.27
-2886.55
-1830.5
-631.953
-6230.57
-5068.09
-3869.92
-2535.28
-896.609
-6173.81
-4912.84
-3857.74
-2728.88
-1070.19
-7118.11
-5579.79
-4500.97
-3390.24
-1404.61
-4362.64
-3670.17
-2778.91
-1737
-591.785
-4828.42
-4047.57
-3064.43
-1921.82
-656.988
-4866.32
-4057.92
-3075.96
-1943.18
-669.03
-4551.22
-3761.29
-2863.61
-1839.45
-643.247
-3625.33
-2954.87
-2279.34
-1522.54
-557.374
-3112.99
-2497.27
-1962.18
-1376.59
-528.544
-458.305
-730.938
-1223.7
-1863.63
-2592.18
-3282.58
-330.759
-716.49
-1412.82
-2329.69
-3343.46
-4306.32
-364.761
-167.993
-674.381
-433.195
-1231.83
-930.777
-1933.94
-1672.62
-2625.72
-2638.07
-3181.94
-3665.22
-3969.3
-4671.97
-5510.3
-7446.98
-7685.1
-9123.12
-5093.47
-5548.71
-5522.48
-5140.84
-4173.93
-3746.29
-414.412
-351.481
-267.283
-167.036
-56.8078
-660.837
-560.408
-426.125
-266.299
-90.5677
-1105.93
-937.51
-712.667
-445.308
-151.444
-1683.29
-1426.13
-1083.68
-677.049
-230.257
-2339.16
-1980.1
-1503.93
-939.59
-319.592
-2957.39
-2499.96
-1897.75
-1186.07
-403.647
-299.047
-253.617
-192.855
-120.521
-40.987
-647.672
-549.172
-417.549
-260.934
-88.7428
-1276.58
-1081.97
-822.396
-513.869
-174.764
-2103.65
-1781.83
-1353.83
-845.872
-287.695
-3015.86
-2552.08
-1938.18
-1211.08
-412.014
-3877.6
-3276.54
-2487.17
-1554.94
-529.369
-329.906
-279.86
-212.854
-133.04
-45.2525
-151.962
-128.93
-98.0751
-61.3068
-20.8549
-609.85
-517.281
-393.401
-245.878
-83.6302
-391.794
-332.374
-252.81
-158.021
-53.7496
-1113.58
-944.227
-717.902
-448.617
-152.574
-841.547
-713.679
-542.68
-339.141
-115.344
-1747.31
-1480.76
-1125.36
-703.101
-239.11
-1511.41
-1281.01
-973.632
-608.309
-206.87
-2370.19
-2006.9
-1524.42
-952.316
-323.883
-2381.68
-2016.83
-1531.97
-956.954
-325.434
-2867.26
-2424.03
-1840.03
-1149.79
-391.222
-3303.8
-2793.66
-2120.41
-1324.56
-450.575
-3565.65
-3007.16
-2281.85
-1428.27
-486.828
-4173.34
-3505.11
-2660.75
-1673.18
-572.7
-4866.32
-4054.67
-3087.06
-1966.51
-680.329
-6425.32
-5267.24
-4051.59
-2668.43
-945.455
-6319.14
-5068.09
-4007.09
-2847.58
-1118.79
-7178.81
-5647.4
-4569.4
-3448.65
-1428.95
-4573.36
-3855.93
-2926.01
-1832.09
-624.75
-4959.2
-4167.38
-3163.01
-1987.57
-680.185
-4898.24
-4095.06
-3112.81
-1971.22
-679.6
-4495.96
-3724.93
-2845.3
-1833.98
-642.643
-3550.21
-2899.23
-2244.8
-1506.95
-553.844
-3080.55
-2473.32
-1947.65
-1370.71
-527.452
-18716.7
-14160.1
-4972.57
-4015.2
-3367.4
-5230.43
-3662.49
-13097.9
-14232.7
-11889.1
-13664.1
-7416.99
-11527.5
-5429.99
-5694.16
-4024.49
-21101.3
-11095
-3628.9
-5812.14
-8404.35
-5699.22
-7008.33
-5353.67
-2617.66
-4713.43
-4089.06
-4547.21
-18779.6
-12054.6
-12422.5
-8002.89
-8497.36
-8577.42
-4813.45
-6008.27
-5866.7
-12882.7
-12549.2
-11066.7
-11395.1
-10772.8
-10253.3
-7778.37
-6632.51
-5684.04
-2684.39
-4439.62
-3725.67
-2827.1
-1777.69
-607.894
-3609.41
-3045.33
-2310.5
-1445.27
-492.268
-3022.51
-2546.36
-1929.89
-1206.85
-411.266
-4707.58
-3975.39
-3015.71
-1884.44
-641.363
-3284.99
-2766.32
-2097.44
-1313.02
-447.783
-9833.02
-9042.71
-7863.61
-7574.65
-8014.39
-10188.9
-9526.71
-8015.6
-6915.19
-5405.54
-9269.75
-7086.97
-5806.94
-4524.94
-2045.54
-10114.8
-8876.77
-7222.95
-5991.84
-3820.96
-6335.39
-5128.21
-3905.74
-2562.93
-936.64
-9395.81
-7279.62
-5654.23
-3959.37
-1623.52
-4731.99
-3893.04
-2949.8
-1888.7
-664.616
-4944.43
-4056.07
-3074.53
-1975.62
-698.662
-3529.89
-2918.71
-2208.91
-1404.2
-489.247
-15385.4
-13417.1
-11764
-11288.8
-10689.7
-8997.8
-7109.24
-5702.04
-4229.29
-1831.62
-3157.95
-2597.74
-1974.52
-1271.88
-450.016
-5071.96
-4189.54
-3199.16
-2070.16
-733.194
-7163.72
-5828.25
-4517.71
-3050.64
-1133.6
-4971.2
-4101.93
-3135.38
-2031.16
-714.21
-6191.7
-5151.7
-3919.4
-2494.58
-858.058
-4750.27
-3968.38
-3012.65
-1905.41
-656.644
-2323.32
-1939.39
-1467.54
-923.708
-317.528
-4211.78
-3535.87
-2679.11
-1680.43
-574.66
-3600.2
-2987.66
-2264.35
-1438.04
-499.592
-4024.28
-3355.27
-2546.8
-1614.08
-558.371
-12967.2
-11988
-10669.5
-10744
-9984.51
-9160.7
-7043.25
-5876.67
-4773.61
-2220.51
-10422.2
-8823.73
-7341
-5952.42
-2745.45
-6713.14
-5246.18
-4139.85
-2916.17
-950.693
-7308.82
-5926.89
-4571.11
-3037
-1045.72
-7203.27
-5613.67
-4432.97
-3125.18
-1002.44
-4247.1
-3533.64
-2689.11
-1714.66
-594.485
-5360.33
-4495.57
-3409.03
-2143.04
-733.784
-5154.56
-4275.11
-3255.41
-2084.31
-725.463
-483.857
-1314.02
-1988.9
-2605.28
-3227.93
-3794.86
-2304.81
-5957.93
-5620.93
-2322
-6804.82
-6096.64
-7339.54
-9801.46
-1300.45
-175.565
-2464.64
1162.85
-9634.31
-7970.53
1840.93
-1688.66
-4733.05
-4568.68
-1795.14
-5208.05
-2900.12
-5873.18
-6051.39
-579.874
858.96
-1073.56
3220.69
-6829.11
-4350.62
3607.05
-1055.42
-3256.97
-3373.61
-1247.98
-3293.99
-532.58
-4425.92
-4466.26
-174.795
1049.12
49.5669
3400.49
-4253.63
-474.456
4127.54
-717.269
-2357.23
-2755.5
-972.374
-1821.48
749.291
-3774.55
-4248.68
19.4976
767.664
373.115
2875.94
-3273.21
1455.15
3961.58
-625.855
-2229.2
-2652.77
-900.015
-1714.96
476.83
-4023.84
-5479.63
94.1925
596.462
481.243
2532.73
-3121.64
1490.03
2786.9
-606.429
-2203.46
-2596.73
-877.025
-2095.85
-244.838
-3960.68
-5390.81
140.675
938.214
396.818
2648.37
-3588.11
662.514
2112.98
-1316.55
-3142.98
-4130.71
-1678.31
-6438
-11483.9
-6895.99
-12189.8
-1622.22
-1447.38
-5215.7
-4391.37
-2460.91
-9573.82
-4745.39
-1293.61
-3071.64
-3706.37
-1461.19
-6111.43
-9835.32
-6220.53
-8969.59
-1698.88
-1340.86
-5113.66
-4204.29
-1815.55
-8873.06
-4642.08
-1206.3
-2884.09
-3118.85
-1194.88
-5564.72
-8627.05
-5284.7
-8009.97
-1475.58
-1732.49
-4537.39
-5028.52
-2077.29
-7876.85
-5234.41
-1222.62
-3163.75
-2909.42
-1069.87
-5940.99
-8509.95
-5249.44
-7899.91
-1558.24
-2171.87
-4730.39
-6264.64
-2616.78
-8686.72
-6414.54
-1240.89
-3159.91
-2876.3
-1039.37
-5886.91
-9206.6
-5280.65
-8701.2
-1702.31
-2804.06
-5126.3
-8064.52
-3715.71
-10358.7
-8452.09
-1260.97
-3166.91
-2851.6
-1030.92
-5994.51
-9470.49
-5179.36
-8615.76
-1920.08
-3503.18
-5674.68
-9261.1
-4947.21
-11464.8
-9518.51
7065.01
8550.28
17617
27448.5
26597.8
51870.2
18421.1
55387.7
19007.1
44420.6
23368.2
38373.7
17907.9
23600.6
8289.16
8381.03
12454.1
14045.6
17125.8
15509.5
11946.4
17992.4
17821
17862.4
4628.62
3351.51
6248.44
4458.09
11385.8
7324.11
21053.1
14623.9
17560.5
17772.3
17777.1
17866.3
4023.18
3628.63
41002.6
50724.3
21798.6
29113.6
52961.7
65177.2
24549.2
30204
30656.7
40102.4
24401.2
33838.7
13993.9
17753.1
2661.2
847.615
3413.17
1186.27
6328.43
2605.14
11024.1
4040.85
7195.6
2389
7325.62
2070.39
14459.5
4204.56
18976.8
5939.99
24575.2
14007.3
20813.5
14378
25320.5
16304.2
20103.3
16302.9
16043.2
11555.5
17552.9
11062.5
20237.4
14963.1
20919.8
15379.7
19710.4
16729.3
20479.5
17088.2
16598.2
12301.5
17913.5
12788
17641.6
7206.86
10010.9
11376.6
18936.6
8279.25
9864.64
11825.3
17728.1
6747.64
10534.3
11266
18346.6
6802.98
11106.6
11397.6
2567.65
2864.7
906.643
1753.37
7882.67
9222.18
3223.59
6057.63
12835.5
15231.4
5709.85
10187.9
17283.8
9154.51
17312.1
20578
10251.8
6760.47
10809.3
12114.3
20895
13049.5
9763.29
12706.4
13971
13401.8
16620.6
2812.61
2890.23
1708.57
1854.94
9032.89
8669.54
5771.8
5869.52
13562.3
12531.3
8496.14
8575.3
9623.93
10790.2
15214.3
16143.9
16704.3
15741.3
19691.3
18147.8
13374.4
13354.7
12883.1
14144.3
16572.6
15375.2
15504.6
13185.8
13773.4
11220.3
15121.6
12149.1
14096.1
7804.27
11044.6
10864.8
15572.2
18280.8
15904.1
20831.6
9276.18
9257.28
12727.5
6049.44
10628.1
16870
10951.1
17947.7
16119.6
25482.9
16623.6
26000.3
8937.14
14733.6
9202.53
15908.1
10972.9
8297.08
13935.5
6405.29
11941.1
4760.78
13202.3
3501.09
11342.4
11759.1
14563.8
7574.91
10193
13507.3
13350.4
9599.62
2697.81
2528.8
2227.52
1770.4
1745.12
1546.73
8053.78
7039.92
6235.17
5218.27
4428.51
3793.31
10612.7
9139.18
8449.65
7498.81
6145.62
5635.53
9787.94
8099.37
7775.33
15155.5
11522.5
9498.95
13489.1
10089.4
7960.37
14921.2
11903.7
10170.9
11332.3
7844.79
5956.54
18299.4
15123.8
13598
13308.6
10731.9
9040.79
11612.1
8896.72
7127.45
10249.4
7808.8
6319.99
10869.7
6626.4
4225.25
11299.2
18467.2
9551.57
13721.2
9103.92
18804.2
7601.6
15389.3
228.196
1608.49
-172.014
934.595
3537.84
6685.12
2203.23
4016.4
1880.56
3990.21
10925.5
16351.9
8667.15
6368.94
11462.7
10017.6
15285.7
16345.2
-508.042
-5339.49
8316.53
5867.85
6400.18
3694.08
1457.91
952.193
1150.12
705.567
3935.03
1303.4
1943.67
242.785
9959.26
3072.02
7415.27
2327.71
8377.8
2535.95
9480.07
3152.53
12189.1
12130.5
9509.9
12072
18244
16520.5
14961.3
15759.8
7174.17
9512.65
8368.09
8764.83
8913.41
12043.6
9373.19
12183.6
14293.3
15503.9
14816.4
15643.3
6357.8
9683.42
6171.93
9831.83
1076.48
1731.73
7845.43
4687.1
1071.28
1520.59
6872.91
3991.52
1045.25
1555.67
8304.07
5150.68
1347.29
1673.33
8410.97
5435.25
-126.898
-245.484
477.382
358.747
-721.676
-1230.06
871.794
659.004
1400.89
394.649
2803.23
2556.34
-7642.75
-3899.9
-4381.69
-2717.13
316.89
-7054.05
-10374.2
-4866.93
-4744.69
297.237
9248.56
6899.16
5861.7
6190.12
3912.77
-467.578
-358.455
208.359
343.75
-1356.34
-1571.61
713.58
990.734
-1066.71
-1747.71
1736.6
2187.71
-3153.87
-1733.99
-8097.13
-5839.96
-4227.39
-3078.71
-3682.13
-3092.15
680.755
1605.4
4873.11
3350.02
-457.43
-2277.47
-509.772
-1901.37
717.767
-427.66
1310.92
1825.94
4135.49
4586.57
9829.02
6270.01
8588.02
8432.76
12955.6
10177.1
7740.3
4850.59
2740.24
3447.86
11632
4938.75
12465
4541.19
14886.6
9784.72
15826.9
9366.6
9292.86
3588.01
10086.4
3117.63
6159.83
5185.62
5054.94
8737.66
3211.93
4226.33
3474.09
7408.03
6754.67
4911.23
6052.33
9999.15
8043.95
4706.99
6997.98
9960.05
-549.985
-754.893
-900.004
205.263
-155.748
-214.339
-2115.06
-2687.93
-2948.09
420.674
-624.159
-788.451
-2549.59
-3842.1
-4403.35
1210.49
-1112.94
-1604.14
-1034.9
-1601.76
-1460.94
-4680.18
-5105.9
-4777.6
-3645.99
-4402.65
-4302.23
-3813.39
-5012.56
-5256.65
813.67
-1626.41
-1593.99
3911.78
1855.22
1021.86
-1552.64
-2874.56
-3301.68
-1732.28
-3225.1
-3611.88
-961.66
-2823.57
-3226.87
2183.67
-1099.12
-1352.32
79.4193
-5.85078
-38.0118
-83.608
-103.892
-103.97
-121.128
-126.902
227.817
-7.72791
-113.385
-241.42
-252.417
-256.082
-286.21
-314.915
465.093
57.6379
-124.695
-370.581
-28.5534
-212.348
-264.537
-365.412
-39.7545
-139.398
-112.142