/*--------------------------------*- C++ -*----------------------------------*\
| =========                 |                                                 |
| \\      /  F ield         | OpenFOAM: The Open Source CFD Toolbox           |
|  \\    /   O peration     | Version:  2412                                  |
|   \\  /    A nd           | Website:  www.openfoam.com                      |
|    \\/     M anipulation  |                                                 |
\*---------------------------------------------------------------------------*/
FoamFile
{
    version     2.0;
    format      ascii;
    arch        "LSB;label=32;scalar=64";
    class       volScalarField;
    location    "2.8";
    object      gradTz;
}
// * * * * * * * * * * * * * * * * * * * * * * * * * * * * * * * * * * * * * //

dimensions      [0 -1 0 1 0 0 0];

internalField   nonuniform List<scalar> 
5712
(
7074.77
21508.4
5361.71
23544.5
2938.86
24965.2
5026.77
39613.6
8224.24
49757.9
8421.03
35258.9
8981.92
31316.2
8847.92
26884.3
4161.37
2242.56
12542
5892.03
3882.61
1776.27
13544.3
5441.32
5400.46
3959.71
15953.5
11611.5
3618.43
2828.13
16050.6
12099.7
8119.86
2943.58
6119.06
2202.72
2783.58
7505.41
38694.5
11831.1
11594.3
5367.55
47047.8
14760.5
10849.7
5112.68
25563.4
8525.36
13015.7
5937.58
20758.6
6606.1
4675.5
2539.14
8400.6
3385.59
4129.86
2626.65
8826.62
3315.66
5563.31
3538.72
5521.73
2303.38
9907.72
3567.77
3904.31
1438.37
12061.7
9031.77
7336.09
6554.03
13633.9
11933.1
7399.36
7893.12
6754.37
5758.28
8737.82
7436.91
5480.02
4699.04
3195.22
2737.2
5500.65
5486.68
3160.36
3160.99
5222.13
4067.72
3062.62
2144.45
5773.5
3244.42
5763.98
6394.61
7615.94
5806.61
8205.45
10895.6
4241.83
1809.05
3716.42
3856.45
2411.28
838.752
1705.36
1480.22
5270.47
10732.9
3870.21
12162.9
5697.08
10890.5
4618.46
12969.9
7560.84
10854.7
6427.71
13242
8556.11
10449.7
6460.61
6456.46
7974.3
6891.16
7457.41
10196
11844.3
17428.2
9296.67
7381.89
6955.92
8821.68
14152
13388.3
12964.6
15658.2
15757.4
13090.8
13119.3
15728.1
15645.5
12112.1
12581.2
15117.3
15265.5
8683.82
9217.27
8343.8
8804.35
10096.7
10072.8
11762.1
11418.7
14812.7
14964.8
7932.37
8690.79
8874.19
9414.02
9833.94
10549.3
11280.6
12315.6
14827.8
16051.7
9250.81
6307
7494.68
7592.88
10450.6
11960.4
8499.65
11304.2
6829.12
6980.66
8676.3
6216.45
3134.21
5483.73
1281.82
2038.92
5262.44
8389.32
2065.89
3144.01
2598.25
4777.17
963
1734.1
6465.15
5532.28
6585.96
4106.04
9091.59
6469.49
10315.4
6862.75
2991.9
3525.98
3741.22
2112.8
2325.22
2554.14
2599.72
1974.42
11234.5
7376.99
2402.3
12170.7
7636.75
2636.04
11078.6
7219.16
2443.15
12175.2
7620.42
2575.31
10608.6
6805.49
2277.16
11995
7513.39
2579.49
6556.79
3712.67
953.094
7668.14
5228.62
1696.47
8735.42
6156.26
2074.03
9617.6
6241.51
2039.32
11642
7289.03
2576.95
7268.69
3960.87
1289.13
6876.41
4427.87
1527.67
7665.82
5035.16
1711.51
9094.62
5823.53
1980.76
11035.1
6402.36
2208.67
-493.306
987.778
440.464
2628.54
1734.95
1767.27
4485.23
3948.87
596.702
975.375
632.425
1023.4
333.277
942.453
621.172
1383.16
1888
1130.14
3819.83
2696.78
1753.54
2882.55
2913.76
853.263
5773.7
1848.8
-4021.98
-542.282
721.873
744.008
71.1744
239.907
10355.9
4658.19
2754.79
1672.33
10208.4
4731.97
3002.91
1973.74
9913.74
5212.85
4067.74
2952.16
3101.28
2068
1770.17
1620.22
13075.2
11446.9
5744.85
7343.28
14499.6
13550.1
7059.1
8476.82
5295.1
6393.33
11210.2
9292.67
3666.5
4797.77
2130.75
2801.06
4726.97
5530.1
2745.84
3179.51
3032.45
4223.43
1724.06
2574.7
4776.54
3488.39
5448.39
3792.01
8179.07
5047.58
7325.78
4999.28
2860.22
2381.38
3781.77
2601.56
1629.24
1506.34
2390.77
1596.99
12189.5
8385.71
6142.82
6575.17
12092.5
8342.36
6091.45
6458.14
12241.3
7980.55
6232.55
6009.44
13181.2
12606.3
12420.9
9674.3
5777.19
7696.34
9398.91
10086.3
9612.35
6991.29
10911.3
9895.87
8318.02
6851.6
4654.95
7422.28
7571.57
7588.55
9421
7350.56
7283.16
7397.48
9186.86
6939.81
6791.46
7001.6
8746.19
8661.36
8195.91
8205.61
7104.54
6288.04
6368.34
6218.63
6588.8
6113.03
8206.94
6339.32
7192.58
5395.37
6162.08
4921.65
5668.58
4964.93
6034.06
4689.62
7532.24
4745.26
3810.14
3243.63
1708.75
7183.5
5466.63
5802.76
3645.12
2543.06
1473.01
3767.08
3419.72
4233.86
1827.47
1980.06
1088.29
5444.58
3097.97
2246.87
1546.07
3493.15
1509.67
1781.54
900.123
2243.81
2716.06
2851.02
4849.54
3380.46
4165.71
3475
6334.19
2630.54
1970.23
2069.21
3446.23
1211.18
508.512
494.503
905.613
6042.86
2770.86
794.972
6596.96
1756.47
462.388
5834.69
2858.93
889.259
6525.61
1799.69
495.673
5245.21
2583.67
664.21
6177.18
1657.4
372.99
5528.71
3004.31
784.526
4761
2541.35
703.544
4788.19
2393.4
678.62
4839.55
2280.21
524.091
5822.37
1451.47
245.412
6147.29
3219.78
990.917
5407.27
2943.6
967.72
4997.88
2613.58
856.342
4933.81
2006.37
538.009
6008.51
1477.89
465.91
1833.91
707.126
329.657
2.29899
742.269
302.714
153.898
27.9765
1899.21
759.279
393.201
69.3987
900.334
408.189
258.638
121.121
2186.25
910.377
515.7
156.73
1556.47
809.743
466.702
220.806
1151.71
728.695
372.715
128.055
1204.36
833.834
504.491
287.856
1839.39
879.334
458.703
46.9327
1763.31
812.696
470.704
-46.462
2316.12
976.451
558.745
119.911
2088.31
863.023
512.255
-78.3486
1397.35
771.507
411.259
55.3362
1371.81
720.908
441.559
72.1326
1040.36
674.397
435.617
257.877
953.972
605.022
421.978
247.027
2363.28
863.593
397.756
-99.4824
2500.6
844.585
428.434
-288.77
2359.08
876.823
431.824
-65.2332
2401.68
815.699
427.243
-268.507
2380.49
903.341
498.458
-11.8676
2153.38
739.585
424.266
-197.551
2210.3
871.123
552.362
137.155
2371.99
837.9
549.036
-196.64
1731.91
678.608
436.321
40.3813
2092.41
622.04
313.843
-269.32
828.382
221.277
95.6003
-66.1676
2059.96
630.535
325.751
-241.675
841.458
232.849
107.099
-51.5471
1925.2
613.994
342.355
-190.335
805.635
234.856
121.421
-30.1664
1617.97
527.087
330.66
-133.814
708.513
208.364
130.803
-2.46679
1417.7
493.463
327.555
-56.7341
633.788
211.023
150.42
38.177
1120.21
482.554
286.46
16.6395
578.982
295.469
186.098
101.754
1196.89
437.275
279.316
-19.7196
574.334
236.168
163.144
72.7834
992.632
519.709
317.15
79.6293
589.346
352.477
221.872
141.165
769.656
503.64
344.673
211.322
545.579
382.161
264.137
200.242
14.8193
13.066
8.92729
6.00998
4.63549
8.89532
6.79712
4.55242
3.07752
2.39123
38.5655
27.6799
17.7738
11.7316
8.98065
42.0884
27.3393
16.9146
11.0238
8.40757
94.2051
63.4714
39.7994
26.1677
20.0399
189.383
117.847
72.5832
47.3648
36.143
195.518
124.491
77.6046
50.9329
39.0024
213.446
131.489
80.9964
52.9606
40.5556
126.111
85.1264
53.8583
35.5085
27.1116
99.7114
66.9565
42.4085
28.0485
21.4505
130.569
84.8678
52.8219
34.7519
26.582
101.805
60.0576
36.7005
24.0745
18.3417
142.032
99.8556
63.8299
42.2432
32.3862
138.157
92.4019
58.4089
38.5754
29.5446
190.324
120.102
74.3287
48.6598
37.2494
182.863
115.834
71.7892
47.0095
35.939
4.9868
10.2764
7.39962
5.02788
3.89237
-1.17578
3.82839
2.91207
2.02142
1.59119
19.1353
18.3105
12.2435
8.18759
6.32782
1.90459
5.68326
4.03892
2.75586
2.16979
33.7571
28.3811
18.4593
12.3212
9.5554
19.7537
14.9158
9.27952
6.04842
4.691
109.049
70.025
43.1269
28.4363
21.8942
54.3167
34.8033
21.2052
13.921
10.745
140.208
77.2553
45.9952
29.8881
22.7873
2288.66
3969.03
2150.91
3847.07
1992.34
3573.52
1933.06
3429.7
2125.59
3944.98
1229.08
1839.17
1732.29
2768.81
801.197
1093.27
299.601
429.098
6774.47
1627.7
372.396
82.2819
20.5447
1801.39
476.732
127.444
28.4767
6.32556
6734.59
1595.38
362.26
79.447
19.744
1860.36
540.945
132.71
30.6959
7.66538
6519.6
1517.61
340.785
74.1453
18.3196
1805.96
523.685
127.509
29.1941
7.22108
6144.57
1401.86
311.831
67.5712
16.6785
1740.14
493.424
117.729
26.5194
6.4662
5417.51
1216.7
270.287
58.7805
14.6035
1626.79
440.128
102.607
22.8201
5.51224
3065.44
734.542
168.873
37.5571
9.48832
826.022
209.578
45.3952
9.33269
2.1186
4266.21
993.87
224.485
49.3231
12.3634
1155.7
302.159
68.9554
15.146
3.6387
1924.26
472.87
110.263
24.7556
6.28795
525.904
136.347
28.9665
5.64734
1.21665
704.814
175.171
41.1389
9.29445
2.37224
253.919
59.3609
11.7465
3.19823
0.437786
-1185.99
631.199
4084.5
-3481.73
958.582
1022.34
2558.12
3119.2
2101.92
3399.77
2804.63
4240.5
2671.4
3491.62
1277.37
1864.04
1397.38
1627.01
977.738
1013.03
2846.7
2258.96
-407.828
-971.802
-1054.09
-1407.55
-762.067
11771.8
2985.88
3959.9
3228.12
313.444
-96.0119
3261.47
-1066.46
-499.553
-889.746
-312.365
5815.46
2962.99
1281.81
712.481
3264.42
1466.64
183.415
342.767
-1192.05
-1192.02
819.067
690.155
9228.72
4574.5
4440.56
2563.93
3430.24
3113.04
-85.104
-1170.04
238.698
2017.66
1813.29
1629.25
1567.48
1243.85
1826.27
1500.21
1241.7
938.115
380.81
-365.622
-304.017
-223.031
-133.374
-43.9806
-868.662
-726.866
-545.696
-337.859
-114.331
-942.084
-787.75
-590.214
-364.415
-123.135
-1259.4
-1054.83
-792.122
-490.227
-165.874
-674.155
-555.888
-409.255
-248.459
-83.1786
8900.19
8379.43
7391.02
7202.88
7019.54
2864.27
2421.58
2287.14
2001.82
949.701
3283.09
2685.47
2331.07
1918.96
927.136
2538.01
2044.88
1744.25
1353.28
530.156
275.251
202.293
228.691
195.153
107.329
-8.57975
65.8113
107.008
100.041
40.9346
2737.6
2227.73
1773.39
1261.29
490.607
-681.749
-367.047
-187.358
-84.9885
-27.2096
-401.295
-287.615
-175.024
-83.9167
-22.5925
-650.181
-424.19
-250.982
-128.215
-39.636
-289.935
-245.707
-179.052
-104.268
-33.0827
4087.49
4119.95
3697.65
3793.35
3984.34
2481.11
1992.41
1713.02
1356.02
555.398
1196.28
1070.95
900.965
639.33
238.055
636.436
548.768
452.207
317.91
117.546
2752.18
2220.7
1722.41
1168.34
431.854
1326.81
1130.5
897.548
593.425
197.178
159.785
138.197
120.53
90.4216
33.7051
316.351
280.917
233.946
161.991
57.8342
-1035.52
-837.797
-607.74
-365.684
-121.812
-1050.61
-862.671
-632.503
-382.512
-127.624
733.22
628.011
501.121
337.119
121.444
616.905
527.766
421.661
283.841
101.779
6177.01
5092.46
4639.16
4653.73
4045.51
3612.58
2904.32
2380.58
1807.7
771.325
3578
3094.44
2678.64
2272.48
998.306
2063.97
1728.59
1418.86
1057.64
487.1
2961.39
2436.74
1891
1257.45
447.776
2632.03
1922.08
1620.66
1233.18
233.143
-68.2885
-42.6397
-9.05934
11.9783
6.92132
-1039.05
-860.422
-635.741
-386.67
-129.436
232.416
219.459
201.166
151.362
54.0551
-27829
-43624.3
-21040.6
-37095.1
-22443.4
-52250.3
-29541.7
-63511.7
-15717.6
-10505
-17502.5
-9377.2
-14702.7
-9642.05
-17668.2
-8362.4
-22833.7
-16010.8
-31710.4
-22820.2
-17959.2
-13112.2
-27319.4
-20425.4
-13813.8
-13986.1
-9643
-9245.94
-11677
-12407.2
-41826.4
-12859.9
-13325.4
-6343.24
-49280.6
-15641.2
-12107.6
-5819.04
-29202
-9629.14
-14812
-6915.97
-24482.8
-7477.99
-10915.8
-4637.59
-14997.4
-5634.29
-9491.86
-4236.87
-13880.3
-4945.62
-9884.63
-4763.68
-8475.92
-3231.99
-12034.4
-4271.65
-4721.78
-1747.39
-9859.91
-7067.29
-8054.53
-5982.73
-8591.11
-7317.8
-7184.74
-6296.05
-8031.08
-5844.48
-9256.48
-7237.96
-6057.57
-4434.22
-3606.75
-2554.02
-5495.06
-4620.47
-3153.01
-2523.18
-6101.21
-4175.07
-3670.09
-2238.17
-7159.33
-3787.06
-6090.74
-6568.98
-9277.83
-6507.8
-8628.51
-11149.2
-5116.04
-2146.33
-3945.59
-3971.77
-2993.99
-1069.43
-1883.15
-1565.16
-9557.14
-12167.2
-5457.77
-13692.1
-9469.44
-11873.2
-5959.05
-14164.1
-10484.2
-11477.2
-7407.53
-13882.7
-5847.12
-3598.64
-7489.94
-8689.68
-8921.86
-5416.02
-7468.28
-11179.8
-12753.8
-18039.9
-4840.88
-5490.4
-6681.55
-9103.13
-14445.4
-12859.7
-10600.5
-15914.8
-13201.4
-12494.2
-10890.4
-15933.1
-13309.6
-11428.8
-10124.1
-15066.3
-13228.3
-8016.45
-7534.29
-7915.46
-7157.63
-9065.97
-8053.54
-10393.4
-9186.99
-14477.2
-13284.6
-6630.56
-7281.03
-7321.83
-7130.82
-8345.25
-8089.65
-10100.2
-10002.5
-14460.1
-14200.1
-7794.72
-5310.85
-6532.32
-6699.3
-8217.52
-10393.4
-6912.76
-9838.59
-6373.49
-6458.92
-7909.71
-5580.67
-2475.09
-4798.22
-699.941
-1463.54
-4090.1
-7300.49
-1084.21
-2250.85
-2296.56
-4382.58
-676.462
-1394.05
-6316.12
-5283.77
-6580.4
-4025.47
-8763.16
-6085.25
-10256.4
-6629.58
-2895.25
-3342.92
-3725.42
-2052.02
-2210.35
-2378.43
-2560.43
-1898.48
-7732.4
-2988.95
-8213.27
-2858.5
-7920.49
-2966.13
-8619.97
-3176.01
-7574.63
-2791.59
-9340.66
-3693.5
-4227.15
-988.962
-4990.79
-1788.28
-5747.95
-2242.3
-6948.82
-2636.21
-9307.92
-3609.71
-5173.9
-827.268
-4381.49
-1462.01
-5015.68
-1845.28
-6520
-2417.78
-8427.82
-2751.81
-6062.82
-5921.23
-3839.39
-3755.67
-9576.03
-7617.38
-7355.82
-5838.55
-5346.79
-5011.23
-2039.28
-1698.11
-4999.49
-4900.16
-1730.77
-1666.03
-2363.65
-5670.08
-3617.27
-6845.77
-4735.37
-1928.82
-2976.75
-607.459
-6377.1
-2138
4065.67
1340.32
-135.844
82.1365
1127.75
1332.59
-2709.64
-1567.44
-1063.84
-463.652
-2691.42
-1716.34
-1137.26
-433.7
-2956.19
-2063.23
-1208.82
-264.629
-945.472
371.142
426.302
1087.38
-5016.05
-4958.8
-3661.42
-4210.88
-7123.77
-6892.97
-5780.53
-5815.63
-2525.86
-3266.65
-4137.32
-3999.72
-2452.74
-2817.09
-1134.9
-1198.61
-4084.74
-3996.9
-2252.81
-2009.53
-1262.67
-2027.91
-242.066
-691.544
-1670.58
-1085.69
-2687.75
-1694.82
-2860.56
-2263.35
-3366.54
-2614.3
-659.967
-230.061
-1621.53
-696.723
270.13
560.271
-416.315
242.882
-3133.23
-3295.76
-2761.97
-4463.84
-3223.04
-3443.8
-2913.13
-4574.91
-3799.62
-3562.4
-3306.77
-4479.89
-2163.43
-2529.95
-2851.83
-2896.08
-2830.91
-4277.06
-3500.27
-3459.18
-4405.37
-4952.04
-4364.32
-3405.93
-3014.91
-2939.21
-2455.51
-4466.66
-5724.24
-7749.38
-13394.2
-4255.9
-4858.78
-7291.33
-12467.5
-4276.3
-5243.3
-6696.8
-11171.1
-7422.47
-6431.03
-6079.33
-5383.71
-4438.47
-4947.72
-4856.02
-5951.91
-5770.95
-10016.5
-5033.2
-5868.18
-3758.96
-4875.44
-3250.64
-4548.68
-3642.37
-5416.83
-3577.7
-8043.68
-2323.93
-2484.26
-1232.65
-262.289
-4617.74
-4091.35
-3831.52
-2195.88
-668.937
-135.731
-1716.6
-2261.12
-2517.32
-598.955
-456.369
19.5748
-3855.75
-1877.19
-912.826
-474.445
-1824.12
-377.651
-211.114
158.29
-709.87
-1731.58
-1736.3
-4407.71
-1830.05
-3425.2
-2546.38
-6366.18
-1166.84
-1039.11
-769.214
-2755.36
281.934
457.021
865.691
-80.9488
-4828.64
-1586.06
-9883.21
-1425.8
-4162.39
-1707.7
-9344.2
-1415.93
-3705.58
-1103.49
-7809.54
-779.926
-3483.73
-752.794
-3135.58
-747.205
-3676.52
-1110.65
-3636.64
-618.399
-7004.69
-663.225
-4278.25
-536.644
-3897.78
-591.879
-4044.59
-809.433
-4301.92
-464.988
-6908.27
-724.691
-729.297
-208.529
-54.5269
197.732
-227.239
-53.5756
-16.0216
58.1487
-702.452
-167.901
-42.8221
196.33
-98.0621
37.2009
18.8708
71.4031
-760.863
-134.788
-5.72749
286.053
188.352
293.075
347.467
462.47
732.112
560.94
566.249
579.714
1066.19
780.066
634.793
471.946
-317.494
101.05
253.95
532.643
-321.785
147.344
204.568
593.507
-883.122
-129.93
37.7633
452.124
-710.13
-13.0313
56.4684
600.805
199.358
332.98
386.053
549.327
82.5143
308.148
314.008
521.427
630.484
524.651
456.502
407.426
507.822
461.917
383.359
388.167
-1202.55
-354.657
-135.265
341.056
-1650.03
-438.331
-263.314
548.774
-1174.02
-321.698
-134.161
337.995
-1599.31
-414.242
-257.252
528.605
-1169.08
-282.071
-154.312
326.513
-1442.09
-358.722
-249.028
463.307
-806.528
-95.8762
-70.0786
361.549
-1363.97
-272.127
-253.042
583.186
-606.445
-22.5625
21.1146
517.363
-1636.07
-342.049
-207.809
474.81
-717.951
-126.016
-50.4185
133.807
-1470.76
-289.999
-188.635
456.235
-666.874
-109.929
-46.5162
128.969
-1193.88
-196.787
-167.901
404.956
-555.334
-75.1649
-38.6661
122.598
-928.398
-125.919
-142.715
347.958
-467.232
-55.7278
-38.2291
109.466
-627.73
-34.9186
-62.0776
334.197
-261.484
6.55563
-4.3553
112.475
-240.582
124.385
162.426
406.331
149.239
202.635
174.154
219.381
-537.285
-15.4225
20.9025
346.683
-35.364
99.2218
74.8895
155.253
109.229
286.76
275.547
424.139
279.191
294.359
251.585
261.217
440.879
415.83
328.992
339.073
398.758
356.935
276.644
248.688
59.0519
21.2633
10.1492
6.05644
4.52519
25.3709
9.84666
4.8391
2.88891
2.14339
82.6494
35.3744
18.8494
11.7543
8.91526
61.0255
30.3205
17.3749
11.1141
8.49045
150.279
71.3704
40.1294
25.4036
19.321
223.903
123.623
72.9019
46.9266
35.9068
233.064
131.757
77.9175
50.077
38.2211
227.2
134.032
81.0062
52.5182
40.1485
191.094
96.1036
54.8462
34.8944
26.6867
155.731
75.6508
42.8147
27.118
20.7101
186.241
90.8983
51.8071
32.8594
25.0463
118.643
60.8111
35.1585
22.3551
17.1153
216.666
113.087
65.1924
41.5435
31.6857
192.583
101.868
59.1283
37.7641
28.8667
212.526
123.777
74.5167
48.2381
36.8616
205.793
119.97
72.1161
46.6438
35.6613
63.7072
19.1475
8.60401
5.03951
3.74036
29.5882
7.53329
3.18121
1.80009
1.30405
73.3093
26.1636
13.0398
7.93381
5.93849
31.8228
9.18556
4.24115
2.497
1.8219
90.6929
35.1996
18.4547
11.3646
8.49654
42.094
17.2126
9.47056
5.99686
4.49075
152.5
71.2773
40.357
25.3885
19.1763
73.2074
34.3088
19.6418
12.4095
9.34341
131.391
72.9696
43.2535
27.7336
21.196
-2737.54
-4130.56
-2612.17
-4041.51
-2403.87
-3757.31
-2267.96
-3575.29
-2279.05
-3903.86
-1283.42
-1837.94
-1811.79
-2751.93
-818.275
-1080.12
-289.624
-402.222
-7602.64
-1801.12
-407.782
-89.3477
-22.1408
-2003.06
-527.345
-139.985
-31.0268
-6.83258
-7463.15
-1748.34
-393.707
-85.7547
-21.1757
-2077.5
-599.279
-145.679
-33.4207
-8.28447
-7058.86
-1633.64
-365.169
-79.1188
-19.4636
-2009.17
-576.335
-139.107
-31.6147
-7.76987
-6476.62
-1476.61
-328.191
-71.0155
-17.492
-1900.53
-534.593
-126.849
-28.4316
-6.90281
-5573.79
-1255.66
-279.413
-60.7954
-15.0981
-1722.85
-466.289
-108.621
-24.1126
-5.81399
-3088.73
-742.305
-171.121
-38.1348
-9.6485
-847.464
-217.221
-47.4824
-9.83431
-2.2487
-4325.48
-1011.24
-229.012
-50.3986
-12.6434
-1198.33
-315.446
-72.2442
-15.8863
-3.81944
-1931.74
-476.165
-111.372
-25.0715
-6.3825
-532.895
-140.111
-30.2224
-5.99301
-1.31635
-705.488
-176.495
-41.7216
-9.48355
-2.43408
-252.428
-60.8711
-12.498
-3.44758
-0.518487
767.65
-1417.02
-5215.04
1849.27
-6478.96
-2836.66
-6346.63
-2864.31
-10681.9
-5805.85
-12522.1
-6838.13
-130.077
-528.32
-818.908
-943.683
-830.035
-454.335
-206.696
-799.711
-1212.6
-1338.16
-1088.78
-410.888
-102.955
-100.898
-385.584
-362.108
-496.184
-477.599
-350.941
-357.872
-230.09
-264.589
-392.788
-294.65
474.988
1772.77
3448.71
2746.75
2495.18
1209.28
755.607
2275.87
3768.91
4161.33
3539.49
1630.56
-117.35
-99.2485
-75.2492
-46.9128
-15.9335
-477.278
-404.355
-307.142
-191.772
-65.1879
-739.721
-626.629
-475.941
-297.159
-101.013
-852.084
-721.475
-547.733
-341.87
-116.191
-749.024
-633.707
-480.652
-299.746
-101.821
-410.229
-346.86
-262.411
-163.024
-55.2139
-186.396
-157.572
-119.425
-74.4371
-25.2798
-722.169
-611.568
-464.377
-289.89
-98.534
-1094.82
-926.98
-703.819
-439.373
-149.353
-1207.51
-1021.83
-775.525
-484.057
-164.538
-981.756
-830.161
-629.694
-392.925
-133.552
-370.999
-313.906
-237.908
-148.162
-50.2741
-92.9356
-78.6576
-59.6802
-37.2262
-12.6465
-91.1293
-77.1796
-58.5984
-36.5713
-12.4279
-348.431
-295.295
-224.37
-140.119
-47.6327
-327.275
-277.418
-210.827
-131.68
-44.7677
-448.318
-379.893
-288.61
-180.218
-61.261
-431.54
-365.686
-277.826
-173.49
-58.976
-317.069
-268.641
-204.031
-127.357
-43.279
-323.202
-273.722
-207.832
-129.72
-44.0841
-207.68
-175.658
-133.065
-82.8237
-28.0913
-238.518
-201.544
-152.66
-95.0937
-32.2801
-353.527
-297.869
-224.635
-139.256
-47.1172
-265.008
-223.223
-168.445
-104.561
-35.4199
423.833
356.321
271.472
171.579
58.9786
1576.03
1320.27
1004.02
634.845
218.466
3033.98
2526.95
1932.19
1240.7
433.028
2404.82
2026.03
1571.11
1030.81
379.553
2197.82
1855.45
1440.57
939.553
330.259
1096.32
941.418
734.615
473.175
161.596
675.015
566.899
429.882
269.83
92.2751
2028.17
1700.61
1290.19
811.799
278.304
3342.06
2795.25
2125.83
1346.9
464.998
3676.76
3075.51
2348.7
1500.27
523.651
3124.26
2615.18
2004.22
1286.59
449.285
1452.79
1226.94
946.639
609.283
212.431
303.964
697.74
979.227
1091.1
962.96
595.265
445.185
1029.67
1423.1
1515.07
1219.45
496.913
235.83
207.77
508.585
461.734
597.549
560.323
417.198
409.234
279.182
250.709
518.111
322.303
-313.501
-1540.71
-3030.76
-2196.85
-1813.77
-446.749
-692.168
-2171.89
-3525.89
-3725.09
-2898.44
-856.607
275.036
233.474
177.708
111.14
37.813
631.019
535.315
407.185
254.527
86.5761
885.36
750.869
570.999
356.863
121.375
986.283
836.25
635.791
397.305
135.122
870.423
737.953
560.973
350.49
119.185
539.243
457.962
348.274
217.407
73.8516
402.761
341.843
260.164
162.701
55.3555
930.944
789.52
600.41
375.268
127.642
1286.16
1090.33
828.905
517.993
176.177
1368.65
1159.74
881.414
550.759
187.325
1101.08
932.617
708.627
442.789
150.614
449.63
381.492
290.034
181.12
61.5573
213.397
181.158
137.89
86.2358
29.3391
188.003
159.593
121.468
75.9612
25.8424
460.009
390.304
296.919
185.611
63.1339
417.646
354.366
269.582
168.521
57.3209
540.373
458.392
348.646
217.913
74.1144
506.692
429.798
326.88
204.301
69.4843
377.355
320.171
243.54
152.215
51.7653
369.991
313.775
238.591
149.098
50.7045
252.739
214.588
163.251
101.993
34.6698
226.623
192.137
146.046
91.2323
31.0182
468.758
397.651
302.209
188.636
64.0895
291.276
246.843
187.5
117.043
39.7772
-276.217
-229.391
-173.534
-109.641
-37.7754
-1364.56
-1139.12
-864.91
-547.306
-188.586
-2651.11
-2196.8
-1677.16
-1079.75
-378.004
-1888.37
-1568.78
-1207.55
-795.113
-298.789
-1550.49
-1276.68
-974.17
-631.03
-220.993
-368.943
-287.526
-203.937
-118.993
-35.4952
-617.588
-518.135
-392.774
-246.645
-84.3926
-1934.73
-1621.99
-1230.99
-775.212
-265.953
-3121.19
-2606.71
-1981.67
-1256.62
-434.305
-3274.28
-2725.86
-2076.05
-1326.34
-463.975
-2527.67
-2091.83
-1591.43
-1019.94
-356.689
-729.498
-589.26
-440.738
-280.499
-97.7865
-1915.77
-1393.33
802.552
1306.7
1372.73
1901.93
1246.79
-9890.7
-1511.88
-2986.26
-1315.46
696.907
-4050.7
1016.74
2437.74
869.741
-4854.44
-1954.2
-493.887
-235.342
-2912.79
-707.462
244.127
208.34
1929.77
1885.14
-447.132
-243.682
-8253.91
-3806.52
-3503.98
-1784.55
-2903.49
-2146.82
743.671
1911.61
378.819
-1034.85
-880.686
-810.73
-956.139
-988.75
-975.688
-717.754
-588.961
-486.603
-214.77
730.35
621.683
471.437
292.243
98.7354
1177.66
995.566
755.545
471.974
160.53
1237.91
1046.82
793.927
495.315
168.376
1714.42
1449.41
1099.52
686.375
233.406
1125.21
951.922
721.539
449.644
152.839
-7234.25
-7087.07
-6565.65
-7006.92
-7666.46
-1062.19
-702.656
-849.9
-1015.87
-531.38
-2284.55
-1763.07
-1580.92
-1435.34
-765.221
-895.188
-637.659
-638.953
-605.973
-218.044
617.865
509.803
374.966
226.45
76.2476
-3378.83
-2735.59
-2166.86
-1534.43
-594.06
909.787
761.611
570.251
351.136
118.009
2123.41
1744.22
1317.27
839.92
294.818
785.187
663.124
499.383
307.906
103.242
-3175.11
-3309.77
-3083.61
-3498.78
-4150.96
-1460.07
-1032.81
-918.61
-827.058
-367.562
-397.307
-321.746
-279.929
-224.027
-90.2182
-174.784
-129.352
-113.002
-95.9772
-40.0338
-2445.67
-1968.59
-1542.04
-1068.04
-402.496
-594.557
-464.908
-356.32
-235.062
-69.3335
240.249
215.195
159.435
90.3691
29.0466
203.52
181.764
135.111
77.8131
25.7168
1726.16
1448.56
1094.04
682.646
232.605
1696.24
1430.58
1081.85
673.312
228.685
-376.548
-305.61
-240.847
-166.597
-61.8317
-194.608
-151.264
-121.391
-89.1224
-34.1365
-5263.77
-4288.01
-4008.15
-4298.2
-4045.16
-2885.4
-2253.59
-1858.35
-1468.17
-655.286
-2634.67
-2247.98
-1978.55
-1809.88
-818.502
-1323
-1063.87
-884.616
-710.524
-372.496
-2468.06
-2001.86
-1547.78
-1037
-370.622
-1703.03
-1054.56
-912.973
-767.071
-47.2988
687.2
591.7
445.865
271.227
91.6076
1723.94
1457.09
1103.2
686.617
233.107
362.581
320.943
237.58
137.819
47.8612
-96.5138
-198.737
-232.826
-279.13
-406.152
-567.485
-19526
-16067.1
-15148
-18140
-13750.8
-10528.5
-12682
-9638.43
-17147.8
-13620.5
-14408.3
-12251.9
-12379.6
-9394.12
-11717.3
-16453.7
-14416.5
-12859.9
-14601
-12230.7
-9485.7
-10932
-8218.62
-15888.1
-13385.4
-14309.8
-12528.5
-12372.7
-10331.6
-11992
-12834.5
-11760.7
-10331.9
-11241.3
-10242
-8469.16
-9199.2
-7898.45
-13226
-12076.2
-12554.4
-11647.3
-11457.1
-9937.73
-11136.1
-8831.51
-8472.75
-7366.9
-7655.82
-7849.94
-7358.25
-7038.39
-7037.82
-9550.49
-10572.6
-9245.31
-10134.9
-8825.21
-8042.52
-9602.34
-5691.5
-5605.66
-4747.52
-4820.22
-5537.95
-5611.94
-4696.46
-4869.91
-6695.24
-8160.84
-6580.35
-7596.85
-6471.77
-6273.28
-7218.89
-2081.49
-2068.99
-1709.46
-1724.6
-2085.37
-2189.37
-1686.4
-1681.07
-2745.62
-3432.85
-2680.51
-3019.06
-2660.23
-2633.98
-2872.18
-7427.94
-7487.19
-10381.5
-11428.4
-7521.35
-7138.32
-9671.03
-8071.24
-7136.83
-4701.76
-7279.33
-4623.69
-7386.55
-7402.39
-4722.12
-7078.92
-6934.38
-9586.85
-10348
-6712.47
-5932.02
-8734.87
-7183.99
-5070.3
-2046.74
-5032.72
-2283.17
-4312.84
-4101.55
-2633.44
-5970.93
-5881.29
-8093.93
-8525.14
-5930.53
-5495.17
-7601.84
-6849.08
-2734.4
-1989.52
-2721.72
-2606.1
-2678.99
-2932.21
-3307.83
-4417.91
-4448.49
-5957.47
-6085.06
-4601.02
-4568.79
-5876.04
-5802.65
-2819.67
-1858.87
-3049.69
-2852.84
-3357.87
-3921.24
-3827.91
-2748.34
-2775.93
-3801.68
-3831.13
-2730.29
-2758.6
-3786.58
-3752.75
-1579.03
-1378.6
-1798.13
-2261.94
-2307.71
-2812.65
-3017.08
-925.943
-938.805
-1345.15
-1350.76
-939.277
-993.348
-1333.92
-1298.09
-276.826
-567.067
-453.995
-1016.66
-789.371
-1020.99
-1258.62
6991.56
21064.5
5352.06
23556.4
2934.79
24969.9
5024.7
39612.1
8220.78
49753.5
8413.53
35256.5
8968.86
31312.7
8729.66
26254.8
4159.54
2242.19
12543.3
5892.27
3881.34
1775.86
13543.4
5440.95
5334.24
3910.73
15655
11394.7
3609.84
2824.37
16064.5
12116.3
8124.89
2941.97
6120.19
2202.51
2783.44
7512.59
38697.3
11831.3
11594.9
5367.42
47047.2
14760
10849.5
5112.33
25570
8526.58
13017.3
5937.9
20768
6607.69
4638.65
2506.65
8231.33
3311.83
4133.09
2626.56
8841.71
3319.13
5565.42
3539.07
5526.59
2304.89
9913.24
3569.59
3905.66
1438.87
12061.5
9031.76
7336.16
6554.04
13634
11933.2
7399.22
7893.06
6754.82
5758.41
8737.81
7436.96
5480.19
4699.06
3195.05
2737.1
5500.55
5486.63
3160.17
3160.9
5222.69
4067.84
3062.64
2144.4
5774.55
3244.86
5764.19
6394.71
7616.56
5806.79
8205.62
10895.5
4242.82
1809.45
3716.61
3856.56
2411.51
838.866
1705.37
1480.24
5277.77
10757.3
3854.44
12185.3
5701.95
10883.1
4620.4
12962.4
7561.45
10851.9
6427.46
13239.3
8556.11
10450
6460.66
6457.24
7974.12
6891.18
7457.27
10195.5
11843.3
17426.8
9296.75
7381.87
6955.89
8821.68
14151.8
13408.8
12973.4
15683.7
15737.2
13084.7
13116.5
15721.9
15647.9
12109.6
12579.6
15115.2
15265.6
8683.75
9217.09
8343.52
8804.02
10096
10072.2
11760.5
11417.8
14811.7
14964.5
7932.28
8690.63
8873.94
9413.74
9833.52
10548.9
11280.1
12315.1
14827.6
16051.5
9250.67
6306.92
7494.6
7592.83
10450.5
11960.2
8499.59
11304.1
6829.08
6980.65
8676.15
6216.4
3134.2
5483.69
1281.78
2038.89
5262.41
8389.26
2065.86
3143.99
2598.26
4777.16
962.968
1734.08
6465.17
5532.3
6585.98
4106.03
9091.49
6469.47
10315.4
6862.72
2991.93
3525.99
3741.25
2112.8
2325.22
2554.13
2599.72
1974.41
11231.6
7368.87
2403.83
12156.9
7624.32
2630.8
11075.3
7216.86
2441.88
12175.4
7619.35
2574.42
10607.3
6804.45
2276.7
11995
7512.83
2579.12
6556.6
3712.52
953.04
7667.82
5228.37
1696.38
8734.91
6155.87
2073.88
9616.94
6241.01
2039.12
11641.9
7288.67
2576.74
7268.53
3960.75
1289.08
6876.16
4427.67
1527.58
7665.5
5034.9
1711.4
9094.29
5823.25
1980.63
11034.8
6402.05
2208.51
-495.197
987.13
435.824
2627.63
1733.57
1766.67
4482.45
3948.06
586.726
971.629
620.523
1015.53
335.745
944.5
623.854
1384.95
1890.9
1131.66
3820.21
2697.01
1755.33
2885.57
2913.32
853.457
5773.28
1848.63
-4020.76
-541.034
722.161
744.712
73.2317
241.467
10340.3
4653.16
2748.66
1666.22
10207.2
4733.65
3002.65
1975.64
9912.95
5213.18
4068.31
2953.41
3102.37
2069.08
1771.48
1621.13
13075.3
11446.9
5744.66
7343.24
14499.8
13550.2
7058.87
8476.75
5295.15
6393.3
11209.9
9292.44
3666.45
4797.79
2130.98
2801.21
4726.8
5530.05
2745.81
3179.52
3032.71
4223.55
1724.53
2574.95
4776.67
3488.71
5448.36
3792.02
8178.56
5047.33
7325.41
4998.93
2860.67
2381.86
3781.93
2601.74
1629.87
1506.84
2391.06
1597.26
12190.5
8401.25
6147.98
6586.04
12090.5
8338.35
6089.98
6451.01
12239.3
7978.27
6231.09
6006.33
13181.4
12606.7
12420.3
9673.13
5776.28
7696.44
9398.84
10085.5
9610.78
6989.48
10911.4
9895.85
8317.68
6851.03
4654.37
7433.96
7577.32
7594.73
9415.07
7347.16
7279.45
7390.07
9183.26
6937.87
6790.01
6998.5
8744.72
8661.37
8195.81
8205.48
7104.36
6287.61
6367.96
6217.72
6588.1
6111.57
8206.24
6339.32
7192.48
5395.33
6161.96
4921.45
5668.38
4964.55
6033.77
4688.95
7531.9
4745.28
3810.12
3243.63
1708.73
7183.56
5466.6
5802.75
3645.09
2543.01
1472.97
3766.97
3419.65
4233.87
1827.48
1980.12
1088.32
5444.56
3097.96
2246.88
1546.08
3493.18
1509.68
1781.63
900.167
2243.74
2716.02
2850.95
4849.52
3380.25
4165.6
3474.75
6334.09
2630.58
1970.24
2069.27
3446.27
1211.29
508.568
494.636
905.691
6042.37
2769.74
796.376
6597.03
1760.04
463.124
5832.08
2860.55
890.065
6524.28
1801.5
496.555
5244.44
2584.1
664.487
6176.65
1657.73
373.212
5528.58
3004.21
784.49
4760.86
2541.29
703.52
4787.98
2393.4
678.632
4839.11
2280.2
524.074
5822.14
1451.55
245.457
6147.19
3219.7
990.883
5407.16
2943.52
967.687
4997.75
2613.51
856.312
4933.64
2006.25
537.945
6008.41
1477.9
465.934
1827.78
703.084
325.781
-0.628187
735.708
299.042
151.085
26.2118
1900.07
759.626
393.464
69.5814
901.217
408.575
258.944
121.315
2186.42
910.463
515.816
156.852
1556.84
809.935
466.908
220.93
1152.03
728.875
372.877
128.141
1204.79
834.074
504.64
287.923
1839.54
879.431
458.801
47.0142
1763.34
812.745
470.769
-46.3939
2316.01
976.437
558.809
120.022
2088.14
862.983
512.293
-78.267
1397.59
771.645
411.359
55.3997
1371.94
721.008
441.642
72.1975
1040.65
674.567
435.726
257.938
954.168
605.156
422.072
247.089
2365.18
863.418
396.13
-101.763
2505.74
845.934
428.235
-290.393
2358.32
876.513
431.714
-65.2414
2398.35
814.566
426.78
-268.348
2379.78
903.087
498.404
-11.7852
2151.89
739.051
424.094
-197.449
2209.84
870.972
552.386
137.283
2371.14
837.596
548.981
-196.541
1731.63
678.523
436.353
40.5015
2100.37
624.776
314.944
-270.795
833.462
222.857
96.1292
-66.6733
2056.23
629.376
325.341
-241.475
841.021
232.779
107.128
-51.519
1923.51
613.447
342.236
-190.209
805.08
234.696
121.411
-30.1057
1617.21
526.831
330.619
-133.748
708.188
208.259
130.793
-2.42329
1417.35
493.346
327.554
-56.6768
633.615
210.967
150.424
38.2154
1120.18
482.568
286.497
16.6929
578.954
295.478
186.128
101.797
1196.75
437.237
279.33
-19.6687
574.24
236.144
163.159
72.8239
992.695
519.773
317.209
79.6847
589.384
352.525
221.918
141.212
769.79
503.746
344.748
211.378
545.676
382.244
264.196
200.289
13.8254
12.4526
8.5206
5.71742
4.39234
8.30061
6.40537
4.27405
2.86327
2.20633