/*--------------------------------*- C++ -*----------------------------------*\
| =========                 |                                                 |
| \\      /  F ield         | OpenFOAM: The Open Source CFD Toolbox           |
|  \\    /   O peration     | Version:  2412                                  |
|   \\  /    A nd           | Website:  www.openfoam.com                      |
|    \\/     M anipulation  |                                                 |
\*---------------------------------------------------------------------------*/
FoamFile
{
    version     2.0;
    format      ascii;
    arch        "LSB;label=32;scalar=64";
    class       volScalarField;
    location    "2.8";
    object      gradTy;
}
// * * * * * * * * * * * * * * * * * * * * * * * * * * * * * * * * * * * * * //

dimensions      [0 -1 0 1 0 0 0];

internalField   nonuniform List<scalar> 
5712
(
12546.2
6892.82
21875.8
14310.8
21056.1
17887.2
31083
38449.3
47278.8
59793.3
25029
21970
15415.8
10611.4
10164.2
5785.63
20942.7
19000.2
18898.3
18777
24047.6
23164.9
27723.7
23940.9
7403.08
5215.75
3851.23
2664.97
10797.1
6999.41
5978.56
3874.02
21180.8
22483.8
19069.9
15656.9
15466.3
12025.5
13053.2
12453.8
17484.9
17155.5
35470
39040.5
25492.2
26918
18272.8
14382.1
18718.3
13156.9
7949.89
6851.41
5895.55
8626.1
2928.97
3944.29
7822.79
11537.5
4904.8
6664.29
8002.7
13850.7
6090.69
9917.48
1913.19
6677.84
339.921
4788.33
18075.8
21757.9
18890.5
21489.4
22865
23350.7
23218.8
22722.8
16757.8
20258.3
16810.4
20001.5
18891.5
21294.3
18520.6
21131.3
23341.6
22352.9
23314.9
22141.7
15715.3
20276.8
14329.3
20175.9
17134.3
18216
21590.6
29997.2
17919.7
20922.9
21449.8
32629
16227.7
16186.6
21493.6
28560
15604.5
14889.3
21471.5
27856.7
4232.95
5308.01
11507.7
18597.9
5103
5682.94
14289.6
20962.2
6116.82
6361.78
17535.5
23783.5
24623
27600.2
20503.8
18577
24889.4
28161.5
24178
20557.4
17216
28016.5
25816.2
23623
19638.9
19868.4
36624.2
1546.65
2034.85
4095.88
8324.5
2200.27
3036.66
5477.86
9803.68
3335.62
3223.19
7389.64
11775.7
27616.3
27847.6
22765.7
22027.9
18967.1
17085.1
13744.4
12293.3
10422.7
15373.9
24403.8
22278.8
22382.9
21217.4
18724.8
17487.6
15926.1
14215
12449.7
16945.7
22893.4
24450.2
23642.5
26018.5
23251.5
21573.5
23525.8
22633.6
20504.8
20782.9
20243
20185.1
24020.6
26635.6
23806.9
26338.2
23784.2
23545.4
23466.6
23328.1
20311.3
20624.6
20545.8
20758.7
17458.6
17295.1
11929.9
14221.4
17601.9
17034.6
12249.9
14659.7
16988.8
17056.9
11796.2
14259.2
17140
16868
11688.5
13926.7
1784.05
1478.41
1105.01
1007.58
880.383
869.691
2658.05
1930.23
1531.37
2338.09
2115.81
1857.76
2865.59
2838.16
3052.44
4224.6
3732.91
3457.49
26936.5
24368.6
22507.2
22285.5
21196.8
20219.1
15150.8
14695.3
14468.5
10632.1
10222.8
10074.4
6860.93
5170.7
4286.02
21285.8
19931.4
18904.2
21102.7
19957.8
19280.8
15633.9
14127.2
13286.2
11168.4
10008.2
9493.95
7292.45
5495.21
4553.45
27870.3
29029.2
29591.9
27286.3
27158.5
27266.1
32325.7
27956
17808
19667.6
17722.1
17496.5
23639.3
20866.4
23072.3
18254.9
25403.4
26589
21833.1
24626.4
28708.4
25099.1
28319.1
29350.2
29938.2
32035.1
24298.6
24901
21175
20847.5
24168.4
23301.7
16400.6
9176.94
15273.9
10170.3
15915.4
8973.43
14690.1
9830.31
14562.2
8293.38
13643.9
9337.1
13381
9707.28
12833.9
9691.37
22436
17840.2
21869.9
17876.4
25053.1
22552.4
24999.9
22082.9
20153.6
14074.4
21056.2
13667.5
22210.4
17880.1
22759.7
17812.8
25509.3
21878.6
25890.8
21745
19542.5
14209.4
19366.4
14186.4
11922.4
8072.4
10607.8
6497.07
11047.7
7195.85
9958.49
5916.43
12169.1
8578.56
10885
6822.49
12226.4
8920.96
10949
7017.05
2601.53
1387.33
4724.81
2503.58
2692.8
1613.58
4780.26
2784.24
2942.4
2180.85
4723.33
3250.68
13544.7
22662
8692.94
7820.04
5343.7
23226.1
14985.4
8328.47
7371.95
4072.1
22390.6
16258.2
11896.8
8615.15
4983.88
996.623
991.427
1637.02
1561.47
1253.06
971.768
2038.88
1872.64
1791.56
1609.5
2527.34
2262.46
23672.1
22876.8
15160.1
14048.6
9490.38
9300.79
7226.4
7077.12
3709.01
3346.94
20643.4
17918.9
15119.8
13200.6
11301.7
10480.5
7909.18
7779.46
4603.92
5366.52
14266.5
11475.3
14367.7
10797.7
18127.3
13565.7
18334.6
13285.2
11726.4
9636.35
11613.1
10303.4
14800.1
10270.9
14893
10355.7
19175.4
13595.4
19089.3
13666.7
11791.9
9027.16
11958.2
9379.12
8273.39
7763.31
5156.38
7294.11
8401.11
8159.07
5251.98
7211.78
8241.66
7536.78
4994.63
7640.9
8669.75
7588.01
5216.8
7550.47
2623.99
2111.93
1658.66
10061.5
4904.17
3751.31
2390.59
2259.77
1928.93
10457.3
5669.77
4568.54
2933.86
3143.17
3163.38
10881.5
6928.47
6076.56
20873.7
19159.2
17886.6
13473.3
12843.2
12385.4
9836.67
9584.84
9431.92
8717.55
8342.48
8180.53
12372.6
8988.4
8069.88
15485
14091.1
13128.4
11897
11016.7
10485.3
10554.1
9644.14
8953.17
10199.3
9206.12
8661.74
15883.2
11165.7
10224.3
4780.43
2833.97
2127.6
2106.66
5413.74
3087.43
2224.61
2161.03
4624.71
2782.22
2117.9
2131.9
5368.78
3094.17
2245.17
2171.36
4348.21
2704.22
2125.63
2088.64
5210.78
3119.43
2297.16
2118.54
5486.41
3262.28
2327.88
2267.49
5651.93
3411.6
2436.57
2366.65
4649.17
2878.76
2205.36
2112.19
3607.72
2445.64
2023.77
1989.2
3953.08
2559.55
2082.3
1924.14
3168.82
2237.93
1922.43
1886.77
5059.52
3109.83
2305.24
2232.77
3877.05
2607.26
2100.11
2058.42
5292.66
3271.7
2393.47
2290.25
4028.16
2725.38
2166.97
2083.5
3499.83
2404.03
1969.45
1981.92
2106.55
1882.77
1762.07
1824.84
3370.32
2356.16
1961.65
1979.75
2080.09
1872.57
1757.25
1834.81
3169.14
2280.86
1951.56
1961.59
2141.1
1897.66
1757.12
1872.35
2937.07
2160.52
1895.62
1950.24
2147.17
1894.1
1780.97
1871.17
2589.1
2031.07
1799
1816.67
529.533
1382.97
1369.51
428.852
-1372.56
1099.13
1167.52
412.908
707.384
1448.4
1395.25
454.369
-1093.29
1176.75
1189.26
420.22
990.526
1545.51
1421.4
452.653
-665.813
1299.32
1217
422.376
1368.8
1661.64
1454.01
481.459
-194.419
1444.85
1259.32
437.695
1878.31
1813.34
1514.99
538.863
220.144
1574.48
1300.43
450.314
2210.72
1985.59
1557.02
499.757
41.1814
1706.18
1386.02
469.47
2173.33
1910.47
1519.54
502.465
120.756
1657.68
1339.81
456.786
2174.26
2041.26
1600.2
469.965
-95.8976
1752.86
1426.03
471.803
2160
2118.3
1674.32
488.05
77.0654
1831.9
1481.5
486.989
2113.52
1675.95
1200.16
718.496
238.992
2116.69
1677.4
1201.47
719.271
239.239
2151.1
1689.55
1206.48
721.392
239.833
2147.87
1693.2
1209.54
723.104
240.372
2174.54
1704.41
1213.53
724.621
240.77
2158.16
1715.48
1221.68
729.041
242.156
2231.87
1745.5
1238.83
737.818
244.849
2272.94
1773.95
1256.14
746.83
247.627
2233.17
1734.46
1229.4
732.464
243.149
2300.43
1744.27
1231.14
732.826
243.209
2195.75
1720.45
1220.94
728.045
241.77
2285.1
1735.39
1225.97
730.145
242.371
2262.31
1751.19
1239.7
737.884
244.834
2327.88
1760.81
1241.13
738.067
244.84
2289.73
1780.95
1258.46
747.717
247.876
2360.06
1789.72
1259.39
747.682
247.831
2113.27
1675.31
1198.85
717.664
238.723
2149.71
1676.99
1198.21
717.179
238.564
2138.77
1686.31
1203.69
719.801
239.329
2172.9
1686.85
1202.47
719.044
239.093
2177.94
1701.13
1210.01
722.59
240.122
2221.18
1701.01
1208.34
721.618
239.822
2236.2
1717.39
1216.98
725.752
241.031
2269.72
1714.24
1214.56
724.494
240.637
2272.44
1727.66
1221.88
728.093
241.729
8028.59
12389.3
8488.82
12771.4
9254.17
13396.4
10168.8
14459.4
11201.4
16272.7
10446.7
12897.7
10687.9
13756.4
10416.4
12773.2
10306.3
12754.6
6425.14
1148.3
252.037
56.515
9.94343
7641.51
2106.73
511.932
115.866
20.2093
6591.04
1135.94
244.67
54.3524
9.50762
7818.47
2123.43
509.249
113.747
19.7676
6894.09
1143.67
240.13
52.6288
9.14294
8158.19
2167.01
510.173
112.581
19.4226
7263.41
1148.17
234.98
50.989
8.8308
8596.47
2222.53
515.075
112.813
19.4024
7585.62
1151.96
234.166
51.0618
8.89761
9012.02
2272.84
525.835
115.766
20.0216
7449.57
1343.69
302.912
70.148
12.6553
8398.03
2384.42
595.282
138.509
24.8583
7542.4
1267.75
272.389
61.1737
10.835
8661.65
2344.71
563.306
127.198
22.3732
7405.96
1394.67
323.447
76.4266
13.9691
8330.57
2411
614.754
145.812
26.5476
7372.48
1377.67
320.929
76.455
14.0671
8291.6
2397.12
615.518
147.146
26.9388
34781.6
48320
43280.3
32737.7
18338.2
19236.4
29224
29269.3
19678.6
20985.4
31345.7
41667.6
46275
62717
23605.6
25891.8
19110.9
18610.2
13257.1
13616.4
4178.88
3013.4
901.505
726.365
858.406
746.068
889.704
4219.78
4363.85
2840.03
3799.93
3471.33
1673.6
2300.08
2033.47
1408.88
1586.38
1341.26
3667.44
2247.25
1499.34
1383.92
1665.33
1454.44
1162.15
1172.89
1116.14
1009.97
1272.63
1196.2
3744.41
2468.61
2613.04
1875.78
1604.26
2186.23
1197.89
984.337
1320.47
8887.98
9432.29
9898.53
12474.9
22308.1
6840.29
7969.83
8874.73
10615
12614.1
2382.72
3430.44
4247.65
4818.22
5116.09
1930.34
2801
3487.79
3964.86
4210.78
2275.07
3286.83
4074.9
4616.3
4893.49
1982.35
2875.07
3576.89
4061.75
4310.43
2354.36
3394.51
4204.22
4763.96
5052.95
9387.09
10266.1
10414
12066.1
20250.4
9394.86
9955.25
10105.7
11161.6
13577.9
6619.28
7887.54
8602.14
9582.14
10614.5
8340.23
9090.9
9271.01
9819.64
10899
7725.94
8602.14
8772.47
9176.15
9865.13
4208.62
5635.32
6605.5
7300.13
7712.64
5520.24
6895.19
7709.25
8413.09
8961.44
4971.16
6364.83
7195.99
7798.9
8184.28
3619.2
4994.97
5974.09
6639.98
6997.53
4014.68
5418.65
6370.48
7018.96
7378.39
3464.71
4818.41
5790.33
6441.39
6781.28
8364.1
9495.27
9922.93
11780.6
19899.6
5462.33
6933.15
7909.54
8934.17
9808.44
3831.73
5252.56
6270.08
7001.13
7422.17
3567.22
4952.08
5971.06
6704.46
7119.74
4207.22
5671.87
6718.12
7547.97
8086.29
3738.43
5166.38
6223.42
7018.7
7483.11
3035.61
4296.59
5261.18
5955.19
6333.48
3064.6
4338.51
5304.2
5983
6346.82
2926.8
4161.59
5090.61
5719.55
6042.41
2661.16
3811.53
4692.23
5294.34
5604.03
3304.17
4632.29
5610.32
6280.62
6636.03
3121.59
4409.93
5376.81
6046.54
6402
8277.52
9150.76
9655.43
11891.5
20568.9
5835.85
7188.49
8204.87
9592.77
10979.5
6591.25
8219.79
9041.17
10689.7
12471.6
4699.32
6228.84
7341.84
8399.46
9125.46
4092.21
5580.7
6675.92
7565.41
8107.72
5410.32
6931.4
7928.35
9065.97
9844.05
3124.6
4413.11
5391.43
6089.67
6469.51
2594.36
3718.64
4584.63
5183.1
5494.03
3419.48
4778.7
5792.26
6521.66
6928.36
18581.5
12080.2
19706.8
14849.6
23853.9
33631.9
25409.6
35029.5
20615.5
20243.9
18180.5
18916.3
21814.2
21727.5
26706.3
22986
14228.5
12421
6366.75
5010.88
16601.8
13169.8
8832.4
5891.03
21358.1
23538.9
19643
17539.1
20387.7
13636.5
12886.4
12448.4
17488.4
17155.6
35333.9
39038.4
25051.6
26801.4
18684.1
14495.6
19188.3
13247.9
8341.32
6925.02
12986
15505.6
5262.48
6345.8
13941.2
17352.8
7090.87
8920.53
12200.9
17650.1
7638.89
11667
2169.14
7298.71
356.878
4909.85
18345.8
20219
18598.6
20650.7
21284
21254.8
22221.5
21563.4
17180.9
19891.5
18411.3
19327
18696.6
20862
18452.7
20990
22833.1
21758.5
23169.3
21949.8
15822.9
20079.2
14337.5
20108.7
17676.4
19289.9
21709.9
30417.2
18856.9
22964.6
21708
33515.8
16472.9
16671.2
21534.1
28744.9
15668.1
15018.9
21478.7
27909.9
17325.8
19783.7
22728.2
32001
16555.6
17906.4
23475.2
31775
14489.2
14998.8
23654.2
30506.5
18548.7
20553.2
18824.2
19135
27941.5
20166.6
17532.8
19851.5
17767.3
31765.5
20413.8
19338.7
17837.6
20289.5
38313.1
12627.3
12168
10440.1
13015.7
12303.6
11973.5
10661.6
13494.9
11326.1
10380.8
10541
13584.4
19839.3
19404.4
17079.9
16411.1
18135.3
16782.9
14278.8
12781.8
11700.8
15505.6
19738.4
18606.5
18717.8
18364.4
16987.7
15936.9
15879.6
13795.7
12615.2
16073.3
20884
22579.6
22491.2
24866.7
20927.8
19780.1
22246.8
21611.3
19799
20004.5
19056.6
18940.9
23460.5
26097.5
23638.1
26177.4
23172.3
23084.2
23284.6
23191.2
19949
20226.6
20433.9
20640.8
17156.7
16859.9
11855
14017.9
17215.2
16412
12244.7
14370.1
16811.9
16813
11732.1
14131.2
17080.6
16790.5
11663.5
13881.7
11837.3
12811.9
4551.84
4678.82
11536.1
11661.2
5219
5436.22
9335.83
9128.45
5689.94
5547.42
19024.1
18173.4
16975.4
16838.9
15098.7
14681.9
11023
10171.6
7178
5605.86
18592.5
17886.2
19195.3
18322.9
14525.5
13315.6
10814.1
9727.57
6544.21
5119.01
23303.2
23374.6
27374.7
24627.2
24617.5
23873.2
32055.4
26453.5
18979.6
14903.2
20250.7
15938.8
19852.3
14970.3
21100.7
15917.3
21873.3
20309.6
19326.4
18860.8
20556.3
21751.4
27010.2
28956.4
29120.5
31784.2
22608.7
24368
20073.6
20535.5
22409.8
22778.1
12465.6
9874.86
13431
10248.2
12142
9597.5
13091.2
9922.58
11575.6
8837.43
12381.8
9339.51
12644.5
9632.66
12614.9
9655.28
18411.8
16524.1
19956.4
16973.5
21808.3
20281.5
23395.7
20790.7
18230.4
13684.2
17075
13378.4
21272
17368.6
22478.5
17641.4
24707.1
21204
25653.1
21525.5
18624.8
13939.8
19102.2
14087.9
11435.4
8359.81
10722.2
6906.24
10789.7
8084.85
10517.4
6807.88
11824.2
8655.2
10880.3
7011.83
12104
8926.38
10943.2
7086.97
10912.1
11487
9143.68
8805.59
10443.2
11151.2
8802.92
8469.4
9825.54
10367.7
7971.04
7563.8
16412.2
20388.3
14454.6
10147.1
7684.04
19862.4
17556.4
16033.5
10400.5
7234
19895.1
16439.5
13368.3
10679
6821.93
13405.4
16412.1
9560.04
11227.6
12613.1
14812.1
8920.86
10276.8
11216.3
12529.9
7498.54
7957.79
19318
18176.8
15905.7
15107.9
14715.6
15492.8
10847
11877.2
7094.89
7265.83
18011.2
15648.6
14923.6
13121.1
12758.9
12199.3
10241.3
10478.8
6485.59
7610.83
13819.9
11483.7
14079.8
10871.7
16608.5
12677.9
17471.7
12865.6
11912.5
10065.6
12035.8
11079.5
14608.9
10300.7
14825
10359.4
18732.1
13404.3
18953.1
13610.8
11817.5
9190.17
11934.4
9410.23
8692.8
8371.92
5638.72
8107.56
9340.46
9371.39
6269.64
8745.48
8393.29
7791.77
5210.79
8056.93
8723.25
7671.54
5307.93
7685.12
22125.6
23373
28405.1
23399.9
19143.9
20301.3
26602.7
22030.5
15586.3
16496
22992.3
19405.8
17112.3
16317.3
15102
14977.9
16526.9
16899.4
14366.6
14154.7
21672.2
18756.6
13605.6
13209.4
12245.9
12337.6
12818.5
12822.7
13853.4
13497.6
22967.2
18995
6176.62
3804.24
2731.93
2580.79
6393.61
3903.34
2776.54
2607.31
5898.9
3687.96
2667.4
2569.97
6207.39
3808.81
2721.44
2561.16
5436.21
3508.78
2593.87
2451.7
5833.85
3693.38
2695.94
2433.84
5843.71
3626.09
2617.6
2502.4
5767.63
3536.49
2532.31
2448.71
5219.35
3341.56
2520.18
2376.83
4109.22
2843.93
2274.95
2203.27
4911.3
3234.33
2486.19
2234.46
3995.14
2843.21
2267.07
2149.37
5359.69
3376.43
2496.28
2400.08
4147.62
2830.78
2259.36
2207.43
5381.45
3361.32
2462.5
2350.81
4117.03
2798.39
2223.36
2134.81
5713.67
3603.74
2649.96
2483.54
4956.24
3292.85
2519.92
2340.19
5388.05
3493.26
2599.08
2452.2
4641.57
3204.08
2479.59
2334.02
4906.4
3318.06
2528.08
2387.76
4212.07
3068.02
2402.8
2331.49
4382.72
3051.65
2373.28
2295.5
3885.99
2928.32
2329.69
2251.8
3816.32
2822.79
2234.17
2094.73
3624.39
2893.07
2079.94
594.696
1270.68
2622.03
1884.12
603.016
3447.66
2858.86
2071.02
618.417
1264.55
2596.05
1872.13
603.736
3185.51
2780.6
2020.13
595.59
1218.61
2540.34
1830.33
587.947
3160.24
2710.61
1994.27
620.971
1375.2
2486.64
1794.25
585.594
3173.93
2625.47
1967.12
668.26
1445.94
2395.48
1741.16
577.119
2638.3
2370.85
1874.43
619.911
276.006
2074.88
1638.39
552
2960.29
2501.91
1919.82
632.277
680.599
2232.63
1685.31
561.391
2374.7
2254.03
1803.24
552.184
-31.2314
1953.43
1578.78
524.06
2208.07
2185.14
1742.82
516.325
83.4006
1893.92
1531.64
504.482
2503.22
1914.26
1335.35
786.722
259.728
2480.21
1906.54
1332.77
785.739
259.457
2523.51
1911.18
1331.32
784.279
258.938
2476.66
1898.48
1326.64
782.311
258.377
2519.42
1906.34
1326.54
781.461
258.033
2425.53
1881.07
1315.96
776.712
256.656
2404.9
1848.88
1298.12
767.915
254.017
2337.85
1814.32
1279.48
758.719
251.256
2469.91
1878.82
1311.33
773.862
255.74
2539.91
1888.73
1312.71
773.994
255.727
2502.99
1899.55
1320.98
778.362
257.054
2587.14
1901.85
1318.56
776.709
256.517
2421.89
1854.93
1299.52
768.25
254.083
2483.48
1864.64
1301.18
768.561
254.13
2343.4
1816.09
1278.96
758.178
251.074
2412.73
1826.31
1280.91
758.689
251.2
2540
1925.2
1338.54
787.86
260.034
2621.66
1935.33
1340.71
788.563
260.218
2554.9
1924.74
1335.99
786.147
259.461
2635.47
1935.25
1338.6
787.108
259.732
2578.54
1923.29
1332.25
783.781
258.683
2666.77
1934.08
1335.16
784.93
259.015
2614.88
1918.3
1327.1
780.885
257.759
2687.88
1926.1
1329.88
782.131
258.116
2620.63
1910.54
1322.68
778.658
257.081
10512
14055.2
10480.8
14034.1
10524.7
14045.9
10903.3
14647
11425.2
15957.8
10447.4
12817.5
10753.5
13640.9
10399.8
12716.3
10298.7
12734.9
7511.91
1298.99
279.455
61.9122
10.8163
8695.81
2361.97
566.662
126.96
21.9945
7513.2
1263.55
268.094
59.0112
10.2657
8686.53
2340.98
556.722
123.446
21.343
7548.65
1236.4
257.685
56.2145
9.7363
8734.89
2324.7
546.153
120.155
20.6746
7654.64
1204.63
246.253
53.4052
9.24306
8895.28
2317.76
538.665
118.053
20.2972
7752.23
1178.62
240.205
52.4762
9.15154
9082.15
2318.18
539.154
118.993
20.6003
7462.08
1347.39
304.345
70.6074
12.7529
8385.37
2388.71
597.886
139.391
25.0479
7601.36
1279.37
275.633
62.0437
11.0034
8671.92
2362.45
569.889
129.024
22.7279
7402.65
1395.04
323.921
76.6256
14.0164
8313.94
2410.37
615.466
146.16
26.6328
7369.78
1377.45
321.006
76.5023
14.0795
8284.86
2396.44
615.616
147.228
26.9614
34346.3
48183.9
42977.4
31451.8
23579.9
27915.7
23425.8
27954.9
26269.2
40669.2
28297.8
44216.7
269.5
287.018
326.045
388.104
473.818
584.067
284.323
301.604
339.837
399.892
482.632
589.48
257.344
251.257
275.235
269.137
315.595
309.799
381.709
378.337
473.543
477.082
593.945
611.425
718.543
892.621
1134.33
1495.85
1850.62
2135.26
723.113
889.902
1096.62
1337.29
1558.99
1706.52
721.716
1059.23
1331.62
1522.65
1621.06
768.437
1127.37
1416.78
1619.59
1724.02
872.531
1279.19
1606.52
1835.59
1953.46
1037.83
1519.78
1906.68
2176.95
2315.9
1265.52
1849.9
2317.24
2643.06
2810.49
1557.02
2269.69
2836.75
3231.52
3434.6
761.286
1117.05
1404.03
1605.21
1708.83
807.326
1184.08
1487.68
1700.34
1809.82
909.192
1332.42
1672.82
1910.96
2033.47
1068.95
1564.55
1962.07
2239.73
2382.52
1288.43
1882.14
2356.6
2687.56
2857.83
1570.45
2287.43
2857.71
3255.41
3460.56
689.211
1011.66
1272
1454.63
1548.73
672.918
987.794
1242.08
1420.49
1512.42
736.97
1081.41
1359.27
1554.05
1654.36
720.669
1057.57
1329.43
1520.04
1618.21
844.695
1238.68
1555.99
1778.13
1892.43
829.236
1216.16
1527.89
1746.16
1858.48
1020.9
1495.38
1876.45
2142.68
2279.51
1011.96
1482.47
1860.45
2124.53
2260.25
1264.97
1849.43
2316.85
2642.53
2809.75
1274.4
1863.16
2333.88
2661.67
2829.87
1583.41
2308.13
2884.24
3284.59
3490.15
1629.65
2374.52
2965.65
3375.55
3585.62
1909.5
2771.17
3452.23
3926.9
4172.46
2358.94
3397.1
4210.41
4782.45
5083.52
2965.78
4208.64
5170.91
5870.27
6256.34
3830.96
5282.71
6392.03
7282.08
7834.05
4613.35
6147.13
7324.67
8415.61
9219.85
5208.3
6747.69
7945.72
9215.08
10260.8
1920.26
2784.45
3467.78
3945.74
4194.16
2351.16
3385.71
4198.13
4772.06
5075.66
2874.61
4096.06
5048.24
5737.02
6114.57
3466.77
4867.8
5953.67
6775.32
7253.69
3992.9
5521.06
6705.19
7654.13
8249.06
4333.69
5928.97
7169.39
8210.11
8896.74
272.713
296.774
342.818
412.584
506.682
625.816
287.581
311.464
356.616
423.975
514.224
628.278
260.508
254.385
284.904
278.722
332.382
326.51
406.657
403.409
507.736
511.637
639.598
659.958
768.093
946.919
1187.03
1535.41
1873.2
2141.87
767.618
936.981
1141.2
1372.97
1581.52
1714.08
730.343
1071.97
1347.75
1541.21
1640.89
794.692
1166.22
1466.04
1676.31
1784.65
917.72
1346.19
1691.63
1933.76
2058.48
1103.91
1618.07
2031.98
2321.88
2471.19
1354.51
1982.93
2487.71
2841.07
3023.15
1670.58
2440.69
3057.47
3489.38
3712.47
770.046
1130.01
1420.47
1624.15
1729.08
833.885
1223.44
1537.66
1757.97
1871.45
954.436
1399.59
1758.29
2009.65
2139.13
1134.01
1661.43
2085.72
2382.9
2536.01
1374.01
2010.16
2520.77
2878.35
3062.81
1675.98
2446.32
3062.78
3495.01
3718.74
697.706
1024.19
1287.86
1472.86
1568.2
681.317
1000.18
1257.74
1438.48
1531.63
762.973
1119.84
1407.94
1610.04
1714.18
746.436
1095.63
1377.6
1575.43
1677.36
889.893
1305.62
1640.95
1876.03
1997.13
874.215
1282.74
1612.33
1843.43
1962.46
1088.23
1595.49
2004.01
2290.15
2437.5
1079.62
1583.04
1988.58
2272.64
2418.91
1357.6
1988.02
2494.58
2849.09
3031.68
1368.12
2003.61
2514.29
2871.63
3055.63
1707.78
2495.81
3127.03
3568.77
3796.69
1762.22
2575.46
3226.74
3682.25
3917.13
2045.22
2977.73
3721.65
4244.35
4516.16
2509.45
3630.27
4519.69
5151.73
5486.31
3115.37
4448.03
5497.63
6269.27
6697.13
3949.69
5485.07
6681.88
7650.35
8250.52
4686.97
6281.82
7526.11
8681.99
9531
5232.03
6794.14
8017.75
9314.03
10379.6
2042.04
2969.51
3708.86
4229.5
4501.22
2481.17
3586.03
4462.55
5086.62
5418.11
2999.51
4292.52
5312.51
6056.22
6465.12
3569.04
5033.4
6182.01
7056.79
7566.63
4059.18
5631.59
6861.12
7850.24
8470.15
4356.4
5967.65
7224.83
8280.88
8977.36
4162.79
3014.2
966.383
782.429
938.325
812.864
964.893
3931.16
3852.65
2760.44
3250.65
1725.91
2240.53
1495.22
1663.72
1426.02
3554.73
2269.49
1575.72
1465.65
1731.52
1525.31
1228.78
1254.81
1226.09
1111.66
1365.09
1286.72
3702.03
2482.7
2601.14
1915.5
1662.02
2215.2
1272.54
1069.52
1400.22
8883.73
9475.4
9991.09
12658.9
22683.6
6858.74
8023.38
8968.64
10761.4
12807.1
2563.46
3712.49
4624.29
5270.2
5610.4
2084.21
3035.97
3795.33
4328.2
4604.76
2497.11
3632.23
4535.17
5167.98
5496.58
2166.04
3156.49
3946.54
4499.89
4786.44
2563.85
3721.58
4641.26
5288.64
5626.95
9137.89
10674
11541.5
14107
24071.4
9021.25
10663.4
11805.4
14113.3
18157.3
6687.97
8461.94
9766.37
11385.2
12940.4
8085.88
10089.3
11262.4
13031.3
15366.2
4456.54
6210.68
7555.74
8600.34
9242.7
5622.75
7493.51
8874.35
10141.4
11105.6
3912.55
5558.51
6838.2
7775.13
8301.66
4319.21
6066.94
7412.33
8426.88
9024.78
3746.34
5352.13
6605.33
7508.68
8003.8
8302.82
9806.15
10668.5
13080.9
22349.4
5634.77
7400.81
8731.07
10120.2
11262.7
4095.97
5766.68
7063.5
8048.8
8630.05
3824.71
5415.25
6657.26
7589.52
8127.27
4443.52
6142.63
7456.03
8537.45
9240.54
3960.33
5562.97
6809.6
7775.56
8345.37
3228.13
4611.72
5699.15
6496.9
6935.9
3303.88
4735.77
5862.24
6677.65
7121.89
3243.85
4680.1
5811.89
6612.9
7037.49
2947.73
4266.41
5309.73
6045.64
6432.61
3590.05
5137.28
6349.31
7224.24
7703.11
3390.15
4864.04
6022.86
6857.08
7310.07
8282.17
9309.85
9971.41
12445.5
21685.1
5908.84
7356.9
8481.67
9991.01
11476.9
6676.3
8533.83
9618.77
11585.5
13631.4
4837.17
6495.14
7753.18
8953.14
9769.83
4277.76
5918.97
7182.07
8226.98
8865.84
5570.23
7316.01
8576.74
9991.22
10954.8
3342.98
4776.18
5902.01
6726.13
7180.33
2834.65
4100.33
5102.44
5812.05
6186.66
3662.23
5200.63
6404.33
7300.73
7808.63
9802.94
9107.55
8005.96
6611.18
4777.08
1858.62
18680.9
19892.1
21362.8
21970.7
20188.7
20491.9
20608.5
21197.1
16229.4
18455
18390
18450.6
24498.9
17074.1
26452
17653.2
18928.2
20122.8
20341.8
19461.3
20684.3
19757.7
20928
16753.3
24437.7
18888.8
23804.7
25374.5
20761
30533.3
16503.7
17605.4
18396.7
18259.2
18419
20118.8
18504.6
20290.7
18936.5
23691.8
21261.3
23365.6
26545.8
23300.1
29433.2
15387.1
16412.8
16768.2
16424.5
17513.9
19764.6
17253.3
19608.9
17266
21885.9
19254.4
20821.1
23459.1
20654.1
26583.3
14272.8
15325.9
15488.6
15086.4
16704.6
19369.7
16011.6
18289
15355
17886.4
17374.8
16766.5
20565.1
17612.4
21527
13192.2
14222.2
14457
14045
15380.8
17573.2
14983.9
16955.5
13306.7
14497.9
15243.6
14098.6
18170.5
14955.7
18891.8
21709.2
21865.5
22525.1
23489.6
22499.8
23239.1
21647.3
22502.7
18718.8
11924.9
19869.7
11781
19962.5
16597.5
16980.8
20832.6
21293.8
21001.3
21476.9
21947.9
22765.3
20547.6
21563.7
16737.6
11931.5
17519.8
11659.8
17343.4
15665.8
15768.5
18409.2
18894.7
18886.8
18919.6
19690.9
20379.7
18913.9
20262.2
15551.7
12731.6
16451.2
12121.9
16929.8
14215.2
16436.3
16093.5
16734.8
16937.7
16689.7
17750.7
18467.5
17487.7
18965.4
13874.8
13939.9
14855.7
13086
15498.3
13064.3
17511.3
14563.4
15352.2
15515
15181.4
16522.7
17814.5
16094.1
17475.4
13049.7
15597.8
14454.8
15457.6
15840
14519.4
20178.4
13182.5
14076.8
14416.4
14042.8
15740.9
17508.1
15014.5
16627.4
12786.8
16940.8
14658.7
17594.7
16678.3
15387
22595.3
12268.9
6614.12
21859.6
14270
21051.7
17872.7
31077.3
38438.4
47273.4
59776.7
25034.4
21960.2
15421.4
10590.9
9819.75
5467.39
20938
18997.5
18892.9
18774.7
24043.9
23162.6
27719
23938.7
7231.83
5126.52
3730.7
2610.71
10789.3
6993.11
5979.38
3878.38
21175.9
22477.9
19067.2
15654.8
15463
12026.4
13051.5
12453.2
17483.7
17154.8
35468
39039.4
25490.8
26916.9
18272.3
14382.2
18717.8
13156.7
7949.85
6851.41
5793.41
8457.96
2863.82
3839.34
7826.88
11547.8
4914.01
6676.84
8005.14
13855.7
6094.3
9922.05
1913.7
6679.49
339.919
4788.87
18074.5
21757.2
18889.5
21488.8
22863.7
23349.8
23217.6
22722.1
16757.6
20258.1
16809.5
20001.2
18890.8
21293.9
18520
21131
23340.7
22352.3
23314.2
22141.2
15715
20276.7
14329.1
20175.9
17134.8
18217.9
21591.1
29998.1
17920.1
20925.3
21450.3
32630.3
16228.1
16187.7
21493.9
28560.7
15604.8
14890.1
21471.8
27857.4
4178.23
5265.71
11342.7
18449.9
5111.69
5692.47
14303.4
20980
6120.38
6365.37
17541.6
23789
24621.8
27599.3
20502.3
18577.4
24892.2
28160.5
24176.8
20555.5
17216.4
28019.2
25815.4
23622.2
19638.3
19869.1
36625.9
1521.82
2005.2
4043.24
8253.77
2209.19
3041.73
5489.1
9814.18
3338.77
3225.51
7394.37
11779.7
27615.5
27846.9
22764.8
22027.2
18966
17084.3
13745.2
12294
10425
15375.8
24403.1
22278.3
22382.3
21217.1
18724.5
17487.5
15926.7
14215.4
12450.7
16946.5
22892.9
24449.9
23642.2
26018.2
23251
21573.1
23525.4
22633.4
20504.7
20782.8
20242.8
20185
24020.4
26635.4
23806.7
26338
23783.9
23545.1
23466.3
23327.9
20311.2
20624.5
20545.7
20758.6
17458.7
17295.2
11930.1
14221.6
17602.1
17034.8
12250.4
14660.1
16988.9
17056.9
11796.3
14259.4
17140.1
16868
11688.6
13926.8
1749.53
1451.16
1086.17
995.946
871.543
862.965
2660.28
1931.97
1533.82
2342.96
2120.04
1861.94
2866.84
2839.23
3053.52
4226.48
3734.54
3459.28
26936
24368.2
22506.9
22285
21196.5
20219
15150.4
14695.2
14468.6
10632.5
10223.1
10074.9
6861.85
5171.44
4286.78
21285.4
19931.1
18904
21102.5
19957.7
19280.8
15633.9
14127.2
13286.4
11168.7
10008.5
9494.28
7292.83
5495.54
4553.8
27874.6
29031.2
29595.7
27287.9
27156.2
27265.1
32322.5
27954.9
17668.1
19633.8
17547.2
17454.7
23661.3
20860.4
23098.5
18248.5
25408.9
26595.2
21835.4
24628.9
28708.2
25098.9
28319.6
29350
29937.4
32034.2
24300.4
24901.4
21175.8
20847.7
24169.1
23302.2
16384.1
9158.01
15254.6
10155
15912.4
8974.21
14687.4
9830.3
14561.2
8293.39
13643.2
9336.95
13381.1
9707.28
12834.2
9691.53
22436.8
17840.2
21870.4
17876.4
25052.6
22552
24999.3
22082.5
20154.1
14074.6
21056.7
13667.7
22210.5
17879.9
22759.6
17812.6
25508.8
21878.2
25890.2
21744.5
19542.9
14209.4
19366.5
14186.4
11922.7
8072.45
10607.9
6497.15
11048.1
7195.94
9958.67
5916.53
12169.3
8578.64
10885.1
6822.55
12226.6
8921.11
10949
7017.12
2588.99
1373.55
4710.41
2485.45
2695.28
1615.94
4781.44
2785.56
2943.25
2181.59
4723.7
3251.21
13544.6
22661.4
8693.08
7820.41
5343.95
23225.5
14985.1
8328.27
7372.08
4072.47
22390.1
16258
11896.8
8615.33
4984.04
978.14
971.812
1614
1551.7
1254.06
972.355
2039.91
1872.81
1792.09
1609.88
2527.83
2262.6
23671.4
22876.1
15159.6
14047.9
9489.79
9299.88
7226.25
7076.79
3709.3
3347.04
20642.9
17918.4
15119.5
13200.2
11301.6
10480.2
7909.26
7779.45
4604.07
5366.53
14266.3
11475.2
14367.6
10797.6
18126.9
13565.4
18334.3
13285.1
11726.4
9636.34
11613.1
10303.4
14800
10270.9
14892.8
10355.6
19175.2
13595.2
19089.1
13666.6
11791.8
9027.13
11958.2
9379.08
8273.44
7763.34
5156.43
7294.17
8401.19
8159.11
5252.07
7211.91
8241.68
7536.79
4994.65
7640.94
8669.75
7588
5216.81
7550.49
2588.25
2080.97
1633.83
10005.1
4863.23
3714.65
2389.54
2259.54
1929.59
10464.6
5675.98
4573.97
2934.32
3143.56
3163.72
10884.2
6930.92
6078.93
20873
19158.7
17886.1
13472.5
12842.4
12384.8
9835.52
9583.82
9431.12
8717.17
8342.04
8180.16
12374
8989.84
8071.38
15484.6
14090.8
13128.2
11896.7
11016.4
10485
10553.9
9643.92
8952.98
10199.4
9206.14
8661.79
15884.1
11166.6
10225.4
4780.56
2835.49
2128.24
2106.08
5412.37
3087.99
2224.84
2159.69
4623.35
2781.95
2117.83
2131.77
5367.92
3094.22
2245.25
2171.35
4347.68
2704.11
2125.61
2088.58
5210.4
3119.41
2297.19
2118.52
5486.25
3262.29
2327.91
2267.49
5651.94
3411.66
2436.63
2366.68
4649.06
2878.77
2205.39
2112.19
3607.72
2445.68
2023.81
1989.22
3952.93
2559.55
2082.31
1924.14
3168.84
2237.99
1922.47
1886.79
5059.49
3109.86
2305.28
2232.78
3877.07
2607.31
2100.16
2058.44
5292.7
3271.77
2393.54
2290.29
4028.21
2725.45
2167.03
2083.54
3499.87
2405.6
1970.36
1981.68
2102.95
1882.53
1762.5
1823.99
3368.96
2355.89
1961.54
1979.61
2079.27
1872.61
1757.16
1834.8
3168.68
2280.79
1951.53
1961.55
2141.05
1897.8
1757.16
1872.37
2937.02
2160.58
1895.67
1950.26
2147.29
1894.26
1781.05
1871.19
2589.18
2031.16
1799.07
1816.7
525.054
1382.77
1370.35
429.006
-1376.68
1097.66
1167.35
412.797
708.612
1449.3
1395.57
454.594
-1091.33
1177.75
1189.72
420.373
991.119
1545.95
1421.6
452.755
-664.826
1299.89
1217.28
422.469
1369.15
1661.89
1454.14
481.513
-193.867
1445.18
1259.49
437.751
1878.49
1813.49
1515.07
538.898
220.433
1574.66
1300.53
450.349
2210.75
1985.64
1557.06
499.767
41.1954
1706.24
1386.07
469.486
2173.41
1910.56
1519.6
502.482
120.837
1657.78
1339.87
456.807
2174.27
2041.31
1600.24
469.974
-95.9133
1752.91
1426.07
471.817
2160.01
2118.36
1674.37
488.065
77.0402
1831.95
1481.55
487.006
2112.03
1675.22
1199.81
718.336
238.944
2114.64
1676.55
1201.06
719.075
239.18
2151.01
1689.5
1206.45
721.378
239.829
2147.84
1693.16
1209.52
723.101
240.374
2174.49
1704.37
1213.5
724.611
240.768
2158.13
1715.45
1221.66
729.036
242.157
2231.86
1745.48
1238.81
737.813
244.849
2272.94
1773.94
1256.13
746.825
247.626
2233.15
1734.44
1229.38
732.457
243.148
2300.42
1744.25
1231.12
732.817
243.207
2195.72
1720.42
1220.92
728.035
241.768
2285.07
1735.36
1225.95
730.135
242.369
2262.3
1751.17
1239.69
737.877
244.832
2327.88
1760.79
1241.12
738.059
244.838
2289.74
1780.94
1258.45
747.711
247.875
2360.08
1789.72
1259.38
747.676
247.829
2112.12
1674.68
1198.56
717.531
238.683
2148.64
1676.42
1197.94
717.067
238.536
2138.69
1686.24
1203.65
719.785
239.327
2172.85
1686.79
1202.43
719.031
239.096
2177.88
1701.08
1209.98
722.578
240.12
2221.12
1700.96
1208.3
721.607
239.823
2236.15
1717.35
1216.95
725.742
241.029
2269.67
1714.2
1214.54
724.483
240.636
2272.4
1727.63
1221.86
728.082
241.727
7996.22
12352.1
8489.67
12773.8
9255.05
13397.6
10169.4
14460
11201.8
16273.1
10446.9
12897.8
10688.1
13756.7
10416.6
12773.4
10306.4
12754.7
6414.59
1142.64
250.667
56.2087
9.89036
7628.18
2102.44
510.873
115.624
20.1674
6588.94
1134.03
244.039
54.185
9.47559
7816.57
2121.33
508.44
113.515
19.7211
6893.03
1142.99
239.866
52.5496
9.1267
8157.44
2166
509.729
112.441
19.3932
7262.97
1147.92
234.869
50.9516
8.82263
8596.2
2222.09
514.858
112.738
19.3858
7585.5