/*--------------------------------*- C++ -*----------------------------------*\
| =========                 |                                                 |
| \\      /  F ield         | OpenFOAM: The Open Source CFD Toolbox           |
|  \\    /   O peration     | Version:  2412                                  |
|   \\  /    A nd           | Website:  www.openfoam.com                      |
|    \\/     M anipulation  |                                                 |
\*---------------------------------------------------------------------------*/
FoamFile
{
    version     2.0;
    format      ascii;
    arch        "LSB;label=32;scalar=64";
    class       volScalarField;
    location    "2.8";
    object      T;
}
// * * * * * * * * * * * * * * * * * * * * * * * * * * * * * * * * * * * * * //

dimensions      [0 0 0 1 0 0 0];

internalField   nonuniform List<scalar> 
5712
(
541.611
557.44
529.251
548.231
512.704
534.645
487.014
510.904
490.368
514.502
514.145
537.899
525.053
546.739
535.291
554.012
504.224
488.821
520.755
496.858
478.935
462.133
494.474
469.08
549.073
555.491
561.472
564.67
539.733
548.154
554.381
559.358
538.598
526.442
514.33
507.671
539.883
549.82
539.831
545.169
504.49
511.252
517.049
522.619
476.728
482.645
550.874
555.599
523.116
532.073
560.789
566.169
560.096
567.638
567.138
570.733
553.502
565.187
562.481
569.035
544.464
560.999
552.869
565.288
559.004
567.394
562.717
568.714
476.006
462.13
482.907
464.95
443.333
430.84
450.686
434.454
509.207
492.16
503.325
489.341
487.682
466.88
490.478
467.914
455.872
436.86
458.85
438.157
513.684
494.089
516.274
495.056
533.588
559.03
518.9
548.963
528.29
555.515
515.436
545.929
537.344
560.787
520.95
550.725
539.356
561.52
521.844
551.821
556.259
547.393
564.979
558.321
549.045
540.142
561.965
554.449
538.477
528.888
556.718
548.047
462.123
424.174
495.435
521.196
549.038
422.942
460.298
491.699
516.241
541.388
422.218
457.219
486.02
510.791
539.783
529.599
513.208
533.249
517.664
524.505
508.074
531.236
515.236
516.002
499.868
527.633
511.381
416.286
403.94
453.553
441.748
483.003
468.927
505.043
489.719
524.039
507.577
415.082
401.355
449.156
436.45
476.932
463.28
500.261
485.139
521.109
503.949
447.628
437.261
446.376
435.894
413.884
394.139
412.443
390.591
475.284
467.186
476.062
467.252
445.612
434.584
446.133
435.217
412.208
389.039
413.207
390.474
474.516
466.096
475.032
466.679
501.295
493.654
523.329
516.451
501.154
492.548
522.8
514.042
500.678
492.765
523.238
516.743
500.734
492.912
523.069
516.117
494.262
478.603
470.059
497.216
480.904
472.23
489.64
473.655
465.121
494.488
477.505
468.587
480.669
464.209
455.314
489.984
472.023
462.653
387.998
376.573
370.771
425.534
410.635
402.591
451.963
435.27
425.879
470.794
453.89
444.837
484.807
465.625
455.524
384.141
372.045
365.459
421.664
408.205
401.216
447.057
431.789
423.698
465.704
448.153
438.776
479.031
459.745
449.854
419.185
406.106
422.974
410.374
447.626
432.054
455.797
438.115
391.88
372.029
393.112
374.028
392.65
372.427
394.432
375.044
392.535
389.299
391.863
385.419
371.327
375.598
413.122
416.009
442.345
446.113
394.131
396.525
394.439
396.245
378.002
379.689
350.697
332.203
356.32
335.659
352.111
331.884
357.721
335.855
353.086
331.279
359.978
336.493
363.103
338.807
365.293
340.707
384.987
373.366
392.194
378.281
411.433
398.608
419.387
403.48
371.821
358.32
364.337
353.624
396.279
381.217
398.763
382.847
424.127
406.395
426.902
407.901
375.673
361.179
377.86
362.835
354.789
333.572
342.745
327.317
348.078
329.173
338.798
324.399
358.659
336.533
345.323
329.308
360.952
338.6
346.973
330.63
333.169
321.815
325.235
317.586
334.188
323.328
324.873
317.647
335.498
326.761
324.263
318.37
365.205
389.32
348.159
337.092
323.157
387.396
361.754
342.111
330.326
318.665
387.64
363.685
346.044
333.407
320.937
312.266
302.857
309.278
299.995
314.721
305.306
310.304
301.243
319.015
310.199
312.033
303.355
380.737
368.453
354.901
343.649
336.764
327.894
324.798
316.155
314.301
306.124
380.496
367.824
357.243
346.248
340.11
330.581
327.589
318.284
317.102
308.86
360.278
346.702
361.297
345.935
381.759
365.443
382.524
363.031
344.321
331.822
343.176
331.779
362.179
345.361
363.574
346.75
383.673
361.144
385.12
362.544
345.204
331.908
346.441
333.064
330.037
319.56
319.556
309.338
329.797
318.938
318.877
309.162
330.23
320.221
319.916
309.302
331.812
320.971
320.605
310.541
290.961
284.422
281.884
283.447
278.82
277.291
294.252
287.393
284.554
284.829
280.027
278.304
299.437
292.355
289.545
286.947
281.776
279.971
354.987
345.665
341.288
332.762
325.238
322.02
317.431
310.544
307.905
304.974
297.852
294.99
288.94
283.685
281.647
353.377
343.305
338.482
334.06
325.222
320.938
319.124
311.245
307.631
305.552
298.877
296.326
290.137
285.155
282.711
318.114
309.555
304.022
299.194
319.654
310.175
304.309
299.234
317.985
309.587
304.139
299.373
319.9
310.397
304.565
299.487
317.679
309.592
304.324
299.662
320.22
310.713
304.911
299.817
321.495
311.483
305.279
299.971
322.771
312.342
305.713
300.159
319.114
310.46
304.926
300.075
316.67
309.663
304.569
300.303
317
309.483
304.445
299.99
315.26
308.95
304.2
300.255
320.718
311.317
305.308
300.153
317.859
310.345
304.926
300.44
321.99
312.1
305.747
300.391
318.864
310.999
305.351
300.739
315.553
308.595
303.631
299.232
312.498
307.505
303.162
299.369
315.374
308.582
303.693
299.375
312.516
307.554
303.218
299.488
315.062
308.551
303.79
299.626
312.794
307.734
303.366
299.71
314.533
308.474
303.876
299.952
312.918
307.865
303.523
299.982
313.883
308.345
303.872
300.212
309.665
306.601
302.647
299.897
308.017
306.167
302.424
300.124
310.091
306.777
302.758
299.99
308.513
306.36
302.534
300.21
310.78
307.079
302.946
300.151
309.329
306.696
302.723
300.363
311.602
307.447
303.221
300.389
310.32
307.124
302.99
300.571
312.631
307.931
303.554
300.645
311.248
307.576
303.27
300.793
314.076
308.884
304.085
301.058
312.51
308.524
303.877
301.283
313.402
308.386
303.806
300.854
311.965
308.054
303.568
301.035
314.713
309.412
304.377
301.251
313.084
309.042
304.194
301.534
315.508
310.013
304.771
301.537
313.884
309.637
304.589
301.847
293.891
290.07
287.188
285.27
284.314
293.904
290.08
287.194
285.274
284.317
293.968
290.109
287.209
285.283
284.324
293.996
290.131
287.223
285.292
284.331
294.052
290.153
287.234
285.299
284.336
294.132
290.209
287.27
285.322
284.353
294.322
290.323
287.34
285.368
284.388
294.508
290.44
287.412
285.415
284.425
294.234
290.256
287.296
285.338
284.366
294.274
290.263
287.297
285.339
284.366
294.142
290.199
287.261
285.315
284.348
294.217
290.229
287.276
285.325
284.355
294.344
290.326
287.339
285.367
284.388
294.383
290.331
287.339
285.367
284.387
294.542
290.453
287.418
285.419
284.427
294.576
290.455
287.417
285.417
284.426
293.882
290.06
287.181
285.265
284.31
293.884
290.055
287.176
285.262
284.308
293.942
290.089
287.197
285.275
284.317
293.937
290.08
287.19
285.27
284.314
294.022
290.127
287.217
285.287
284.327
294.013
290.115
287.209
285.282
284.322
294.111
290.17
287.241
285.302
284.338
294.088
290.153
287.231
285.295
284.333
294.17
290.201
287.259
285.314
284.347
541.071
536.92
540.34
536.135
538.956
534.716
537.264
532.82
535.757
530.985
535.936
533.07
535.722
532.207
535.992
533.257
536.153
533.394
566.272
571.522
572.667
572.926
572.981
560.705
570.028
572.329
572.854
572.964
566.353
571.567
572.68
572.929
572.982
560.632
570.053
572.34
572.858
572.966
566.321
571.595
572.69
572.932
572.983
560.402
570.051
572.347
572.861
572.966
566.305
571.626
572.7
572.934
572.984
560.086
570.022
572.346
572.861
572.966
566.283
571.63
572.699
572.934
572.983
559.787
569.957
572.327
572.856
572.965
565.101
571.218
572.584
572.905
572.975
559.062
569.544
572.193
572.819
572.954
565.578
571.402
572.638
572.919
572.979
559.338
569.736
572.26
572.838
572.96
564.779
571.093
572.546
572.894
572.972
558.888
569.428
572.15
572.806
572.95
564.873
571.106
572.546
572.893
572.971
558.937
569.421
572.141
572.802
572.948
426.42
463.678
460.78
424.096
406.175
407.984
413.125
416.228
425.692
428.853
451.429
458.252
455.675
462.183
433.943
436.42
425.002
427.363
416.698
418.632
367.054
349.398
304.796
299.045
303.437
299.702
304.434
367.3
361.778
343.639
351.31
345.746
323.54
333.849
328.84
318.156
321.474
316.627
361.445
336.066
320.665
318.24
324.678
320.354
312.647
312.901
311.144
308.115
315.24
313.428
361.433
340.639
347.383
330.444
324.241
336.143
313.628
307.331
316.802
351.318
336.384
322.936
308.134
287.319
338.851
327.37
314.941
300.746
283.096
301.64
297.197
291.349
284.454
276.894
296.503
292.891
288.1
282.427
276.205
300.432
296.182
290.572
283.958
276.723
297.091
293.382
288.465
282.651
276.28
301.32
296.926
291.137
284.314
276.845
351.341
334.927
320.543
305.44
286.264
345.269
329.278
315.125
300.437
282.984
333.698
322.361
310.036
296.554
281.289
336.957
322.558
309.441
295.986
281.284
332.811
319.167
306.69
293.979
280.343
317.683
310.078
300.777
290.261
278.877
325.799
316.138
305.113
293.01
279.874
321.723
312.909
302.628
291.322
279.231
313.225
306.594
298.24
288.672
278.321
315.922
308.637
299.666
289.526
278.609
311.932
305.562
297.477
288.191
278.153
347.584
332.645
319.132
304.502
285.714
328.201
318.555
307.401
294.827
280.599
315.418
308.42
299.66
289.61
278.656
313.396
306.846
298.54
288.933
278.426
318.849
311.224
301.834
291.069
279.19
315.263
308.411
299.764
289.741
278.708
308.58
302.959
295.69
287.176
277.825
308.796
303.121
295.781
287.209
277.832
307.237
301.805
294.752
286.533
277.594
304.58
299.626
293.145
285.55
277.262
310.786
304.692
296.889
287.861
278.047
309.241
303.465
296.011
287.334
277.872
347.334
332.962
319.897
305.479
286.096
331.999
321.898
310.434
297.283
281.656
337.861
325.564
313.149
299.092
281.688
323.879
315.408
305.192
293.383
279.994
318.627
311.163
301.884
291.135
279.188
328.491
318.819
307.697
295.033
280.499
309.436
303.656
296.196
287.481
277.927
303.886
299.056
292.73
285.302
277.18
312.18
305.883
297.844
288.506
278.279
506.282
544.806
498.676
535.165
475.533
515.832
482.585
526.604
489.732
479.162
516.001
492.846
466.141
454.192
490.886
466.096
523.309
537.18
552.921
558.586
517.596
531.656
546.674
553.7
532.836
511.636
510.076
497.928
527.062
544.779
538.265
544.839
502.778
510.838
515.736
522.299
475.504
482.336
549.154
555.267
521.394
531.668
559.449
565.961
549.378
563.945
563.458
569.479
543.23
561.774
558.778
567.802
536.141
558.238
549.18
564.038
557.66
566.895
562.449
568.605
473.112
462.675
481.182
465.293
443.263
434.214
450.461
436.314
506.778
491.615
498.991
488.217
486.902
467.128
490.28
468.016
455.812
437.874
458.854
438.505
512.578
493.88
515.981
495.008
531.26
558.148
518.125
548.602
523.921
553.838
513.876
545.204
536.297
560.381
520.612
550.568
539.079
561.408
521.751
551.778
538.576
526.564
559.032
550.879
532.308
520.846
556.685
547.898
524.946
514.176
552.561
543.237
464.415
435.33
491.218
514.831
546.463
435.57
462.677
486.034
507.976
538.026
431.982
459.801
484.335
507.991
538.482
508.212
493.751
523.233
510.36
504.924
490.333
522.932
509.417
501.072
486.964
522.049
507.997
428.632
418.516
455.795
445.385
477.993
465.705
497.852
484.627
520.782
506.245
424.963
412.37
452.714
442.241
476.56
465.683
498.59
486.066
520.033
504.577
450.476
441.358
448.402
438.648
420.039
401.669
416.297
395.418
476.073
468.622
476.741
469.161
446.787
436.13
446.516
435.703
414.222
391.485
413.84
391.23
475.077
466.991
475.227
466.97
501.442
494.255
523.289
516.651
500.866
493.238
522.453
514.236
500.882
493.196
523.291
516.914
500.821
493.071
523.098
516.181
482.849
477.086
498.553
493.036
479.133
472.831
497.111
490.376
475.672
469.097
494.63
486.043
407.994
402.249
435.559
428.712
455.807
448.184
473.323
465.452
491.015
480.536
398.121
393.469
432.536
426.745
455.257
448.079
472.713
463.514
485.92
475.531
411.995
404.11
420.102
410.33
438.236
427.228
453.08
436.576
393.978
376.145
398.37
379.655
392.102
375.994
397.035
379.685
394.031
388.846
393.782
387.214
375.459
379.414
413.488
416.188
441.828
446.005
395.403
397.041
395.788
396.745
380.499
380.619
362.72
344.549
364.849
345.544
363.215
343.432
365.111
344.543
363.13
341.583
365.834
343.413
366.647
343.124
366.513
342.2
391.139
382.193
395.307
383.28
414.704
405.267
420.864
407.12
376.555
364.124
373.097
363.387
397.929
383.885
399.272
383.734
424.903
408.314
427.146
408.541
378.183
364.342
378.638
363.891
360.803
339.589
348.682
332.682
358.451
338.18
348.311
332.377
361.902
340.033
348.65
332.428
361.959
339.737
348.1
331.675
358.888
355.258
342.031
337.938
359.106
355.577
340.686
336.638
358.335
355.022
338.578
334.805
385.662
407.806
368.14
354.927
335.514
408.74
386.384
367.567
353.049
333.087
403.849
381.377
362.676
347.874
331.61
350.729
343.828
331.304
320.008
351.438
345.064
330.625
319.855
351.053
344.671
329.489
319.389
402.209
393.014
380.961
373.188
363.692
357.582
349.004
341.879
329.079
319.876
396.639
384.493
375.621
365.245
357.745
348.602
342.877
333.444
328.285
319.757
371.013
357.428
367.532
352.183
391.195
375.519
388.047
369.09
350.629
337.732
353.837
341.908
365.35
348.435
364.562
347.688
386.442
364.128
385.976
363.455
348.47
334.841
347.474
333.971
335.768
324.641
324.57
313.457
339.403
327.541
326.668
315.83
333.317
322.851
322.702
311.473
332.862
321.828
321.449
311.19
336.375
333.317
299.278
296.051
339.514
335.885
300.11
296.632
337.993
332.951
300.752
296.574
384.033
378.784
365.647
361.296
350.243
345.957
333.044
327.708
300.978
296.071
372.212
368.311
354.537
350.66
338.075
334.172
320.888
317.548
298.831
295.014
326.803
315.245
307.886
301.785
327.322
315.379
307.922
301.687
326.152
314.965
307.796
301.816
326.701
315.056
307.824
301.705
325.013
314.469
307.683
301.933
325.737
314.542
307.614
301.646
325.072
314.018
307.049
301.12
324.042
313.256
306.36
300.594
323.67
313.64
307.202
301.668
320.763
312.566
306.689
301.895
323.275
313.716
307.408
302.04
321.007
312.892
306.954
302.209
323.52
313.32
306.789
301.246
320.323
312.137
306.281
301.516
322.946
312.793
306.258
300.762
319.692
311.608
305.817
301.112
325.689
314.912
307.81
302.026
323.933
314.399
307.59
302.379
325.054
314.669
307.729
302.075
323.431
314.22
307.511
302.412
324.007
314.256
307.601
302.201
322.637
313.898
307.387
302.493
322.414
313.604
307.354
302.358
321.781
313.53
307.248
302.577
320.982
313.06
307.061
302.435
321.844
313.892
307.206
303.253
320.359
313.624
307.078
303.69
321.62
313.781
307.176
303.251
320.182
313.516
307.04
303.673
321.155
313.549
307.086
303.222
319.818
313.297
306.941
303.627
320.665
313.244
307.004
303.203
319.42
312.997
306.829
303.572
320.004
312.824
306.862
303.162
318.782
312.602
306.659
303.489
318.122
311.828
306.194
302.739
316.496
311.494
306.001
303.018
319.15
312.382
306.585
303.01
317.68
312.094
306.379
303.306
317.116
311.224
305.704
302.336
315.42
310.858
305.515
302.626
316.296
310.619
305.22
301.907
314.64
310.238
305.031
302.214
295.387
290.963
287.73
285.622
284.583
295.349
290.949
287.723
285.618
284.58
295.354
290.933
287.709
285.608
284.572
295.288
290.905
287.694
285.599
284.565
295.311
290.898
287.686
285.592
284.56
295.173
290.833
287.649
285.569
284.542
294.975
290.716
287.579
285.524
284.508
294.764
290.595
287.507
285.477
284.472
295.14
290.798
287.625
285.553
284.53
295.18
290.803
287.625
285.552
284.529
295.259
290.859
287.66
285.575
284.547
295.253
290.84
287.646
285.565
284.539
295.001
290.722
287.581
285.524
284.508
295.041
290.729
287.582
285.525
284.508
294.766
290.589
287.502
285.473
284.469
294.81
290.598
287.504
285.474
284.47
295.439
290.981
287.738
285.627
284.587
295.484
290.992
287.743
285.63
284.589
295.422
290.96
287.723
285.616
284.579
295.471
290.975
287.73
285.62
284.582
295.396
290.931
287.703
285.602
284.568
295.447
290.948
287.711
285.607
284.571
295.352
290.895
287.679
285.586
284.555
295.392
290.911
287.688
285.592
284.56
295.303
290.865
287.661
285.575
284.546
535.792
532.076
535.858
532.115
535.766
532.003
535.351
531.368
534.932
530.57
535.867
533.1
535.423
532.106
536.004
533.32
536.165
533.421
565.401
571.363
572.635
572.92
572.98
559.234
569.714
572.265
572.842
572.962
565.616
571.431
572.652
572.924
572.981
559.376
569.78
572.284
572.847
572.963
565.783
571.493
572.669
572.928
572.982
559.489
569.844
572.304
572.852
572.964
565.977
571.56
572.685
572.931
572.983
559.531
569.886
572.315
572.854
572.965
566.127
571.594
572.691
572.932
572.983
559.517
569.879
572.309
572.851
572.964
565.078
571.209
572.582
572.904
572.975
559.032
569.528
572.188
572.817
572.954
565.508
571.382
572.633
572.918
572.979
559.229
569.697
572.25
572.835
572.959
564.776
571.09
572.545
572.894
572.972
558.889
569.423
572.148
572.805
572.95
564.874
571.105
572.545
572.893
572.971
558.94
569.42
572.14
572.802
572.948
426.355
463.36
459.54
423.387
417.321
423.463
415.15
422.676
443.828
459.46
447.68
462.486
282.923
283.558
284.973
287.212
290.277
294.163
283.463
284.087
285.468
287.627
290.574
294.326
282.479
282.256
283.13
282.907
284.596
284.386
286.986
286.866
290.272
290.399
294.514
295.119
298.785
304.534
311.977
321.924
330.282
336.337
298.915
304.454
310.999
318.15
324.301
328.221
281.98
280.624
278.802
276.629
274.235
282.554
281.11
279.172
276.859
274.313
283.832
282.192
279.994
277.373
274.488
285.854
283.904
281.294
278.184
274.763
288.619
286.243
283.069
279.292
275.14
292.118
289.199
285.309
280.689
275.615
282.468
281.037
279.117
276.825
274.301
283.031
281.514
279.479
277.051
274.378
284.279
282.57
280.281
277.552
274.548
286.227
284.22
281.533
278.334
274.814
288.885
286.467
283.238
279.398
275.176
292.263
289.32
285.401
280.747
275.635
281.578
280.283
278.543
276.467
274.179
281.377
280.112
278.413
276.385
274.152
282.166
280.781
278.922
276.703
274.26
281.965
280.611
278.792
276.622
274.232
283.492
281.904
279.775
277.236
274.441
283.302
281.744
279.654
277.16
274.415
285.65
283.732
281.164
278.103
274.736
285.542
283.641
281.095
278.06
274.721
288.615
286.241
283.067
279.29
275.139
288.729
286.337
283.139
279.335
275.154
292.435
289.466
285.51
280.814
275.657
292.979
289.925
285.856
281.028
275.729
296.271
292.698
287.957
282.341
276.176
301.41
297.011
291.218
284.38
276.871
308.006
302.512
295.38
286.999
277.77
316.689
309.684
300.841
290.508
278.995
323.805
315.517
305.364
293.543
280.117
328.863
319.644
308.62
295.807
280.975
296.384
292.792
288.031
282.389
276.193
301.339
296.955
291.182
284.361
276.866
307.161
301.827
294.873
286.682
277.662
313.47
307.082
298.867
289.22
278.541
318.845
311.543
302.282
291.428
279.319
322.249
314.367
304.462
292.859
279.831
283.044
283.925
285.607
288.146
291.547
295.808
283.586
284.46
286.105
288.548
291.798
295.855
282.597
282.373
283.492
283.266
285.229
285.016
287.936
287.821
291.597
291.743
296.323
297.066
300.794
306.84
314.415
324.097
331.808
336.89
300.712
306.426
312.971
319.858
325.471
328.639
282.089
280.716
278.873
276.673
274.25
282.887
281.393
279.388
276.995
274.359
284.407
282.683
280.369
277.608
274.568
286.702
284.628
281.847
278.532
274.882
289.774
287.231
283.825
279.767
275.302
293.617
290.483
286.295
281.31
275.827
282.579
281.132
279.189
276.87
274.317
283.369
281.802
279.699
277.189
274.425
284.857
283.063
280.658
277.788
274.629
287.064
284.934
282.08
278.677
274.931
289.998
287.418
283.967
279.856
275.332
293.656
290.513
286.317
281.324
275.832
281.685
280.374
278.613
276.51
274.194
281.482
280.202
278.482
276.428
274.166
282.495
281.061
279.136
276.837
274.305
282.291
280.887
279.004
276.755
274.277
284.066
282.393
280.149
277.47
274.521
283.873
282.23
280.025
277.393
274.494
286.513
284.468
281.727
278.456
274.856
286.409
284.38
281.66
278.415
274.842
289.82
287.27
283.856
279.787
275.309
289.952
287.383
283.942
279.84
275.327
294.085
290.88
286.597
281.499
275.891
294.756
291.449
287.029
281.769
275.983
298.106
294.274
289.172
283.109
276.439
303.526
298.838
292.635
285.279
277.18
310.261
304.476
296.917
287.983
278.109
318.723
311.48
302.268
291.435
279.317
325.252
316.811
306.407
294.232
280.361
329.394
320.123
309.011
296.07
281.069
298.025
294.202
289.117
283.075
276.428
303.146
298.514
292.388
285.126
277.128
308.977
303.402
296.099
287.465
277.931
315.052
308.464
299.952
289.918
278.782
319.936
312.503
303.041
291.92
279.491
322.64
314.713
304.737
293.038
279.894
367.904
350.157
307.604
301.338
306.87
302.459
307.693
375.877
374.176
352.384
365.11
330.551
342.337
324.57
329.203
322.676
367.24
342.263
326.559
323.352
330.193
324.731
315.915
317.062
316.532
312.726
320.736
318.24
364.058
342.788
351.742
333.544
328.031
341.044
317.437
311.193
321.365
352.228
337.257
323.715
308.739
287.569
339.608
328.074
315.537
301.168
283.253
304.222
299.43
293.084
285.558
277.274
298.599
294.694
289.491
283.308
276.507
303.586
298.91
292.689
285.304
277.185
299.614
295.554
290.144
283.715
276.645
304.316
299.519
293.151
285.595
277.285
361.01
344.464
329.024
311.756
288.901
359.601
343.159
327.325
309.405
286.619
342.722
330.94
317.336
301.641
283.181
352.909
337.633
322.401
305.251
284.929
324.51
316.318
305.878
293.651
280.077
334.496
324.349
312.015
297.726
281.591
319.336
312.084
302.661
291.57
279.335
323.38
315.413
305.179
293.176
279.898
317.685
310.724
301.629
290.908
279.103
353.805
338.699
324.476
308.452
287.355
334.32
324.224
312.118
298.031
281.757
321.044
313.483
303.744
292.293
279.597
318.223
311.145
301.977
291.174
279.208
324.133
315.997
305.705
293.629
280.093
319.393
312.088
302.704
291.659
279.377
311.615
305.616
297.779
288.519
278.289
312.67
306.523
298.463
288.936
278.43
312.24
306.187
298.2
288.751
278.361
308.836
303.327
296.036
287.398
277.9
315.958
309.283
300.546
290.236
278.874
313.736
307.426
299.144
289.357
278.573
350.118
335.595
322.206
307.207
286.822
334.099
323.821
312.028
298.376
282.055
342.264
329.665
316.622
301.506
282.519
326.839
318.074
307.354
294.815
280.495
322.214
314.367
304.458
292.821
279.777
333.291
323.226
311.343
297.495
281.369
312.983
306.771
298.654
289.065
278.476
307.45
302.155
295.149
286.847
277.713
316.464
309.678
300.863
290.465
278.96
280.513
294.896
307.836
318.914
327.669
334.174
488.053
482.952
459.971
465.102
475.212
468.778
452.461
443.79
507.355
524.191
503.438
519.712
498.155
489.309
514.899
478.328
474.601
452.429
456.39
468.161
463.404
446.124
439.341
497.165
510.545
494.646
507.435
490.335
483.001
503.72
464.755
462.434
441.726
444.478
457.784
455.043
436.905
431.829
481.807
495.255
480.235
493.341
477.517
472.447
490.862
451.097
449.523
430.403
432.551
446.05
444.319
426.369
421.916
467.339
480.793
466.285
479.281
464.094
459.844
477.223
441.241
439.866
422.108
424.098
436.489
434.549
418.15
413.134
456.365
468.651
455.604
468.067
453.731
449.704
466.468
434.404
433.07
416.493
418.434
429.718
427.694
412.611
407.677
448.067
460.609
447.337
460.449
445.794
442.02
458.868
410.967
408.058
433.716
437.414
404.17
396.99
428.127
419.224
388.324
369.36
385.895
368.697
380.734
379.267
367.616
406.893
404.027
428.222
431.444
400.248
393.394
423.115
415.08
383.321
366.918
380.777
366.553
376.136
375.098
365.419
400.875
398.197
420.033
422.671
394.637
388.554
415.665
408.932
381.067
365.061
378.744
364.128
374.39
373.311
362.445
394.085
391.365
410.876
413.242
387.25
380.705
406.71
399.796
376.867
361.955
374.288
360.155
369.587
367.693
357.394
389.109
386.349
404.168
406.469
382.29
375.666
400.014
393.036
373.552
360.2
370.612
357.105
365.443
362.68
352.991
386.068
383.267
399.751
402.033
379.241
372.557
395.633
388.823
372.421
358.553
369.213
354.541
363.13
359.758
349.78
542.224
557.85
529.249
548.203
512.705
534.635
487.02
510.905
490.377
514.504
514.155
537.893
525.07
546.727
536.112
554.567
504.223
488.82
520.75
496.855
478.938
462.134
494.475
469.08
549.509
555.811
561.744
564.868
539.725
548.139
554.351
559.33
538.586
526.434
514.325
507.667
539.872
549.806
539.829
545.169
504.488
511.251
517.049
522.619
476.728
482.644
550.871
555.598
523.113
532.071
560.785
566.168
560.344
567.749
567.293
570.795
553.483
565.182
562.458
569.028
544.453
560.995
552.859
565.285
559.001
567.392
562.716
568.714
476.004
462.129
482.905
464.949
443.334
430.84
450.685
434.454
509.204
492.158
503.322
489.339
487.681
466.879
490.477
467.913
455.872
436.86
458.85
438.156
513.682
494.088
516.272
495.055
533.584
559.029
518.898
548.962
528.285
555.513
515.434
545.928
537.341
560.786
520.949
550.724
539.354
561.519
521.843
551.821
556.499
547.619
565.111
558.466
549.018
540.11
561.959
554.44
538.464
528.876
556.714
548.043
462.121
424.174
495.432
521.19
549.035
422.942
460.296
491.696
516.234
541.386
422.218
457.218
486.017
510.788
539.782
529.796
513.374
533.384
517.771
524.491
508.057
531.246
515.243
515.994
499.862
527.635
511.384
416.286
403.94
453.552
441.747
483.001
468.925
505.039
489.716
524.039
507.578
415.082
401.354
449.155
436.449
476.93
463.279
500.259
485.138
521.109
503.949
447.627
437.26
446.375
435.893
413.884
394.139
412.443
390.591
475.283
467.185
476.061
467.251
445.611
434.583
446.133
435.217
412.207
389.039
413.206
390.474
474.515
466.095
475.032
466.678
501.294
493.653
523.329
516.45
501.153
492.547
522.8
514.041
500.678
492.764
523.237
516.743
500.733
492.911
523.069
516.117
494.432
478.788
470.262
497.332
481.045
472.387
489.63
473.648
465.119
494.493
477.511
468.596
480.665
464.208
455.315
489.986
472.026
462.657
387.998
376.574
370.772
425.534
410.635
402.591
451.962
435.27
425.879
470.793
453.89
444.838
484.808
465.627
455.527
384.141
372.046
365.459
421.664
408.205
401.217
447.056
431.789
423.699
465.703
448.154
438.777
479.032
459.747
449.856
419.193
406.109
422.982
410.377
447.633
432.057
455.803
438.118
391.762
371.98
392.963
373.956
392.638
372.416
394.418
375.035
392.534
389.297
391.864
385.419
371.323
375.595
413.124
416.011
442.346
446.115
394.131
396.527
394.44
396.247
378.002
379.69
350.65
332.199
356.26
335.644
352.111
331.877
357.721
335.851
353.084
331.276
359.976
336.491
363.103
338.806
365.294
340.708
384.989
373.367
392.196
378.282
411.434
398.609
419.388
403.481
371.822
358.321
364.338
353.625
396.281
381.218
398.764
382.848
424.128
406.395
426.902
407.901
375.674
361.179
377.862
362.836
354.789
333.572
342.745
327.318
348.079
329.172
338.799
324.4
358.66
336.533
345.324
329.308
360.953
338.601
346.974
330.631
333.132
321.754
325.232
317.564
334.19
323.332
324.865
317.643
335.499
326.764
324.261
318.37
365.207
389.321
348.161
337.094
323.157
387.396
361.755
342.113
330.329
318.666
387.64
363.687
346.045
333.408
320.938
312.185
302.762
309.254
299.962
314.732
305.318
310.312
301.254
319.02
310.206
312.037
303.361
380.738
368.454
354.902
343.651
336.766
327.897
324.801
316.16
314.304
306.128
380.496
367.825
357.244
346.249
340.112
330.582
327.591
318.286
317.103
308.862
360.279
346.703
361.297
345.936
381.76
365.444
382.524
363.031
344.322
331.822
343.177
331.779
362.18
345.361
363.575
346.75
383.674
361.144
385.12
362.544
345.204
331.909
346.442
333.064
330.038
319.561
319.556
309.338
329.798
318.939
318.878
309.162
330.231
320.221
319.916
309.302
331.813
320.972
320.605
310.541
290.868
284.334
281.797
283.443
278.805
277.274
294.273
287.413
284.57
284.846
280.04
278.314
299.447
292.364
289.554
286.954
281.783
279.976
354.988
345.667
341.289
332.764
325.24
322.022
317.434
310.547
307.909
304.979
297.857
294.994
288.944
283.688
281.65
353.378
343.306
338.483
334.061
325.224
320.94
319.126
311.247
307.633
305.554
298.88
296.328
290.139
285.157
282.713
318.115
309.552
304.015
299.185
319.645
310.166
304.297
299.222
317.983
309.586
304.138
299.373
319.9
310.397
304.564
299.486
317.678
309.592
304.324
299.662
320.22
310.713
304.911
299.817
321.495
311.483
305.279
299.971
322.772
312.343
305.713
300.16
319.114
310.46
304.926
300.075
316.671
309.663
304.569
300.303
317
309.483
304.445
299.99
315.26
308.95
304.201
300.255
320.719
311.317
305.308
300.153
317.859
310.346
304.926
300.441
321.991
312.101
305.748
300.391
318.865
310.999
305.351
300.74
315.557
308.594
303.626
299.225
312.493
307.501
303.158
299.364
315.372
308.582
303.692
299.375
312.515
307.553
303.217
299.488
315.061
308.55
303.789
299.626
312.795
307.735
303.366
299.71
314.533
308.474
303.876
299.952
312.919
307.866
303.523
299.982
313.884
308.345
303.872
300.212
309.661
306.598
302.644
299.892
308.006
306.162
302.42
300.12
310.095
306.778
302.758
299.989
308.518
306.362
302.534
300.209
310.782
307.08
302.946
300.151
309.332
306.697
302.723
300.363
311.603
307.447
303.221
300.389
310.321
307.125
302.99
300.571
312.632
307.931
303.554
300.645
311.249
307.577
303.271
300.793
314.077
308.885
304.086
301.059
312.51
308.524
303.877
301.284
313.403
308.386
303.806
300.854
311.965
308.054
303.568
301.035
314.714
309.413
304.378
301.251
313.084
309.043
304.194
301.535
315.509
310.014
304.772
301.538
313.885
309.637
304.59
301.847
293.887
290.068
287.187
285.269
284.313
293.899
290.077
287.193
285.273
284.316
293.968
290.109
287.21
285.283
284.324
293.996
290.131
287.224
285.293
284.331
294.052
290.153
287.234
285.299
284.336
294.132
290.209
287.27
285.322
284.354
294.322
290.323
287.34
285.368
284.388
294.508
290.44
287.412
285.415
284.425
294.234
290.256
287.296
285.339
284.366
294.274
290.263
287.297
285.339
284.366
294.142
290.199
287.261
285.316
284.349
294.218
290.229
287.276
285.325
284.356
294.344
290.326
287.339
285.367
284.388
294.383
290.331
287.34
285.367
284.387
294.542
290.453
287.419
285.419
284.428
294.576
290.455
287.417
285.418
284.426
293.879
290.059
287.18
285.265
284.31
293.881
290.053
287.176
285.262
284.307
293.942
290.089
287.197
285.275
284.317
293.937
290.08
287.19
285.27
284.314
294.022
290.127
287.217
285.287
284.327
294.013
290.115
287.209
285.282
284.322
294.111
290.17
287.241
285.302
284.338
294.088
290.154
287.231
285.295
284.333
294.17
290.202
287.26
285.314
284.347
541.127
536.983
540.355
536.15
538.963
534.723
537.267
532.823
535.758
530.986
535.935
533.07
535.722
532.207
535.991
533.257
536.152
533.393
566.305
571.53
572.668
572.926
572.981
560.731
570.034
572.33
572.854
572.964
566.365
571.571
572.681
572.93
572.982
560.645
570.057
572.341
572.858
572.966
566.325
571.596
572.69
572.932
572.983
560.408
570.054
572.348