/*--------------------------------*- C++ -*----------------------------------*\
| =========                 |                                                 |
| \\      /  F ield         | OpenFOAM: The Open Source CFD Toolbox           |
|  \\    /   O peration     | Version:  2412                                  |
|   \\  /    A nd           | Website:  www.openfoam.com                      |
|    \\/     M anipulation  |                                                 |
\*---------------------------------------------------------------------------*/
FoamFile
{
    version     2.0;
    format      ascii;
    arch        "LSB;label=32;scalar=64";
    class       volScalarField;
    location    "60/rightSolid";
    object      T;
}
// * * * * * * * * * * * * * * * * * * * * * * * * * * * * * * * * * * * * * //

dimensions      [0 0 0 1 0 0 0];

internalField   nonuniform List<scalar> 
130
(
314.15014
312.12042
310.10027
308.20991
306.52579
305.08495
303.89458
302.94234
302.20523
301.65651
301.2705
301.02583
300.90736
316.50007
313.91894
311.41695
309.14164
307.16829
305.51932
304.18387
303.13295
302.33015
301.73872
301.32593
301.06572
300.94013
321.28161
317.42653
313.88443
310.82938
308.3005
306.26841
304.67454
303.45222
302.53745
301.87422
301.41684
301.13092
300.9936
328.49892
322.23216
317.00489
312.83501
309.58433
307.08884
305.19851
303.78703
302.75209
302.01329
301.50961
301.19721
301.04787
337.02586
326.78957
319.56464
314.32966
310.48228
307.63919
305.5405
304.0017
302.88818
302.1009
301.56785
301.23878
301.0819
337.02585
326.78955
319.56464
314.32966
310.48228
307.63919
305.54051
304.0017
302.88818
302.1009
301.56785
301.23879
301.0819
328.4989
322.23215
317.00489
312.83502
309.58434
307.08885
305.19853
303.78703
302.75209
302.0133
301.50961
301.19721
301.04787
321.28162
317.42654
313.88445
310.8294
308.30052
306.26843
304.67456
303.45223
302.53746
301.87423
301.41685
301.13092
300.9936
316.5001
313.91897
311.41698
309.14167
307.16831
305.51934
304.1839
303.13296
302.33016
301.73873
301.32594
301.06572
300.94013
314.1502
312.12046
310.10031
308.20994
306.52582
305.08497
303.89461
302.94235
302.20524
301.65652
301.27051
301.02583
300.90736
)
;

boundaryField
{
    maxX
    {
        type            zeroGradient;
    }
    minZ
    {
        type            zeroGradient;
    }
    maxZ
    {
        type            zeroGradient;
    }
    rightSolid_to_bottomWater
    {
        type            compressible::turbulentTemperatureRadCoupledMixed;
        refValue        nonuniform List<scalar> 
130
(
301.23292
301.12156
300.96558
300.79143
300.62122
300.46992
300.34483
300.24703
300.1739
300.12128
300.08501
300.06151
300.04818
301.52639
301.44356
301.2875
301.08904
300.87782
300.67765
300.50376
300.36278
300.25476
300.17588
300.12081
300.08434
300.06234
302.47485
302.28312
301.98789
301.6411
301.29095
300.97306
300.70709
300.49844
300.34299
300.23202
300.15598
300.10621
300.07612
307.17824
305.58306
304.15103
302.98258
302.0907
301.43846
300.97561
300.65451
300.43583
300.28851
300.19076
300.12773
300.0897
314.52281
305.939
303.58977
302.41097
301.66864
301.16651
300.81532
300.56657
300.39034
300.26662
300.1814
300.12469
300.08964
314.52283
305.93902
303.58978
302.41098
301.66865
301.16652
300.81533
300.56658
300.39035
300.26662
300.1814
300.12469
300.08964
307.17824
305.58307
304.15104
302.9826
302.09072
301.43847
300.97562
300.65452
300.43583
300.28851
300.19076
300.12773
300.0897
302.47485
302.28313
301.98789
301.64111
301.29096
300.97307
300.70709
300.49845
300.343
300.23202
300.15598
300.10622
300.07612
301.52639
301.44357
301.28751
301.08905
300.87783
300.67766
300.50376
300.36278
300.25477
300.17589
300.12081
300.08434
300.06234
301.23293
301.12157
300.96559
300.79145
300.62123
300.46993
300.34483
300.24704
300.17391
300.12128
300.08501
300.06151
300.04818
)
;
        refGradient     uniform 0;
        valueFraction   uniform 0.0075140686;
        source          uniform 0;
        logInterval     -1;
        writePrecision  8;
        updateHeader    1;
        writeToFile     0;
        useUserTime     1;
        kappaMethod     solidThermo;
        value           nonuniform List<scalar> 
130
(
314.04288
312.02848
310.02333
308.14689
306.47515
305.04496
303.86347
302.91842
302.18696
301.6425
301.25952
301.01677
300.89922
316.37715
313.81572
311.33237
309.07371
307.11462
305.47753
304.1517
303.10841
302.3115
301.72446
301.31477
301.0565
300.93183
321.12957
317.30296
313.78631
310.75268
308.24124
306.22305
304.64008
303.4262
302.51783
301.85931
301.40521
301.12134
300.98496
328.32769
322.09698
316.89929
312.75308
309.52123
307.04065
305.16201
303.75956
302.73147
301.9977
301.4975
301.18726
301.03889
336.84562
326.62265
319.43543
314.23207
310.40915
307.58473
305.50014
303.97191
302.86616
302.08444
301.55519
301.22847
301.07264
336.84561
326.62264
319.43543
314.23206
310.40915
307.58473
305.50015
303.97191
302.86616
302.08444
301.55519
301.22847
301.07265
328.32768
322.09697
316.89929
312.75309
309.52124
307.04066
305.16203
303.75957
302.73147
301.9977
301.4975
301.18726
301.0389
321.12959
317.30298
313.78632
310.7527
308.24125
306.22306
304.64011
303.42621
302.51784
301.85931
301.40522
301.12134
300.98497
316.37719
313.81575
311.3324
309.07374
307.11465
305.47755
304.15173
303.10842
302.31151
301.72447
301.31478
301.05651
300.93183
314.04294
312.02853
310.02337
308.14692
306.47518
305.04498
303.8635
302.91844
302.18697
301.64251
301.25953
301.01677
300.89923
)
;
    }
    rightSolid_to_topAir
    {
        type            compressible::turbulentTemperatureRadCoupledMixed;
        refValue        nonuniform List<scalar> 
130
(
304.10235
304.43903
304.62543
304.68046
304.62702
304.48976
304.29318
304.06032
303.81166
303.5596
303.30506
303.05757
302.83314
304.17376
304.52222
304.71983
304.788
304.75094
304.63321
304.45806
304.24674
304.01817
303.78923
303.57458
303.37026
303.17951
305.37301
305.75986
305.94666
305.97087
305.86998
305.67841
305.42653
305.14062
304.84331
304.55432
304.29011
304.03691
303.80589
307.55025
307.99534
308.1611
308.11748
307.92292
307.62421
307.25809
306.85323
306.43201
306.01214
305.60808
305.23064
304.89771
310.62866
311.01252
311.04127
310.83167
310.46412
309.99554
309.46695
308.90811
308.34067
307.78052
307.23952
306.72704
306.26237
310.62866
311.01253
311.04127
310.83167
310.46412
309.99554
309.46696
308.90811
308.34068
307.78052
307.23953
306.72704
306.26237
307.55025
307.99534
308.1611
308.11748
307.92292
307.6242
307.25809
306.85323
306.43201
306.01214
305.60808
305.23064
304.89771
305.37301
305.75987
305.94666
305.97087
305.86998
305.67841
305.42654
305.14062
304.84331
304.55433
304.29011
304.03692
303.8059
304.17376
304.52223
304.71984
304.788
304.75095
304.63321
304.45807
304.24675
304.01818
303.78924
303.57459
303.37027
303.17952
304.10236
304.43904
304.62544
304.68047
304.62703
304.48977
304.29319
304.06033
303.81167
303.55961
303.30507
303.05759
302.83315
)
;
        refGradient     uniform 0;
        valueFraction   uniform 0.00032132529;
        source          uniform 0;
        logInterval     -1;
        writePrecision  8;
        updateHeader    1;
        writeToFile     0;
        useUserTime     1;
        kappaMethod     solidThermo;
        value           nonuniform List<scalar> 
130
(
314.13663
312.10859
310.09015
308.20144
306.51886
305.0794
303.89024
302.93901
302.20272
301.65463
301.26906
301.02465
300.90628
316.48563
313.90637
311.40627
309.13277
307.16107
305.51359
304.17941
303.12956
302.32762
301.73685
301.32453
301.0646
300.93913
321.2657
317.41293
313.87308
310.82011
308.29308
306.26261
304.6701
303.44891
302.53504
301.87249
301.41559
301.12996
300.99275
328.48109
322.21744
316.99297
312.82554
309.57696
307.08324
305.19437
303.78406
302.75003
302.01192
301.50871
301.19657
301.04731
337.00615
326.77418
319.55266
314.32044
310.47532
307.63408
305.53688
303.99927
302.88665
302.10003
301.56742
301.23859
301.08175
337.00613
326.77417
319.55266
314.32044
310.47532
307.63408
305.53689
303.99927
302.88665
302.10003
301.56742
301.23859
301.08175
328.48107
322.21742
316.99297
312.82554
309.57696
307.08325
305.19439
303.78406
302.75004
302.01193
301.50871
301.19658
301.04732
321.26572
317.41295
313.8731
310.82012
308.2931
306.26262
304.67013
303.44892
302.53504
301.8725
301.4156
301.12996
300.99275
316.48567
313.90641
311.4063
309.13279
307.16109
305.51361
304.17944
303.12957
302.32763
301.73686
301.32454
301.06461
300.93914
314.13669
312.10864
310.09019
308.20148
306.51889
305.07943
303.89027
302.93902
302.20273
301.65463
301.26907
301.02466
300.90629
)
;
    }
    rightSolid_to_heater
    {
        type            compressible::turbulentTemperatureRadCoupledMixed;
        refValue        nonuniform List<scalar> 10(316.03314 318.93533 325.05423 335.2347 352.12733 352.12735 335.23471 325.05426 318.93537 316.03321);
        refGradient     uniform 0;
        valueFraction   uniform 0.50000003;
        source          uniform 0;
        logInterval     -1;
        writePrecision  8;
        updateHeader    1;
        writeToFile     0;
        useUserTime     1;
        kappaMethod     solidThermo;
        value           nonuniform List<scalar> 10(315.0865 317.71246 323.16252 331.86126 344.57098 344.57098 331.86125 323.16254 317.7125 315.08657);
    }
}


// ************************************************************************* //
