/*--------------------------------*- C++ -*----------------------------------*\
| =========                 |                                                 |
| \\      /  F ield         | OpenFOAM: The Open Source CFD Toolbox           |
|  \\    /   O peration     | Version:  2412                                  |
|   \\  /    A nd           | Website:  www.openfoam.com                      |
|    \\/     M anipulation  |                                                 |
\*---------------------------------------------------------------------------*/
FoamFile
{
    version     2.0;
    format      ascii;
    arch        "LSB;label=32;scalar=64";
    class       volVectorField;
    location    "0.2";
    object      flux;
}
// * * * * * * * * * * * * * * * * * * * * * * * * * * * * * * * * * * * * * //

dimensions      [0 1 -1 1 0 0 0];

internalField   nonuniform List<vector> 
5712
(
(-0.5688 0.809329 0.625377)
(-0.731718 0.442031 1.84642)
(-1.23925 1.33382 0.488073)
(-2.07393 0.902331 1.94784)
(-1.91545 1.27283 0.27362)
(-3.87136 1.13951 1.96215)
(-1.25565 1.69303 0.397408)
(-3.88745 2.29809 2.84115)
(-1.2785 2.65494 0.61304)
(-3.08267 3.63996 3.5132)
(-1.58076 1.4863 0.664404)
(-2.73826 1.37689 2.66808)
(-1.18923 0.913955 0.731685)
(-1.69574 0.660054 2.45539)
(-0.64936 0.639837 0.740697)
(-0.703329 0.365728 2.19229)
(-1.0621 1.12265 0.329842)
(-1.24247 0.76134 0.190124)
(-1.41654 1.07006 0.994795)
(-1.33127 0.858817 0.490168)
(-0.848609 1.20201 0.305998)
(-1.18633 0.949439 0.136976)
(-1.29271 1.53862 1.0032)
(-1.25261 1.08366 0.397033)
(-0.427849 0.461432 0.516077)
(-0.353791 0.322537 0.428252)
(-0.599276 0.244066 1.48887)
(-0.476298 0.185155 1.21514)
(-0.987803 0.609731 0.350742)
(-0.744469 0.394583 0.315351)
(-1.8481 0.33626 1.46005)
(-1.42634 0.240529 1.23325)
(-1.47873 1.48381 0.757982)
(-1.49386 1.43901 0.296832)
(-1.68651 1.09049 0.585026)
(-1.76019 0.674469 0.239057)
(-0.468719 0.906659 0.318314)
(-0.399338 0.778367 0.770676)
(-3.20537 0.717752 2.98486)
(-3.91786 0.69165 0.89843)
(-1.80453 0.818549 0.926642)
(-2.3516 0.840542 0.404408)
(-3.75252 2.13684 3.34481)
(-4.60163 2.38787 1.03217)
(-1.76218 1.24497 0.787836)
(-2.18439 1.38179 0.346454)
(-2.60737 1.3784 2.18251)
(-3.38308 1.08502 0.724516)
(-2.21974 1.13543 1.09584)
(-2.97445 0.713954 0.49641)
(-1.36609 0.507599 1.955)
(-1.65893 0.462197 0.611574)
(-0.303165 0.560454 0.709639)
(-0.101503 1.05809 0.37691)
(-0.400981 0.281337 1.00024)
(-0.147464 0.458393 0.42844)
(-0.685431 0.705557 0.660503)
(-0.297521 1.34875 0.390254)
(-1.17862 0.458549 1.01959)
(-0.458772 0.74361 0.413675)
(-0.807011 0.652175 0.79347)
(-0.285573 1.55477 0.506229)
(-0.787728 0.513307 0.640011)
(-0.243378 1.06708 0.294658)
(-1.49789 0.12796 1.0509)
(-0.472334 0.70265 0.409314)
(-1.93891 -0.00613273 0.408326)
(-0.657567 0.496934 0.162829)
(-1.69939 0.65411 0.981254)
(-0.99822 0.748802 0.70275)
(-1.51025 0.800552 0.58425)
(-1.02032 0.794707 0.487933)
(-1.44406 0.724383 0.815488)
(-0.889712 0.618968 0.649382)
(-1.23112 0.856593 0.45379)
(-0.870526 0.658974 0.409534)
(-1.42752 0.93985 0.664576)
(-1.05898 1.10215 0.565147)
(-1.52444 0.853402 0.94577)
(-0.999919 1.03491 0.75602)
(-1.52383 0.849391 0.427561)
(-1.05935 0.823514 0.340029)
(-1.61462 0.844473 0.231465)
(-1.09617 0.834612 0.187089)
(-1.27282 0.931092 0.337266)
(-0.892952 0.684536 0.282352)
(-1.36601 0.966779 0.176454)
(-0.920922 0.69645 0.155894)
(-1.48368 0.906365 0.487504)
(-1.12227 1.1342 0.385412)
(-1.60179 0.816692 0.270807)
(-1.17115 1.14376 0.193925)
(-1.69335 1.44239 0.66033)
(-0.812543 1.92577 0.41355)
(-1.1594 1.75657 0.690735)
(-1.52293 3.25989 0.860204)
(-1.77612 1.49723 0.933886)
(-0.933947 2.27445 0.770735)
(-1.10386 1.72084 0.980119)
(-1.54091 3.60551 1.4461)
(-1.71834 1.37029 0.458888)
(-0.75475 1.68011 0.222558)
(-1.22509 1.7608 0.439634)
(-1.5294 3.08077 0.513034)
(-1.79269 1.31975 0.249512)
(-0.759014 1.52597 0.100205)
(-1.28376 1.76931 0.197072)
(-1.55686 3.0022 0.193658)
(-0.28234 0.570414 0.887053)
(-0.309328 0.738658 1.5903)
(-0.103119 1.59392 0.615899)
(-0.230914 2.70401 1.86984)
(-0.795901 0.639306 0.937021)
(-0.903885 0.726247 1.53804)
(-0.370118 1.86592 0.716377)
(-0.756479 2.88328 1.9389)
(-1.24831 0.689483 1.10969)
(-1.41619 0.697156 1.41292)
(-0.70196 2.15477 0.94038)
(-1.2936 3.02288 1.88916)
(-0.745462 1.02056 0.767828)
(-0.300895 0.723581 0.63615)
(-1.13142 1.26944 0.818438)
(-1.77916 1.54288 0.923512)
(-1.1265 2.82474 1.1413)
(-0.152883 0.707974 0.370921)
(-0.30652 0.896883 0.620434)
(-0.715377 1.21232 1.05149)
(-1.67881 1.31699 1.45999)
(-1.51497 3.30369 2.40546)
(-0.481976 0.621176 0.517518)
(-0.804168 0.783392 0.586939)
(-1.13171 0.955195 0.697757)
(-1.39242 1.52407 1.02288)
(-2.0821 4.14467 1.84346)
(-0.250123 0.108283 1.77241)
(-0.193458 0.133248 1.36823)
(-0.171977 0.280818 2.11264)
(-0.137816 0.76869 1.65374)
(-0.721582 0.161025 1.64059)
(-0.506914 0.200488 1.30604)
(-0.553484 0.376206 2.07787)
(-0.418791 0.832455 1.60822)
(-1.05083 0.234488 1.39241)
(-0.709873 0.185182 1.15391)
(-0.856061 0.507953 1.91333)
(-0.634797 0.911965 1.51107)
(-0.266446 0.571576 0.386613)
(-0.223773 0.409376 0.306697)
(-0.500533 0.688138 0.578524)
(-0.426057 0.470327 0.473287)
(-0.896622 0.863219 0.843397)
(-0.666373 0.547865 0.707549)
(-1.34405 0.766925 1.19792)
(-0.955273 0.505008 0.968915)
(-1.27058 0.68974 1.77573)
(-0.967221 1.09761 1.41694)
(-0.420429 0.494814 0.316786)
(-0.2928 0.320315 0.27207)
(-0.687815 0.618362 0.494781)
(-0.413154 0.417223 0.451312)
(-0.89138 0.743685 0.713588)
(-0.515104 0.501133 0.658496)
(-1.07489 0.899683 1.02399)
(-0.611535 0.604914 0.930957)
(-1.52488 0.796895 1.61862)
(-0.878351 1.12227 1.38848)
(-0.629603 0.638147 0.481222)
(-0.204916 0.541899 0.242606)
(-0.590462 0.643359 0.361749)
(-0.31348 0.572648 0.233821)
(-0.496247 0.490497 0.392034)
(-0.32982 0.358335 0.268315)
(-0.528742 0.497734 0.300895)
(-0.387613 0.381886 0.236689)
(-0.715283 0.778808 0.438819)
(-0.393159 0.660663 0.298476)
(-0.792219 0.807767 0.596775)
(-0.241613 0.657457 0.326615)
(-0.601355 0.640566 0.185601)
(-0.454537 0.578016 0.163011)
(-0.640891 0.642675 0.0610678)
(-0.497974 0.582395 0.0534839)
(-0.557745 0.503596 0.183097)
(-0.479581 0.397512 0.166409)
(-0.598694 0.505691 0.0583505)
(-0.517341 0.402471 0.0551073)
(-0.726093 0.735738 0.21465)
(-0.562515 0.6304 0.196751)
(-0.768031 0.752178 0.0706538)
(-0.615167 0.638667 0.0652877)
(-1.09079 0.942616 0.531222)
(-0.523408 0.800246 0.32332)
(-1.64182 0.720777 0.708465)
(-0.588362 0.914239 0.330149)
(-1.05646 0.988526 0.798489)
(-0.303837 0.808649 0.442956)
(-1.52425 0.756229 1.12824)
(-0.354069 0.969769 0.579812)
(-1.10161 0.879574 0.28454)
(-0.655914 0.759062 0.199281)
(-1.68651 0.701119 0.390808)
(-0.648369 0.890852 0.167181)
(-1.05853 0.863087 0.184065)
(-0.736673 0.73634 0.137606)
(-1.59284 0.673248 0.207161)
(-0.756977 0.854586 0.122481)
(-0.127351 0.0801619 0.937496)
(-0.0739929 0.0370565 0.478734)
(-0.0330592 0.0152124 0.136859)
(-0.0870035 0.0356768 1.03993)
(-0.0539416 0.0153533 0.510223)
(-0.0270787 0.00959409 0.149556)
(-0.319488 0.130686 0.883379)
(-0.153295 0.0453221 0.444697)
(-0.0621315 0.0182543 0.130884)
(-0.248037 0.0883123 1.00658)
(-0.116704 0.0455383 0.491808)
(-0.0464399 0.0175342 0.140731)
(-0.382827 0.112861 0.769038)
(-0.161399 0.0484079 0.37084)
(-0.0719153 0.0250811 0.101877)
(-0.373819 0.163688 0.94359)
(-0.153707 0.0727413 0.455056)
(-0.0664932 0.0316894 0.127468)
(-0.124053 0.22333 0.165703)
(-0.0395091 0.08614 0.0735769)
(-0.0142649 0.0334231 0.0185145)
(-0.271384 0.256506 0.299104)
(-0.0848229 0.105239 0.14676)
(-0.0254799 0.0432282 0.038448)
(-0.366146 0.242797 0.464917)
(-0.121718 0.101152 0.228347)
(-0.0357056 0.0446155 0.06119)
(-0.517365 0.250499 0.635698)
(-0.19374 0.109674 0.302324)
(-0.0694891 0.0483094 0.0810045)
(-0.581316 0.271182 0.865196)
(-0.208904 0.0920066 0.402933)
(-0.0675695 0.0311607 0.111398)
(-0.207614 0.171183 0.168367)
(-0.0740654 0.0685065 0.0685411)
(-0.0252758 0.0271396 0.0186828)
(-0.235632 0.227041 0.27951)
(-0.0860491 0.0896364 0.133838)
(-0.025821 0.0359463 0.0384004)
(-0.307839 0.239472 0.408801)
(-0.109125 0.0867486 0.196298)
(-0.0313985 0.0337139 0.0551446)
(-0.384571 0.251952 0.573846)
(-0.139833 0.0948784 0.264441)
(-0.0423077 0.037829 0.072397)
(-0.572815 0.24983 0.79375)
(-0.186811 0.0787948 0.339356)
(-0.0484036 0.0249767 0.092839)
(-0.470231 1.08882 0.00534576)
(-0.689886 0.978858 0.0347362)
(-0.443386 1.28188 0.0575797)
(-0.582335 1.0145 0.102783)
(-0.525825 1.26631 0.135034)
(-0.92227 1.0647 0.0933129)
(-0.505047 1.69645 0.321791)
(-0.852368 1.20618 0.223257)
(0.0274494 0.542253 0.0229832)
(-0.0168282 0.451912 0.0189353)
(0.0436448 0.571794 0.0243977)
(-0.00323422 0.434853 0.0199888)
(-0.0532627 0.75729 0.0183817)
(-0.118995 0.518299 0.0216233)
(-0.016238 0.799238 0.0273339)
(-0.066398 0.492485 0.0315018)
(-0.0540223 0.869437 0.0648065)
(-0.10822 0.830411 0.0379948)
(-0.361971 0.703892 0.105008)
(-0.473079 0.722261 0.0726967)
(-0.176329 0.741715 0.040679)
(-0.149066 0.719931 0.0679295)
(-0.536063 1.13244 0.144403)
(-0.521002 1.24115 0.0193704)
(-0.9127 1.39189 0.361625)
(-1.03632 1.57284 0.108207)
(-0.00603364 0.866922 -0.15809)
(0.17294 0.940714 -0.0586585)
(-0.311985 0.727799 0.0166262)
(-0.240876 0.761576 -0.0011521)
(-0.186741 0.736607 -0.0234481)
(-0.101985 0.739344 -0.0349698)
(-0.0240726 0.303515 0.151342)
(-0.0152615 0.127161 0.0404483)
(-0.0202697 0.298123 0.0384338)
(-0.0151166 0.144663 0.0138585)
(-0.0791687 0.315566 0.155625)
(-0.0200376 0.127959 0.0404092)
(-0.0448233 0.305862 0.0433544)
(-0.0120553 0.14222 0.0154316)
(-0.229937 0.306713 0.151962)
(-0.0474194 0.117397 0.0404328)
(-0.194521 0.30997 0.0555895)
(-0.0485833 0.138939 0.0169071)
(-0.229804 0.321739 0.0449908)
(-0.0517063 0.148153 0.00971225)
(-0.261118 0.317993 0.00677006)
(-0.0589589 0.148658 0.000933561)
(-0.492043 0.611156 0.385662)
(-0.374651 0.364085 0.291391)
(-0.404085 0.660201 0.165449)
(-0.365065 0.397991 0.178176)
(-0.887001 0.764123 0.601027)
(-0.660294 0.543694 0.492814)
(-0.765861 0.861625 0.302427)
(-0.628992 0.582328 0.29739)
(-0.238216 0.530075 0.0995504)
(-0.204849 0.251279 0.103814)
(-0.263256 0.504179 0.233144)
(-0.19319 0.225189 0.158969)
(-0.394119 0.720586 0.105006)
(-0.362145 0.419066 0.114291)
(-0.423955 0.772676 0.0470378)
(-0.367431 0.428334 0.0591871)
(-0.768586 0.953983 0.208623)
(-0.625085 0.610372 0.195846)
(-0.822708 1.01356 0.105199)
(-0.637685 0.624204 0.105974)
(-0.221182 0.545113 0.049522)
(-0.205268 0.264773 0.0650851)
(-0.219083 0.56018 0.0154511)
(-0.206211 0.269543 0.0333207)
(-0.0198903 0.231365 0.0577514)
(-0.0100375 0.103604 0.0191287)
(-0.106691 0.145933 0.0560726)
(-0.0277874 0.0650217 0.0172664)
(-0.0255953 0.195489 0.112063)
(-0.00795613 0.0867204 0.0309454)
(-0.0947391 0.127093 0.0788239)
(-0.0233606 0.0560498 0.02388)
(-0.0215047 0.246497 0.026895)
(-0.0085967 0.113232 0.00981852)
(-0.110866 0.154871 0.0361578)
(-0.0300679 0.0695092 0.0100186)
(-0.0274385 0.253069 0.00447932)
(-0.00880226 0.118703 0.00169757)
(-0.110809 0.157405 0.0187169)
(-0.0310455 0.0708739 0.00396115)
(0.00244042 0.0335973 0.156409)
(0.00331139 0.0125912 0.0639395)
(-0.0055475 0.0498884 0.0448863)
(-0.0018395 0.0209771 0.0290804)
(0.00910872 0.0346242 0.162789)
(0.0123725 0.0144521 0.0688857)
(-0.00854819 0.0505848 0.0431173)
(-0.00238289 0.0234402 0.0284783)
(-0.0220349 0.0364395 0.173465)
(-0.0081111 0.0195854 0.075371)
(-0.0231399 0.049035 0.041913)
(-0.01372 0.0276009 0.0272204)
(0.094493 0.199618 0.368503)
(0.0458315 0.431543 0.505144)
(0.0412711 0.116442 0.239384)
(0.0226127 0.0951087 0.122117)
(0.00112445 0.052098 0.0323806)
(0.147075 0.41897 0.265619)
(0.171102 0.205105 0.219755)
(0.0534785 0.0865219 0.159959)
(0.042727 0.0709462 0.0982859)
(0.00355237 0.0344166 0.0308779)
(-0.319288 0.416236 0.393476)
(-0.195713 0.245515 0.244373)
(-0.114575 0.151132 0.136792)
(-0.0731113 0.0894454 0.0700402)
(-0.0196069 0.0422524 0.0204492)
(0.00271648 0.00499294 0.0281678)
(0.00160017 0.00236292 0.0129574)
(-0.000544618 0.00993905 0.0167848)
(-6.22497e-05 0.005637 0.0092152)
(0.00765587 0.00664181 0.0327361)
(0.00529118 0.00289122 0.0157982)
(-0.00135401 0.0125746 0.0174634)
(-0.000119277 0.00718612 0.0100042)
(0.00498516 0.010333 0.0401547)
(0.00555331 0.00482565 0.021369)
(-0.00515976 0.0163554 0.0183202)
(-0.00180427 0.00975515 0.0111439)
(0.0129128 0.36418 0.249622)
(-0.01763 0.23925 0.174822)
(0.082298 0.170977 0.158692)
(0.0292177 0.100321 0.0962719)
(0.0237899 0.0790463 0.0795083)
(0.00552421 0.0450611 0.0519381)
(0.0193093 0.050986 0.0464001)
(0.00847536 0.0279689 0.0294745)
(0.00138523 0.0247686 0.0175344)
(0.000985008 0.0150725 0.012325)
(-0.167477 0.315401 0.183969)
(-0.0932063 0.184786 0.149235)
(-0.0447448 0.179545 0.113455)
(-0.0123404 0.0974175 0.088084)
(-0.0175889 0.106779 0.0666062)
(-0.00251521 0.0570142 0.0498902)
(-0.0106335 0.0599488 0.037634)
(-0.000460955 0.0318591 0.027481)
(0.000249871 0.0310247 0.0129965)
(0.00163883 0.0201413 0.0120992)
(-0.122944 0.183354 0.119409)
(-0.0729305 0.085192 0.0655222)
(-0.204531 0.196356 0.0793363)
(-0.0918694 0.0835863 0.0387334)
(-0.260849 0.292243 0.229449)
(-0.144254 0.14614 0.115825)
(-0.346948 0.312358 0.174272)
(-0.170685 0.15223 0.082079)
(-0.110933 0.126235 0.0386437)
(-0.0472638 0.0560417 0.019688)
(-0.0569562 0.119823 0.0600056)
(-0.037011 0.0570261 0.0361485)
(-0.230789 0.212993 0.0752979)
(-0.0852448 0.0813961 0.0306959)
(-0.248856 0.220119 0.0247791)
(-0.0887986 0.0844209 0.0105465)
(-0.390727 0.340287 0.135747)
(-0.174938 0.161819 0.0599078)
(-0.42482 0.346852 0.0431637)
(-0.18379 0.166415 0.0206791)
(-0.126994 0.13075 0.0404111)
(-0.0406667 0.0541508 0.015371)
(-0.136356 0.135084 0.0136567)
(-0.0409286 0.0573214 0.00511489)
(-0.0512936 0.0702936 0.0153012)
(-0.0221712 0.0335435 0.0112481)
(-0.0114827 0.0352989 0.00647826)
(-0.0116334 0.0249899 0.00685352)
(-0.0281814 0.0691073 0.0267259)
(-0.0183412 0.0339391 0.0190074)
(-0.00549146 0.0362195 0.00802557)
(-0.00883036 0.0239574 0.00892813)
(-0.054359 0.0706829 0.0171958)
(-0.0196119 0.0329664 0.00759651)
(-0.0143229 0.0338873 0.00400095)
(-0.0130181 0.0257931 0.00468116)
(-0.0639552 0.0749477 0.00459972)
(-0.0188239 0.0344941 0.000904254)
(-0.0191951 0.0360078 -0.00332613)
(-0.0111094 0.0257342 -0.000756481)
(0.000586559 0.00128582 0.00587521)
(0.000165769 0.000434986 0.0019449)
(7.83569e-05 0.000138321 0.000429277)
(-8.84467e-05 0.004106 0.00394959)
(8.35652e-06 0.000907465 0.000908701)
(8.02278e-06 0.000302202 0.000199416)
(0.00190521 0.00118804 0.00764501)
(0.000633998 0.000506781 0.00264196)
(0.000309385 0.000167836 0.000613708)
(-0.00019807 0.0048933 0.0045058)
(7.56937e-05 0.00115463 0.00109963)
(6.12272e-05 0.000393338 0.000248252)
(0.00241315 0.00209803 0.010617)
(0.00113071 0.00091072 0.00374087)
(0.000521834 0.000338077 0.000819744)
(-0.000882759 0.00613533 0.0052875)
(0.000172107 0.00161245 0.0013692)
(0.000130542 0.000562073 0.000308862)
(-0.0187197 0.112694 0.0830342)
(-0.00306236 0.0427655 0.0333119)
(-0.00063668 0.0168332 0.00798187)
(0.00105353 0.0458315 0.0436641)
(0.00289073 0.0169829 0.0168878)
(0.0017291 0.00667693 0.00399846)
(-0.000149397 0.0214535 0.0260413)
(0.00109601 0.00769083 0.00954409)
(0.000858032 0.00300701 0.0022333)
(0.00195149 0.0118625 0.0145325)
(0.00118797 0.00392634 0.00508441)
(0.000703529 0.00145221 0.00112381)
(-0.00073677 0.00861232 0.00623443)
(0.000154766 0.00242628 0.00163157)
(0.000103238 0.000835777 0.000375317)
(-0.0594529 0.0834542 0.0877186)
(-0.0177039 0.0307392 0.0315564)
(-0.00502984 0.0113567 0.00797208)
(-0.0154743 0.0403473 0.0498433)
(-0.0032372 0.0140248 0.0171505)
(-0.000287221 0.00504147 0.00415296)
(-0.00729064 0.0231432 0.0280934)
(-0.00109834 0.00758557 0.00943919)
(0.000130769 0.00258085 0.00219391)
(-0.00361041 0.0133332 0.0153398)
(-0.000446603 0.00413682 0.00493365)
(0.000132088 0.00135708 0.00112144)
(-0.00234874 0.0124943 0.0077394)
(-0.000234461 0.00310207 0.00189804)
(1.80786e-05 0.00101605 0.000450339)
(-0.000709299 0.0327926 0.00738169)
(-0.000113323 0.00674768 0.00119061)
(-1.97417e-05 0.00135212 0.000217121)
(-4.78008e-06 0.000257245 3.74346e-05)
(-0.000310057 0.0389646 0.00292055)
(-3.07287e-05 0.00794637 0.00048849)
(1.42655e-05 0.00155355 9.3924e-05)
(3.14741e-06 0.000294109 1.60814e-05)
(-0.00192168 0.0312616 0.00717804)
(-0.00030761 0.00648855 0.00117924)
(-4.3171e-05 0.00131444 0.000229685)
(-1.12401e-05 0.000253597 4.09391e-05)
(-0.000861248 0.0381454 0.0029705)
(-9.10149e-05 0.00786439 0.000517863)
(2.23833e-05 0.00158718 0.000119423)
(3.42791e-06 0.000311656 2.21324e-05)
(-0.00325106 0.0281795 0.00750798)
(-0.000537916 0.0059936 0.00127216)
(-7.99647e-05 0.00132421 0.000266433)
(-1.4517e-05 0.000266771 4.92075e-05)
(-0.00252307 0.0360246 0.00380496)
(-0.000371486 0.00767304 0.000705852)
(-5.51574e-05 0.00169672 0.000125531)
(-8.44493e-06 0.000348088 2.30571e-05)
(-0.00170695 0.0378995 0.00124219)
(-0.000257467 0.00801134 0.000271625)
(-5.71541e-05 0.00159518 4.61801e-06)
(-1.01404e-05 0.000310129 1.53077e-06)
(-0.00183416 0.038206 0.000264538)
(-0.000292053 0.00812264 0.00010299)
(-4.01481e-05 0.00155001 -6.09339e-06)
(-5.94826e-06 0.000290315 -1.71845e-06)
(-0.00556898 0.0284001 0.00478999)
(-0.000956571 0.0062423 0.000886939)
(-0.000200162 0.00140967 0.000167308)
(-3.30622e-05 0.000287888 3.07289e-05)
(-0.00558972 0.0190476 0.00373768)
(-0.000982172 0.00434612 0.000688959)
(-0.00022809 0.00101743 0.000154727)
(-3.81672e-05 0.000204718 3.13548e-05)
(-0.00458308 0.023169 0.00685323)
(-0.000790508 0.00512483 0.00121194)
(-0.000154743 0.0012254 0.000256482)
(-1.86627e-05 0.000260366 4.63282e-05)
(-0.00455894 0.0166066 0.00507068)
(-0.000800224 0.00382041 0.00090223)
(-0.000195612 0.000917896 0.000201463)
(-3.45653e-05 0.000187302 3.24182e-05)
(-0.00517655 0.031245 0.0026363)
(-0.000891319 0.00688537 0.000512304)
(-0.000173618 0.00147021 9.28159e-05)
(-2.97736e-05 0.000289803 2.22164e-05)
(-0.00607155 0.0204003 0.00220919)
(-0.00107107 0.00466615 0.000422865)
(-0.000242257 0.00105961 9.6558e-05)
(-4.16702e-05 0.000209007 2.16078e-05)
(-0.00510542 0.0324418 0.000819468)
(-0.000885629 0.00718168 0.0001808)
(-0.000156227 0.00149489 2.82803e-05)
(-2.71141e-05 0.000291236 5.85499e-06)
(-0.00627698 0.0208681 0.000716262)
(-0.00110977 0.0048095 0.000149679)
(-0.00024911 0.00108746 3.5323e-05)
(-4.48827e-05 0.000215803 8.09538e-06)
(-0.000466076 0.0198393 0.00834186)
(-8.44272e-05 0.004731 0.00137328)
(-2.10479e-05 0.00105636 0.000256998)
(-6.08126e-06 0.000210107 4.56637e-05)
(-0.000249964 0.0106783 0.00659117)
(-5.20098e-05 0.0029067 0.00116547)
(-1.73221e-05 0.000734133 0.000243232)
(-4.36083e-06 0.000150007 4.33071e-05)
(-0.00125477 0.0189037 0.00800506)
(-0.00022999 0.00453983 0.00133057)
(-4.96357e-05 0.00103252 0.000256332)
(-1.33781e-05 0.000206857 4.52291e-05)
(-0.000570663 0.0106957 0.0063344)
(-0.000120114 0.00287991 0.00111948)
(-3.97504e-05 0.000726451 0.000235831)
(-1.08905e-05 0.000148489 4.09348e-05)
(-0.00318572 0.0174731 0.00762447)
(-0.000581406 0.00422534 0.00128612)
(-0.000122494 0.00100923 0.000269261)
(-2.68324e-05 0.000204536 4.75863e-05)
(-0.00223271 0.0111541 0.0057807)
(-0.000419718 0.00293098 0.00101485)
(-9.6108e-05 0.0007322 0.000221811)
(-1.68161e-05 0.000146996 3.75751e-05)
(-0.00220946 0.0155998 0.00612615)
(-0.000419606 0.00369978 0.00104986)
(-8.69593e-05 0.000910971 0.000235875)
(-8.53148e-06 0.00018826 4.5347e-05)
(-0.00118127 0.0113041 0.0061158)
(-0.000233024 0.00288674 0.00105783)
(-6.29688e-05 0.000739297 0.000255898)
(-1.1866e-05 0.000149731 4.65117e-05)
(-0.00380154 0.0134719 0.00418099)
(-0.000681875 0.00321088 0.000726779)
(-0.000166272 0.000788956 0.000159324)
(-2.41391e-05 0.000162995 2.65487e-05)
(-5.49888e-05 0.00530298 0.00402604)
(-1.10385e-05 0.00170531 0.000730752)
(-4.6978e-06 0.000415904 0.000155214)
(-1.01388e-06 6.80228e-05 2.67284e-05)
(0.000106566 0.00251529 0.00132526)
(2.15743e-05 0.00119673 0.000238125)
(2.64023e-06 0.000300197 4.52318e-05)
(4.02292e-07 4.72238e-05 7.67966e-06)
(-0.000312971 0.00579671 0.00407615)
(-5.92498e-05 0.00181296 0.000730362)
(-1.94467e-05 0.000438653 0.00015319)
(-3.70215e-06 7.26902e-05 2.56359e-05)
(0.000241869 0.00290869 0.0013911)
(4.91013e-05 0.00129725 0.000246869)
(4.4904e-06 0.000319147 4.6711e-05)
(7.13791e-07 4.992e-05 7.86923e-06)
(-0.000713827 0.00666554 0.00398578)
(-0.000134366 0.00198801 0.000694784)
(-3.63932e-05 0.000461946 0.000147546)
(-5.90123e-06 7.46026e-05 2.3726e-05)
(0.000356682 0.00362893 0.0014104)
(6.7561e-05 0.00147349 0.000243272)
(5.62962e-06 0.000345167 4.67986e-05)
(7.93765e-07 5.31121e-05 7.96362e-06)
(-0.000866526 0.00809323 0.00351713)
(-0.00016335 0.00222471 0.000593879)
(-4.61591e-05 0.000508648 0.000135546)
(-8.04484e-06 8.34635e-05 2.25974e-05)
(0.000436065 0.0047918 0.00133969)
(7.65214e-05 0.00173239 0.000220442)
(3.06004e-06 0.00038784 4.66794e-05)
(-5.5515e-08 5.93744e-05 8.1077e-06)
(-0.00130108 0.0102651 0.00313694)
(-0.000225079 0.00257935 0.000523142)
(-7.16315e-05 0.000584952 0.000122188)
(-1.32876e-05 9.85474e-05 2.14175e-05)
(0.000207594 0.00652811 0.00126338)
(4.55789e-05 0.00203379 0.000204115)
(-7.60573e-06 0.000432042 4.5548e-05)
(-1.65836e-06 6.53142e-05 7.79202e-06)
(-0.0034472 0.0125949 0.00207056)
(-0.00055017 0.00304066 0.00036889)
(-0.000139153 0.000645329 7.68254e-05)
(-2.21639e-05 0.000101835 1.36095e-05)
(-0.00109041 0.00814066 0.000861793)
(-0.000147657 0.00243604 0.000154733)
(-3.5122e-05 0.000509027 2.85563e-05)
(-5.73214e-06 7.45209e-05 4.96245e-06)
(-0.00235164 0.0120789 0.00258705)
(-0.000376477 0.00287241 0.000442455)
(-0.000109645 0.000616348 9.98546e-05)
(-1.83902e-05 9.91813e-05 1.71671e-05)
(-0.000515831 0.00784692 0.00106301)
(-5.4249e-05 0.00231187 0.000178722)
(-2.29142e-05 0.000476478 3.79262e-05)
(-3.86898e-06 7.04329e-05 6.73081e-06)
(-0.00412417 0.0126479 0.00130567)
(-0.000676232 0.00310505 0.000247227)
(-0.000160489 0.000640025 5.07356e-05)
(-2.71186e-05 9.77459e-05 1.02435e-05)
(-0.00135418 0.00822825 0.00055048)
(-0.000203063 0.00249455 0.000104607)
(-4.25944e-05 0.000517566 1.73697e-05)
(-7.31265e-06 7.46127e-05 3.22292e-06)
(-0.00441634 0.0123832 0.000451229)
(-0.000745781 0.00314238 9.50768e-05)
(-0.000172817 0.000651136 2.10408e-05)
(-3.04562e-05 9.91364e-05 4.50822e-06)
(-0.00147214 0.00843652 0.000199469)
(-0.000237666 0.00253625 4.20249e-05)
(-4.71325e-05 0.000527078 7.6154e-06)
(-8.27471e-06 7.57001e-05 1.4918e-06)
(-8.77557e-07 4.53978e-05 4.94839e-06)
(-1.06644e-07 9.04225e-06 6.04883e-07)
(-1.05868e-08 1.72537e-06 7.18158e-08)
(-7.5578e-10 3.12859e-07 8.45406e-09)
(5.09111e-12 4.55358e-08 1.10826e-09)
(-1.66e-07 5.10761e-05 2.02143e-06)
(-1.97731e-08 9.7998e-06 2.51655e-07)
(9.3276e-10 1.81973e-06 3.03768e-08)
(8.38499e-10 3.24214e-07 3.6291e-09)
(2.58661e-10 4.67279e-08 4.83108e-10)
(-2.37542e-06 4.55343e-05 4.87026e-06)
(-2.68261e-07 9.01032e-06 5.94317e-07)
(-2.53026e-08 1.72156e-06 7.28663e-08)
(-1.76121e-09 3.13359e-07 9.05376e-09)
(4.90064e-12 4.57513e-08 1.27731e-09)
(-6.66039e-07 5.26741e-05 2.22967e-06)
(-2.63629e-08 9.88521e-06 2.9168e-07)
(9.81924e-09 1.83059e-06 3.90052e-08)
(3.40421e-09 3.26945e-07 5.29655e-09)
(8.63475e-10 4.72426e-08 8.18249e-10)
(-2.72326e-06 4.44254e-05 5.3727e-06)
(-2.53365e-07 8.78657e-06 6.97685e-07)
(-1.75139e-08 1.70176e-06 9.26062e-08)
(-1.36248e-10 3.12944e-07 1.25321e-08)
(3.23565e-10 4.59536e-08 1.93162e-09)
(-6.72171e-07 5.28886e-05 4.26858e-06)
(4.51045e-08 9.94824e-06 6.72493e-07)
(2.71005e-08 1.8574e-06 1.02924e-07)
(6.57205e-09 3.33765e-07 1.55212e-08)
(1.456e-09 4.83871e-08 2.61379e-09)
(-6.93858e-07 5.47652e-05 3.13499e-06)
(-3.60136e-08 1.05393e-05 5.63095e-07)
(3.12951e-09 1.97046e-06 9.05781e-08)
(1.46887e-09 3.52888e-07 1.39252e-08)
(3.81582e-10 5.09922e-08 2.36121e-09)
(-1.20537e-06 5.42165e-05 1.02303e-06)
(-1.37489e-07 1.08319e-05 2.45154e-07)
(-1.28902e-08 2.04682e-06 4.60531e-08)
(-9.10591e-10 3.67136e-07 7.86027e-09)
(-9.24683e-12 5.30035e-08 1.4463e-09)
(-2.46058e-06 4.72423e-05 5.04912e-06)
(-2.08313e-07 9.29136e-06 6.93582e-07)
(-1.24722e-08 1.79305e-06 9.71045e-08)
(2.80708e-10 3.288e-07 1.37334e-08)
(3.3551e-10 4.81834e-08 2.19579e-09)
(-1.80446e-06 3.62736e-05 3.55062e-06)
(-1.76765e-07 8.2122e-06 4.97125e-07)
(-1.71896e-08 1.68266e-06 7.1455e-08)
(-1.59877e-09 3.17387e-07 1.03301e-08)
(-1.44022e-10 4.713e-08 1.67964e-09)
(-6.26843e-07 4.13152e-05 5.21988e-06)
(4.7552e-08 8.55996e-06 6.86691e-07)
(2.30925e-08 1.69211e-06 9.54298e-08)
(5.27252e-09 3.14346e-07 1.36048e-08)
(1.13079e-09 4.63824e-08 2.20447e-09)
(-1.32495e-06 3.33457e-05 2.1905e-06)
(-1.09142e-07 7.85872e-06 3.25575e-07)
(-7.42127e-09 1.63149e-06 5.08778e-08)
(-1.6427e-10 3.09637e-07 7.90041e-09)
(9.53521e-11 4.61272e-08 1.36514e-09)
(-3.15868e-06 4.98104e-05 4.56388e-06)
(-3.37259e-07 9.85455e-06 6.67773e-07)
(-3.4877e-08 1.88682e-06 9.58744e-08)
(-3.44119e-09 3.43365e-07 1.36632e-08)
(-3.41662e-10 5.00652e-08 2.18423e-09)
(-1.92079e-06 3.77075e-05 2.86099e-06)
(-1.89254e-07 8.6298e-06 4.52004e-07)
(-1.8313e-08 1.75959e-06 6.99009e-08)
(-1.68177e-09 3.30073e-07 1.06005e-08)
(-1.47957e-10 4.88266e-08 1.78477e-09)
(-3.64959e-06 5.06941e-05 1.31653e-06)
(-4.1157e-07 1.02084e-05 2.49081e-07)
(-4.42078e-08 1.96692e-06 4.37099e-08)
(-4.53352e-09 3.58205e-07 7.27178e-09)
(-4.79697e-10 5.21776e-08 1.32192e-09)
(-2.34897e-06 3.85301e-05 1.17898e-06)
(-2.46524e-07 8.94877e-06 2.28024e-07)
(-2.58102e-08 1.83343e-06 4.08522e-08)
(-2.66101e-09 3.44041e-07 6.89666e-09)
(-2.92478e-10 5.08405e-08 1.26634e-09)
(-9.17476e-07 3.69536e-05 5.32408e-06)
(-1.03391e-07 7.93563e-06 6.13486e-07)
(-1.04104e-08 1.59172e-06 7.06422e-08)
(-8.54817e-10 2.97193e-07 8.15403e-09)
(-3.46164e-11 4.39225e-08 1.05058e-09)
(-3.35908e-07 2.79287e-05 2.38389e-06)
(-3.35037e-08 7.0316e-06 2.58799e-07)
(-2.49988e-09 1.49365e-06 2.90117e-08)
(1.86411e-13 2.86225e-07 3.30194e-09)
(6.27018e-11 4.28184e-08 4.20983e-10)
(-1.90413e-06 3.63352e-05 5.06572e-06)
(-1.98523e-07 7.8511e-06 5.7972e-07)
(-1.79679e-08 1.58303e-06 6.7726e-08)
(-1.1763e-09 2.96872e-07 8.07521e-09)
(2.65046e-11 4.40035e-08 1.09348e-09)
(-6.93864e-07 2.77843e-05 2.2407e-06)
(-5.93436e-08 7.01055e-06 2.41153e-07)
(-2.72996e-09 1.49251e-06 2.72151e-08)
(4.36523e-10 2.86651e-07 3.16186e-09)
(2.076e-10 4.29532e-08 4.17142e-10)
(-2.79428e-06 3.48735e-05 4.53508e-06)
(-2.53663e-07 7.67357e-06 5.25779e-07)
(-2.03184e-08 1.56985e-06 6.40347e-08)
(-1.03947e-09 2.96931e-07 8.06371e-09)
(1.00457e-10 4.42097e-08 1.16288e-09)
(-3.12512e-07 2.74921e-05 1.8738e-06)
(1.25067e-08 6.99141e-06 2.14774e-07)
(8.29933e-09 1.49636e-06 2.65482e-08)
(2.03284e-09 2.88374e-07 3.43327e-09)
(4.60496e-10 4.32966e-08 5.12084e-10)
(2.51893e-07 3.24966e-05 4.29138e-06)
(1.22358e-07 7.55956e-06 5.5756e-07)
(2.62543e-08 1.57546e-06 7.72704e-08)
(4.80531e-09 2.99968e-07 1.10308e-08)
(9.27307e-10 4.4778e-08 1.79208e-09)
(5.91445e-07 2.80773e-05 2.17332e-06)
(1.07076e-07 7.23295e-06 2.68882e-07)
(1.76206e-08 1.53743e-06 3.6946e-08)
(2.83868e-09 2.94954e-07 5.27298e-09)
(5.10071e-10 4.41808e-08 8.59583e-10)
(4.24375e-07 3.05782e-05 1.73423e-06)
(1.05188e-07 7.63995e-06 3.13296e-07)
(1.95673e-08 1.59862e-06 5.3598e-08)
(3.35238e-09 3.04393e-07 8.80896e-09)
(6.20035e-10 4.5423e-08 1.58678e-09)
(-0.0186716 1.04422 0.238683)
(-0.0283243 1.4415 0.443747)
(-0.0581317 1.06995 0.226713)
(-0.0897368 1.44286 0.430232)
(-0.106052 1.11174 0.210156)
(-0.16492 1.44523 0.393915)
(-0.154068 1.15872 0.190339)
(-0.253857 1.48056 0.357578)
(-0.193534 1.20096 0.17232)
(-0.303515 1.56026 0.354261)
(-0.2329 1.09829 0.0582398)
(-0.318347 1.24491 0.13116)
(-0.210764 1.12397 0.112456)
(-0.278628 1.32919 0.222396)
(-0.23572 1.0948 0.0288996)
(-0.334253 1.22261 0.0728671)
(-0.222047 1.10012 0.0090787)
(-0.323237 1.21405 0.0299322)
(-0.0936837 1.01024 1.54797)
(-0.0434929 0.181696 0.777231)
(-0.0297667 0.0509795 0.548952)
(-0.0240538 0.0218625 0.451948)
(-0.0206492 0.0073239 0.402491)
(-0.0248565 1.05442 0.449899)
(-0.0120961 0.330604 0.25962)
(-0.00325044 0.111708 0.191541)
(-0.00230816 0.0515294 0.155529)
(0.000450146 0.0178643 0.134845)
(-0.305728 1.01739 1.51161)
(-0.142933 0.177383 0.748364)
(-0.0983483 0.0489633 0.526137)
(-0.0798277 0.0210979 0.432252)
(-0.0691308 0.00719618 0.382385)
(-0.0730979 1.0582 0.460497)
(-0.0315712 0.329096 0.271251)
(-0.0192556 0.109746 0.194244)
(-0.0139632 0.0511595 0.158052)
(-0.00830659 0.0184129 0.138197)
(-0.538979 1.02802 1.41885)
(-0.254435 0.174039 0.691862)
(-0.176233 0.0470792 0.483552)
(-0.14374 0.0203023 0.396106)
(-0.125522 0.00701608 0.348598)
(-0.150095 1.06645 0.442774)
(-0.0784819 0.327315 0.257933)
(-0.0535916 0.107767 0.183511)
(-0.0423373 0.0503911 0.148713)
(-0.0346039 0.0184073 0.128814)
(-0.774252 1.04233 1.28984)
(-0.369926 0.169404 0.620516)
(-0.258644 0.0448788 0.432401)
(-0.212209 0.0193325 0.353962)
(-0.18636 0.00672816 0.310896)
(-0.245187 1.07826 0.411556)
(-0.14066 0.325365 0.23438)
(-0.100812 0.106162 0.164573)
(-0.0819372 0.0497505 0.132244)
(-0.0701217 0.0182977 0.113393)
(-1.10194 1.05503 1.10673)
(-0.543043 0.165574 0.530178)
(-0.385315 0.0437495 0.3705)
(-0.318583 0.0189924 0.303847)
(-0.281363 0.00664994 0.266954)
(-0.384297 1.08894 0.361333)
(-0.237067 0.324569 0.199933)
(-0.174681 0.106323 0.138838)
(-0.144233 0.0502309 0.110873)
(-0.125729 0.0185639 0.0944063)
(-1.59051 1.02799 0.638834)
(-0.851249 0.19083 0.327237)
(-0.621868 0.0560381 0.233195)
(-0.520403 0.0255421 0.19221)
(-0.462509 0.0090855 0.169128)
(-0.487146 1.01447 0.164587)
(-0.309804 0.338089 0.0862782)
(-0.231483 0.118902 0.0578079)
(-0.193071 0.0583216 0.0449833)
(-0.169735 0.0218378 0.0378292)
(-1.40498 1.03782 0.87732)
(-0.728025 0.180212 0.436929)
(-0.524761 0.0504785 0.308428)
(-0.43659 0.0224754 0.253503)
(-0.386942 0.00793028 0.222761)
(-0.463262 1.04366 0.244501)
(-0.29456 0.332102 0.133343)
(-0.219586 0.112627 0.0920522)
(-0.182959 0.0540916 0.0732288)
(-0.160902 0.020094 0.0621965)
(-1.68444 1.02544 0.406084)
(-0.915919 0.198364 0.213312)
(-0.673242 0.0598674 0.153155)
(-0.565022 0.0276993 0.126339)
(-0.502356 0.00993891 0.111232)
(-0.487131 1.00574 0.102318)