/*--------------------------------*- C++ -*----------------------------------*\
| =========                 |                                                 |
| \\      /  F ield         | OpenFOAM: The Open Source CFD Toolbox           |
|  \\    /   O peration     | Version:  2412                                  |
|   \\  /    A nd           | Website:  www.openfoam.com                      |
|    \\/     M anipulation  |                                                 |
\*---------------------------------------------------------------------------*/
FoamFile
{
    version     2.0;
    format      ascii;
    arch        "LSB;label=32;scalar=64";
    class       volScalarField;
    location    "0.2";
    object      gradTz;
}
// * * * * * * * * * * * * * * * * * * * * * * * * * * * * * * * * * * * * * //

dimensions      [0 -1 0 1 0 0 0];

internalField   nonuniform List<scalar> 
5712
(
15634.4
46160.6
12201.8
48696
6840.49
49053.8
9935.21
71028.8
15326
87830.1
16610.1
66702.1
18292.1
61384.8
18517.4
54807.2
8246.05
4753.09
24869.9
12254.2
7649.94
3424.4
25080.1
9925.83
12901.9
10706.3
37221.8
30378.5
8768.55
7883.78
36501.2
30831.1
18949.5
7420.8
14625.7
5976.42
7957.86
19266.9
74621.5
22460.7
23166
10110.2
83620.2
25804.3
19695.9
8661.36
54562.9
18112.9
27396
12410.2
48875
15289.3
17741
9422.74
25006.1
10711
16512.6
9756.35
25489.6
10341.9
19836.7
12655.7
16000.3
7366.46
26272.5
10232.8
10208.2
4070.74
24531.4
17568.7
14606.3
12198.3
20387.2
16234.6
11344.7
10238.3
16614.4
14128.7
23644.3
18900.5
10689
8500.73
5786.63
4677.23
8431.64
7058.81
4411.35
3897.36
12187.6
9635.31
6770.17
4848.13
16508.2
10338.8
17268.4
21505.1
23347.1
19268.4
24503
36152.5
11472.2
5563.95
10990.9
12825.9
6237.79
2505.13
4926.81
4841.44
22176.3
39757.5
15397.5
46746
23425.5
38451
17909.4
48472.4
27742.2
35322.9
23509.5
47229
19195.7
15903.8
20460.9
23087.8
28532.5
9273.03
15510.8
26287.3
36499.8
60136.6
12938
14673.5
17443.9
25571.9
46086.6
44310.2
34205.7
52816.1
41343.4
41014.7
32651.1
51946.7
40205.4
34810.3
28847.8
47833.2
37776.7
9665.33
7667.44
14463.1
11832.2
21084.9
17688.7
29948
24222.9
44393.3
35423.4
7919.64
6801.75
12369.5
11282.8
17839.7
16462.4
25599.8
23273.9
40465.6
34712.1
12030.5
6065.16
9043.71
5845.51
9800.84
6707.87
7522.37
5917.23
10970.5
7461.91
14919.4
8165.37
4640.04
4075.27
1526.69
1337.1
4577.43
4160.22
1458.76
1377.68
5366.26
4918.78
1766.34
1632.19
13280.6
8082.99
17711.6
8253.72
19962.2
11073.9
28206.1
14495.3
7113.49
4982.03
9770.2
4179.53
4601.62
3440.15
5179.04
3062.03
23437.4
11968.3
3421.48
25998.2
12755.6
3738.9
22084.5
11117.4
3272.1
25164.4
12295.2
3518.27
19225.9
9271
2546.93
23589.8
11376.4
3186.71
4142.58
1839.42
462.862
7477.6
3669.01
961.201
11622.9
5708.68
1529.75
15892.5
7558.09
2025.11
21629.9
10073.3
2784.95
4209.19
1713.53
467.069
6987.76
3345.96
960.011
10220
4907.45
1378.62
14346.1
6611.01
1809.92
19843.8
8483.91
2320.98
133.644
868.404
1439.49
2569.58
3375.85
2332.82
8044.77
5581.42
574.58
473.382
609.944
499.719
459.542
540.582
683.347
787.546
1620.16
949.869
2625.19
1817.42
1016.98
1698.24
3610.08
484.26
9040.62
2705.17
-3952.24
-1466.46
415.655
-28.8026
-586.201
-874.246
3783.54
1011.21
960.844
346.463
3890.63
1010.23
1083.86
385.789
3799.05
1010.82
1389.74
422.678
1124.77
242.806
169.252
23.339
9641.54
7284.77
4136.23
4454.39
15025.7
12320.4
7560.67
7434.75
2488.76
2595.35
5828.61
3974.22
2625.14
2857.27
1175.94
1479.68
5215.57
4896.14
2629.97
2649.36
1238.05
1627.13
386.277
833.018
1443.78
478.218
1401.81
431.661
2801.57
773.634
1970.6
596.999
672.375
245.463
903.946
250.466
111.983
42.4393
467.923
99.0288
3910.23
1598.49
1122.16
727.01
4069.71
1722.14
1077.93
711.957
4336.62
1884.28
1047.83
680.51
9212.57
12628.6
5984.59
3052.93
809.514
6640.46
5493.88
3998.97
2457.15
771.949
9836.9
6109.32
3419.8
1751.01
511.23
704.195
323.936
419.62
230.38
818.403
394.954
436.586
250.106
1003.87
534.226
458.004
278.599
6240.55
4370.54
3967.29
2406.8
1987.71
1298.45
1160
736.864
438.359
308.126
4599.21
3730.87
2836.36
2202.1
1665.16
1247.25
940.851
687.025
324.912
302.479
2985.23
1638.06
1983.41
968.335
5736.23
2895.62
4356.8
2051.97
966.093
492.199
1500.14
903.712
1882.45
767.397
619.477
263.664
3393.68
1497.69
1079.09
516.978
1010.28
384.275
341.417
127.872
382.529
281.201
161.956
171.338
668.147
475.185
200.639
223.203
429.896
189.913
100.024
117.029
114.993
22.6064
-83.1531
-18.912
146.88
48.6225
10.7319
98.7399
22.7175
4.98539
191.125
66.049
15.3427
112.645
27.4906
6.20631
265.426
93.5216
20.4936
132.188
34.2299
7.72156
2075.85
832.796
199.547
1091.6
422.195
99.9615
651.033
238.602
55.8324
363.312
127.11
28.0952
155.861
40.7891
9.38293
2192.96
788.911
199.302
1246.08
428.762
103.824
702.335
235.98
54.8477
383.494
123.341
28.036
193.485
47.4509
11.2585
184.542
29.7653
5.42804
0.935866
73.0137
12.2122
2.3481
0.402036
179.451
29.481
5.74211
1.02348
74.2625
12.9466
2.98558
0.553309
187.699
31.804
6.66082
1.23019
95.1239
17.6463
3.13828
0.576429
31.0548
6.79061
0.11545
0.0382692
6.61346
2.57474
-0.152335
-0.0429614
119.75
22.1735
4.1827
0.768224
93.4421
17.224
3.86818
0.783869
171.331
30.2986
6.41206
1.1582
126.767
22.5558
5.03659
0.810455
65.9075
12.8076
2.3204
0.555409
55.2298
10.5716
2.41395
0.540194
20.4867
4.51999
0.707007
0.146375
17.9066
3.74198
0.883075
0.202384
208.547
34.3321
6.42495
1.14159
164.779
29.1368
6.08081
1.08268
200.126
33.2643
6.40831
1.13073
158.36
27.9869
5.89576
1.02337
190.612
32.153
6.73153
1.18966
144.517
25.3712
5.54528
0.939378
153.154
26.2464
5.89687
1.13367
152.895
26.4458
6.39745
1.16279
104.525
18.1695
3.9831
0.663718
100.651
18.2688
3.88035
0.668211
33.1314
5.95313
1.1308
0.191992
101.904
18.2591
3.82974
0.640898
34.7775
6.17174
1.16777
0.196731
99.6446
17.3696
3.68864
0.59315
35.26
6.0818
1.16997
0.19909
87.9282
14.847
3.38865
0.564934
33.4922
5.51104
1.16698
0.202693
78.4235
13.0785
3.0547
0.535438
31.5846
5.10288
1.1387
0.194801
51.7639
9.22224
1.92063
0.340238
21.5448
3.86832
0.713908
0.124061
64.6762
11.0614
2.49636
0.429177
26.5752
4.46806
0.948154
0.16827
32.6418
6.18068
1.26839
0.256087
13.762
2.61517
0.434241
0.0805729
11.2807
2.37692
0.526019
0.112705
4.98674
1.05062
0.190385
0.0372949
0.12371
0.0151221
0.00179539
0.000211352
2.77064e-05
0.0505357
0.00629137
0.000759421
9.07275e-05
1.20777e-05
0.121757
0.0148579
0.00182166
0.000226344
3.19327e-05
0.0557417
0.00729201
0.00097513
0.000132414
2.04562e-05
0.134318
0.0174421
0.00231515
0.000313304
4.82904e-05
0.106714
0.0168123
0.00257309
0.000388031
6.53448e-05
0.0783748
0.0140774
0.00226445
0.000348131
5.90302e-05
0.0255757
0.00612885
0.00115133
0.000196507
3.61575e-05
0.126228
0.0173396
0.00242761
0.000343334
5.48946e-05
0.0887654
0.0124281
0.00178638
0.000258253
4.19911e-05
0.130497
0.0171673
0.00238574
0.00034012
5.51118e-05
0.0547624
0.00813937
0.00127195
0.00019751
3.41284e-05
0.114097
0.0166943
0.00239686
0.000341579
5.46058e-05
0.0715247
0.0113001
0.00174752
0.000265012
4.46193e-05
0.0329133
0.00622702
0.00109275
0.000181794
3.30481e-05
0.0294745
0.00570059
0.00102131
0.000172417
3.16586e-05
0.133102
0.0153371
0.00176605
0.000203851
2.62646e-05
0.0595973
0.00646999
0.000725292
8.25484e-05
1.05246e-05
0.126643
0.014493
0.00169315
0.00020188
2.73369e-05
0.0560174
0.00602883
0.000680376
7.90465e-05
1.04285e-05
0.113377
0.0131445
0.00160087
0.000201593
2.90721e-05
0.0468449
0.00536936
0.000663705
8.58317e-05
1.28021e-05
0.107285
0.013939
0.00193176
0.000275771
4.48019e-05
0.054333
0.00672204
0.000923649
0.000131825
2.14896e-05
0.0433557
0.0078324
0.00133995
0.000220224
3.96696e-05
5967.07
11093.7
5667.83
10755.8
5253.91
9847.88
4758.47
8939.44
4308.01
8856.52
1455.99
3279
2811.4
5559.91
722.489
1821.68
226.968
748.305
38699.3
19430.8
13723.8
11298.7
10062.3
11247.5
6490.51
4788.53
3888.22
3371.12
37790.3
18709.1
13153.4
10806.3
9559.61
11512.4
6781.27
4856.11
3951.31
3454.91
35471.2
17296.6
12088.8
9902.65
8714.96
11069.4
6448.32
4587.77
3717.83
3220.34
32245.9
15512.9
10810
8849.04
7772.4
10288.9
5859.5
4114.31
3306.09
2834.82
27668.3
13254.4
9262.49
7596.17
6673.85
9033.33
4998.33
3470.96
2771.82
2360.16
15970.9
8180.91
5829.89
4805.25
4228.19
4114.66
2156.96
1445.2
1124.58
945.729
21933
10923.2
7710.69
6337.58
5569.04
6112.52
3333.57
2301.3
1830.72
1554.91
10152.1
5332.8
3828.87
3158.47
2780.8
2557.95
1344.18
896.138
671.224
564.792
3742.53
1994.08
1440.35
1191.99
1051.95
1136.57
548.012
363.376
265.667
217.258
-1942.76
1325.3
8235.51
-2790.52
1197.63
1281.3
3054.46
3871.02
3042.47
4915.39
4530.52
6685.83
5069.74
6432.84
2478.11
3426
2227.14
2597.49
1448.88
1499.98
883.717
376.231
10.8637
-1.52271
1.88777
0.27756
6.42749
4818.99
1501.79
1199.25
848.15
182.448
71.3211
503.699
76.4238
44.4428
41.6047
13.7399
2359.45
764.191
218.223
105.837
330.243
121.755
39.8559
42.0394
10.873
13.6655
74.6514
63.0469
3060.79
806.072
1181.59
398.885
269.499
718.245
41.7727
12.3145
71.5729
455.928
284.315
167.713
94.3551
38.2036
228.892
134.631
76.6843
39.701
11.5965
8.02526
5.30572
3.12017
1.58014
0.475831
-1.09366
-0.690396
-0.385882
-0.18745
-0.0549533
1.40856
0.935794
0.550745
0.278654
0.0837937
0.200469
0.129454
0.0765073
0.0399336
0.0122349
4.8517
3.26987
1.95116
0.996298
0.300382
2638.27
1650.94
938.208
506.447
227.121
925.819
512.707
292.717
153.28
48.4937
741.252
427.51
241.032
124.411
38.7641
491.55
267.327
146.617
74.11
22.6969
105.448
56.2369
30.397
15.0438
4.75958
51.2489
32.8945
18.9403
9.50448
2.85824
327.199
193.47
107.273
53.6607
16.3748
53.4065
33.1658
18.6653
9.29089
2.80563
31.5042
20.0245
11.4427
5.70906
1.71645
29.9304
19.1957
11.0206
5.51432
1.65979
9.55276
5.9569
3.35045
1.65413
0.495382
1207.74
798.035
465.384
261.622
124.733
479.017
277.97
159.169
83.0499
25.2013
152.702
95.9628
54.8298
27.5668
8.31168
74.1468
46.602
26.6101
13.3586
4.01747
222.213
135.214
76.1707
38.2516
11.555
89.3755
57.3097
33.077
16.6209
4.85275
28.2129
17.8533
10.2698
5.1803
1.54711
30.9025
20.1943
11.7602
5.92084
1.77049
7.95255
5.19882
3.03102
1.5292
0.460793
10.0549
6.59953
3.8505
1.93889
0.58254
53.4733
34.2577
19.6751
9.84046
2.95484
45.5208
29.3507
16.9313
8.48557
2.54616
1590.54
936.771
557.396
314.816
130.744
492.016
290.1
165.545
85.9339
25.9933
713.474
421.518
241.426
128.759
38.1061
245.884
150.293
86.3653
44.7934
14.3548
185.321
114.719
65.4224
33.0561
9.92497
477.076
265.504
149.84
77.199
19.7054
30.3318
19.5932
11.3578
5.7214
1.7075
9.05405
5.93264
3.45783
1.7405
0.522404
51.883
33.2968
19.2102
9.65532
2.86724
-60114.9
-91189.5
-46110.6
-77198.7
-44686.3
-98076.7
-58327.4
-119224
-34588.9
-23812.5
-37312.4
-20895.5
-29772
-19289.9
-34965.2
-17220.2
-54812.5
-42395.7
-73297.3
-57351
-43731.9
-35306.7
-62728.7
-50776.1
-32551.6
-34881.4
-23236.3
-24606.6
-31396.3
-30894.2
-83351.4
-25374.1
-27987.8
-13120.7
-90504.7
-28710.9
-23811.4
-11552.9
-63569
-20901.9
-32080
-15093.3
-57691
-17368.9
-30138.5
-13418.5
-39853.6
-15569.4
-26414.9
-12586.9
-36653
-13760.7
-27258.5
-14618.3
-22356.3
-9231.88
-31037.4
-11738.2
-12063.9
-4741.63
-21185.1
-15434.1
-17517.3
-12873.9
-15922.5
-12635
-13643
-10576.2
-19677.1
-15041.9
-23420.8
-18650.3
-13104.4
-9545.12
-7682.48
-5750.22
-10467.1
-7935.89
-6121.61
-4870.13
-14596.2
-10663.2
-8567.72
-5840.4
-19327.9
-11387.7
-18187.9
-21969
-25721.1
-20346.1
-25276.7
-36701.1
-13470.7
-6283.43
-11808.3
-13188.1
-7648.19
-3020.57
-5664.95
-5137.51
-27603.6
-36086.1
-17285.9
-46752.4
-27306.1
-34535.6
-19275.9
-48372.8
-29875.4
-32462.9
-24343.4
-47076.5
-13257.7
-8025.89
-19200.5
-25164
-29591.1
-9680.54
-15788.5
-26394.7
-36037.3
-60521.4
-9127.49
-12285.8
-16812.2
-25932.4
-46682
-36644.7
-26213.9
-50939.9
-36305.6
-34364.1
-25629.9
-50610.9
-36156.1
-30418.6
-23704.6
-47080.6
-35068.6
-11654.4
-8548.85
-15468.1
-11700.1
-19983.1
-16006.7
-27171.8
-21499.2
-43936.9
-33920.9
-7969.84
-6881.09
-11809.9
-10517.7
-16751.6
-14991.3
-24469.5
-21467.9
-40405.1
-33203.8
-11046.2
-5783.4
-8903.66
-5796.12
-8533.12
-6337.59
-7174.69
-5730.41
-11064.1
-7525.47
-14432
-8000.07
-4892.39
-4169.21
-1907.72
-1488.79
-4708.47
-4156.23
-1769.21
-1460.2
-5677.79
-5065.95
-2149.63
-1805.22
-13518.2
-8211.61
-17969.6
-8391.52
-19891
-11024.9
-28442.2
-14529.4
-7408.27
-5143.02
-10001.6
-4312.84
-4912.35
-3606.07
-5378.42
-3180.1
-17150.4
-6250.64
-21124
-7114.14
-16900
-6162.67
-21557.7
-7604.79
-15857.3
-5528.3
-21806.5
-7994.89
-4542.14
-1350.69
-7067.11
-2399.36
-10267.4
-3665.81
-14252.9
-4895.47
-20850.3
-7461.96
-4173.62
-1150.72
-6410.69
-2215.03
-9189.05
-3193.18
-13149.8
-4431.71
-18653.2
-5901.33
-9855.17
-8388.35
-7818.63
-6382.4
-17933.3
-13170.3
-15088
-10871.4
-6313.81
-3991.52
-2693.37
-1593.12
-5895.34
-4069.54
-2570.98
-1821.58
-4161.8
-6270.97
-4839.09
-6953.54
-4309.16
-3067.76
-6023.61
-2590.74
-12168.7
-5297.45
1742.34
-404.229
-2098.38
-1509.15
-603.303
-354.797
-1834.05
-542.928
-815.762
-212.588
-1918.43
-590.06
-1001.89
-260.394
-2229.75
-663.351
-1575.92
-348.354
-1534.47
-281.223
-789.412
-132.023
-6205.96
-5012.27
-4981.42
-4272.31
-10684.6
-8838.87
-9049.49
-7417.65
-2783.42
-2387.92
-3717.66
-2785.2
-3729.92
-3189.39
-2234.64
-1970.07
-6776.94
-5487.47
-4050.73
-3394.74
-1876.32
-1767.34
-1061.58
-1101.2
-1392.27
-409.086
-1247.56
-367.138
-1837.57
-547.943
-1434.35
-444.467
-924.125
-270.17
-940.596
-245.692
-449.907
-105.89
-588.007
-122.69
-1752.74
-1323.19
-637.436
-590.564
-1851.46
-1453.82
-636.097
-586.59
-2187.76
-1555.85
-675.564
-565.016
-3651.91
-5253.93
-2761.01
-1660.44
-515.024
-6396.56
-4311.96
-2875.62
-1807.9
-599.594
-6192.64
-3718.64
-2161.36
-1179.34
-347.48
-1204.45
-1094.72
-573.823
-583.486
-1293.51
-1131.76
-535.212
-538.651
-1352.23
-1183.7
-487.814
-473.07
-8025.8
-5539.68
-4950.15
-3366.78
-2512.75
-1986.82
-1368
-1128.98
-431.035
-426.651
-4801.18
-4086.13
-2831.21
-2488.9
-1568.27
-1400.4
-855.64
-756.406
-236.281
-313.189
-2275.41
-1467.46
-1728.62
-861.914
-4652.68
-2657.25
-3994.94
-1906.16
-810.241
-422.859
-1120.97
-797.873
-1888.19
-748.718
-754.662
-295.278
-3432.15
-1479.3
-1296.36
-564.388
-1000.28
-370.392
-412.982
-145.889
-304.205
-242.543
-127.806
-152.084
-492.088
-418.954
-136.841
-198.629
-418.101
-181.053
-91.6325
-111.015
-142.817
-31.1354
75.0068
15.8366
-828.473
-322.249
-355.863
-68.0085
-851.536
-353.005
-335.155
-68.6812
-800.354
-293.933
-265.527
-46.5338
-2801.72
-813.26
-1780.15
-549.307
-1233.64
-404.081
-673.844
-212.942
-244.456
-47.1634
-2404.84
-600.139
-1481.78
-373.032
-879.729
-225.271
-476.685
-113.609
-246.297
-47.7039
-116.321
-20.76
-4.17331
-0.780259
-46.3492
-8.27143
-1.77737
-0.333492
-118.202
-21.0158
-4.518
-0.862638
-46.661
-8.34103
-2.24395
-0.450013
-133.476
-23.7918
-5.39318
-1.02542
-67.9016
-11.8507
-1.85745
-0.29885
-25.0923
-3.74763
0.795811
0.176861
-12.4745
-1.11004
0.833808
0.212685
-99.8219
-18.1261
-3.29377
-0.580058
-77.672
-14.0851
-3.24164
-0.656985
-133.03
-24.208
-5.34146
-0.933344
-98.5593
-17.8482
-4.28556
-0.651014
-61.9956
-10.9181
-1.75418
-0.422535
-50.3315
-9.03638
-2.00207
-0.438399
-24.7165
-3.8452
-0.308645
-0.0272337
-18.7022
-3.11361
-0.614322
-0.120013
-140.862
-25.5289
-5.34388
-1.0136
-138.055
-24.6671
-5.95362
-1.06525
-137.813
-24.9155
-5.39056
-1.00438
-133.809
-23.8558
-5.78051
-1.00125
-138.03
-24.7718
-5.86614
-1.08094
-123.174
-21.8417
-5.44642
-0.909165
-106.024
-18.8795
-4.84524
-0.92878
-122.816
-21.525
-6.04652
-1.0887
-76.2025
-13.5572
-3.2134
-0.432641
-105.748
-17.0746
-4.13715
-0.694876
-41.0759
-5.93706
-1.18869
-0.200051
-96.7713
-15.8228
-3.90569
-0.646113
-38.31
-5.62713
-1.1574
-0.195183
-83.3878
-13.5859
-3.56636
-0.579459
-33.1807
-4.88544
-1.06718
-0.182949
-70.806
-11.426
-3.21151
-0.541691
-29.6272
-4.3429
-1.04731
-0.177947
-58.2002
-9.54694
-2.6976
-0.474996
-23.3182
-3.50069
-0.927732
-0.152641
-42.9784
-7.47953
-1.60865
-0.269323
-14.7116
-2.4217
-0.467478
-0.0748404
-52.1279
-8.89954
-2.18907
-0.358229
-17.4859
-2.73696
-0.67687
-0.114139
-28.6412
-5.10587
-1.03326
-0.20014
-10.7619
-1.79827
-0.270944
-0.0456412
-10.7204
-1.85859
-0.369837
-0.0696472
-4.44976
-0.682426
-0.0927671
-0.0134173
-0.10538
-0.0127057
-0.00145681
-0.000162089
-1.94645e-05
-0.0422054
-0.0051734
-0.000600043
-6.71895e-05
-8.0919e-06
-0.099088
-0.0114357
-0.00128866
-0.000142925
-1.72569e-05
-0.0388719
-0.00450898
-0.000515612
-5.78659e-05
-7.03863e-06
-0.0971504
-0.011221
-0.00128063
-0.000144709
-1.78234e-05
-0.0539071
-0.00706493
-0.000861955
-0.000100091
-1.22011e-05
-0.0366591
-0.005729
-0.000720482
-7.87509e-05
-7.8774e-06
0.00931923
0.00113463
0.000243328
5.40619e-05
1.25693e-05
-0.0915041
-0.0108664
-0.00127504
-0.000146631
-1.80945e-05
-0.0628037
-0.00760004
-0.000923005
-0.000110061
-1.41008e-05
-0.0852631
-0.00939652
-0.00107165
-0.000123729
-1.57421e-05
-0.0222182
-0.00265421
-0.000352698
-4.68985e-05
-6.82382e-06
-0.0861004
-0.0108033
-0.00127025
-0.000140186
-1.55981e-05
-0.046839
-0.0060756
-0.000744359
-8.50918e-05
-9.67015e-06
-0.00523507
-0.000159599
0.000103266
3.65606e-05
9.91954e-06
-0.00669566
-0.000375604
6.13908e-05
2.87588e-05
8.40852e-06
-0.117047
-0.0131961
-0.00146789
-0.000160973
-1.91747e-05
-0.0536239
-0.00564276
-0.000609047
-6.58528e-05
-7.77525e-06
-0.109066
-0.0118788
-0.00129631
-0.000141159
-1.68405e-05
-0.0500861
-0.00513851
-0.000546623
-5.88399e-05
-6.97114e-06
-0.0934679
-0.00992654
-0.00108513
-0.00011977
-1.456e-05
-0.0361634
-0.00358325
-0.000376301
-4.047e-05
-4.82792e-06
-0.0632703
-0.00668191
-0.000744539
-8.50456e-05
-1.07715e-05
-0.0315877
-0.00291764
-0.000304303
-3.30888e-05
-4.01207e-06
0.00522362
0.000141397
-3.59819e-05
-1.09422e-05
-2.41118e-06
-6379.71
-10865.8
-6114.71
-10655.3
-5679.65
-9889.96
-5146.74
-9083.48
-4555.04
-8929.45
-1622.55
-3388.47
-2997.38
-5664.6
-860.018
-1914.2
-338.498
-823.803
-39342.1
-19531.9
-13738.3
-11300.7
-10062.7
-11373.4
-6515.87
-4793.67
-3889.06
-3371.34
-38371.6
-18799.8
-13166.4
-10808.2
-9560.15
-11654.5
-6813.01
-4861.43
-3952.16
-3455.12
-35926.3
-17367.7
-12098.9
-9904.22
-8715.56
-11210.3
-6477.85
-4592.62
-3718.71
-3220.69
-32558.3
-15561.7
-10816.9
-8850.24
-7773.05
-10410.4
-5883.64
-4118.13
-3306.78
-2835.16
-27846.5
-13282.3
-9266.29
-7596.78
-6674.19
-9117.84
-5014.72
-3473.45
-2772.33
-2360.48
-16020.7
-8188.77
-5831.09
-4805.58
-4228.48
-4149.92
-2163.36
-1446.16
-1124.84
-945.991
-22023.6
-10937.6
-7712.67
-6337.93
-5569.3
-6160.46
-3342.73
-2302.61
-1830.95
-1555.1
-10181.1
-5337.51
-3829.8
-3158.87
-2781.12
-2583.98
-1348.85
-896.987
-671.542
-565.099
-3760.47
-1996.82
-1440.86
-1192.23
-1052.12
-1156.45
-551.38
-363.887
-265.829
-217.272
-1200.04
-4708.8
-12242.4
-1470.94
-10917.2
-5083.24
-10274.7
-5184.15
-20339
-11331.1
-24038.1
-13283.3
-0.0135237
-0.0502408
-0.112175
-0.178604
-0.0367889
1.31012
-0.0431648
-0.166888
-0.404445
-0.783128
-0.99569
0.524035
-0.00468794
-0.00245376
-0.0167137
-0.0104629
-0.0272968
-0.0265914
0.0440233
-0.0191457
0.293784
0.0191523
0.902822
0.310025
8.20981
36.5103
131.377
131.51
125.48
33.0826
8.76741
34.6579
88.1318
126.069
125.013
49.8124
-0.0107855
-0.00775792
-0.00489701
-0.00259582
-0.000800478
-0.0399226
-0.0285831
-0.017958
-0.00948366
-0.00291843
-0.0885712
-0.0629149
-0.0392168
-0.0205818
-0.00631165
-0.139898
-0.0983866
-0.0607354
-0.0316396
-0.00966291
-0.0287672
-0.0199343
-0.0121222
-0.00624128
-0.00189022
1.00093
0.685774
0.413737
0.212188
0.0643081
-0.0342138
-0.0244248
-0.0152995
-0.00805984
-0.00247671
-0.131726
-0.0935549
-0.0583058
-0.0305952
-0.00938152
-0.317015
-0.223285
-0.138038
-0.071988
-0.0219998
-0.608641
-0.424453
-0.259971
-0.134652
-0.0409998
-0.766325
-0.528519
-0.320513
-0.16487
-0.0500215
0.397915
0.270666
0.162234
0.0828265
0.0250492
-0.00376366
-0.00272748
-0.00173524
-0.000925885
-0.00028664
-0.0019804
-0.00144516
-0.000926233
-0.000497274
-0.000154475
-0.0133649
-0.00963624
-0.00609842
-0.00323992
-0.00100052
-0.00840364
-0.00609515
-0.00388129
-0.00207242
-0.000641716
-0.0216843
-0.0154995
-0.00972272
-0.00512865
-0.0015773
-0.0211877
-0.015215
-0.00958768
-0.00507477
-0.00156332
0.0344059
0.0241854
0.0149182
0.00776535
0.00237095
-0.0152214
-0.0108981
-0.00684149
-0.00360704
-0.00110764
0.228072
0.15898
0.0973563
0.050435
0.0153625
0.0146628
0.0100656
0.00611577
0.00317309
0.00097268
0.691735
0.475302
0.287605
0.147871
0.0448729
0.235866
0.160513
0.0963466
0.049304
0.0149288
6.17019
4.15303
2.47109
1.25723
0.37957
26.7792
17.5954
10.3002
5.20252
1.56564
93.0313
59.2885
34.1764
17.2228
5.17963
89.5597
57.3771
33.3325
16.9659
5.2446
91.0663
59.0483
33.8514
16.7879
4.91336
28.5075
19.5165
11.0868
5.28762
1.55372
6.57832
4.41756
2.62212
1.33153
0.401617
25.5957
16.9278
9.94303
5.02495
1.51278
63.8982
41.6005
24.2148
12.2056
3.67312
90.1084
58.2762
33.8296
17.0589
5.14799
89.6551
57.8534
33.4398
16.784
5.02458
36.2231
23.4887
13.5598
6.78026
2.03007
0.0135717
0.0504679
0.11319
0.182693
0.0521325
-1.25713
0.0431123
0.16679
0.404266
0.783037
0.997968
-0.507791
0.00474587
0.00249832
0.0169752
0.010689
0.0284005
0.027655
-0.0402374
0.0224376
-0.27492
-0.0390044
-0.795478
-0.269201
-8.05695
-36.1384
-130.181
-131.214
-128.429
-38.1239
-8.70011
-34.4553
-87.7003
-125.942
-126.024
-51.8136
0.0108311
0.0077968
0.00492594
0.00261331
0.000806298
0.0401194
0.0287403
0.0180683
0.00954757
0.00293919
0.0894256
0.0635736
0.039664
0.0208343
0.00639258
0.143262
0.100916
0.0624115
0.0325675
0.00995691
0.0411511
0.0290478
0.0180289
0.00945186
0.00289611
-0.958781
-0.655409
-0.394476
-0.201907
-0.0611232
0.0341927
0.0244257
0.0153115
0.0080718
0.00248152
0.131693
0.0935696
0.0583421
0.0306277
0.00939412
0.316995
0.223371
0.138162
0.072088
0.0220375
0.608843
0.424826
0.260362
0.134935
0.0411027
0.768569
0.530509
0.322026
0.165797
0.0503334
-0.38499
-0.261218
-0.156147
-0.0795371
-0.0240246
0.00381249
0.00276529
0.00176105
0.000940506
0.000291323
0.00201756
0.00147342
0.000945185
0.000507866
0.000157849
0.0135814
0.00979962
0.00620705
0.00330022
0.00101966
0.00858927
0.00623377
0.00397249
0.00212259
0.000657553
0.0225838
0.0161658
0.0101574
0.00536616
0.00165196
0.0220509
0.0158502
0.00999933
0.00529851
0.00163347
-0.0313757
-0.0219917
-0.013521
-0.0070173
-0.0021386
0.0178564
0.0128042
0.00805542
0.0042575
0.00130994
-0.213121
-0.14829
-0.0906323
-0.0468709
-0.0142616
-0.0298363
-0.0204027
-0.0122761
-0.00628277
-0.00190345
-0.60727
-0.415479
-0.250328
-0.12826
-0.0388446
-0.203673
-0.137593
-0.0819773
-0.0417018
-0.0125851
-6.0504
-4.06875
-2.41888
-1.22991
-0.37121
-26.4961
-17.4029
-10.1847
-5.1438
-1.54808
-92.126
-58.673
-33.804
-17.0316
-5.12221
-89.1067
-56.8888
-32.9293
-16.7071
-5.1566
-92.9475
-60.0801
-34.3397
-16.9699
-4.94828
-32.0615
-21.7432
-12.3237
-5.86938
-1.70897
-6.52771
-4.38295
-2.60132
-1.32098
-0.398479
-25.4472
-16.8288
-9.8848
-4.99606
-1.5044
-63.5766
-41.3805
-24.0812
-12.137
-3.65269
-89.9728
-58.145
-33.7247
-16.9928
-5.12579
-90.3416
-58.259
-33.6458
-16.87
-5.04548
-37.6534
-24.398
-14.0696
-7.02262
-2.09752
-914.333
-387.919
-10.202
1.93446
-1.11912
0.752082
-4.99542
-4568.75
-1319.89
-1102.78
-579.106
-41.1653
-479.942
-16.199
38.887
-7.99042
-2267.97
-712.537
-193.577
-98.3532
-324.619
-114.175
-38.5418
-38.6778
-1.06886
-8.2207
-63.4983
-57.5305
-3035.93
-805.093
-1163.61
-394.518
-264.338
-691.745
-39.0638
-8.49291
-65.9011
-476.038
-295.738
-173.865
-97.0881
-38.8246
-236.826
-139.442
-79.3004
-40.8964
-11.8915
-7.507
-4.94052
-2.89321
-1.46076
-0.439095
1.42164
0.925775
0.534796
0.266998
0.0796777
-0.811102
-0.518844
-0.29451
-0.145074
-0.0428532
0.595895
0.423873
0.262388
0.13632
0.0416797
-3.73398
-2.4845
-1.46436
-0.740298
-0.22146
-2529.64
-1608.87
-926.136
-507.027
-235.313
-817.41
-450.662
-260.07
-137.053
-41.3828
-684.3
-396.285
-224.811
-116.702
-36.2774
-351.626
-198.034
-115.208
-60.8989
-18.9463
-29.4952
-18.903
-10.8795
-5.44934
-1.62557
-317.501
-191.665
-108.53
-55.2731
-17.0468
-11.3288
-7.14212
-4.0986
-2.06731
-0.627707
26.8689
16.688
9.45641
4.76257
1.46584
-5.398
-3.27721
-1.83323
-0.920145
-0.282393
-1140.83
-752.093
-437.861
-247.747
-121.651
-440.334
-252.044
-143.292
-74.6001
-22.5475
-134.993
-84.6553
-48.3418
-24.3
-7.31111
-68.7857
-43.1789
-24.6643
-12.3989
-3.73157
-219.502
-134.357
-76.239
-38.5705
-11.723
-83.1356
-52.7512
-30.1284
-14.9992
-4.33291
-27.1817
-17.1225
-9.80987
-4.93507
-1.47109
-28.3094
-18.4022
-10.6645
-5.34902
-1.5944
-0.706704
-0.411274
-0.220563
-0.10528
-0.0290723
-5.97067
-3.85953
-2.22467
-1.11165
-0.331866
-45.458
-29.1403
-16.7834
-8.4273
-2.53687
-41.4885
-26.7293
-15.4273
-7.74347
-2.32581
-1572.8
-924.051
-549.189
-310.432
-129.571
-490.937
-289.069
-164.725
-85.4183
-25.8314
-694.923
-407.042
-231.259
-122.764
-35.9186
-241.994
-147.175
-84.1926
-43.5398
-13.9599
-181.256
-111.862
-63.6296
-32.099
-9.62619
-456.725
-251.57
-141.177
-72.5824
-18.2558
-28.2095
-18.0963
-10.4237
-5.22624
-1.55394
-6.16247
-3.97468
-2.28753
-1.1429
-0.341293
-47.4704
-30.221
-17.3045
-8.64421
-2.55147
-3.59883
-11.3338
-22.1029
-39.3128
-66.4873
-102.87
-42999.4
-35679
-30260.5
-36493.6
-30176.8
-23494.8
-24736.2
-18378.3
-43121.1
-36695.5
-37021.6
-33117.7
-32244.8
-25164.4
-31449.3
-35904.2
-31387.7
-25260.2
-29106
-26161.4
-20154.4
-20768.6
-15059.8
-38158.4
-34197.8
-34460.1
-31842.1
-29365.7
-23690.2
-30353
-26662.2
-24144.8
-19129.1
-21335.3
-20491.1
-16526.5
-16158.4
-12734.4
-28818.9
-28847.9
-27042.4
-27891.3
-24013.9
-19970.4
-26714.4
-16371.8
-15376
-11982.1
-12919.1
-13595.7
-12035.5
-10583
-9217.97
-18982.4
-22092.3
-18265.2
-21511.9
-17035.6
-14990.8
-20646.3
-9161.22
-8774.24
-6689.53
-7082.15
-8067.65
-7618.77
-6067.4
-5500.87
-11350.9
-14978.6
-11060.3
-14396
-10762.8
-10015.3
-13834.9
-3010.75
-2910.69
-2184.96
-2294.42
-2748.85
-2732.8
-1998.61
-1821.59
-4011.8
-5849.4
-3934.98
-5410.49
-3949.13
-3800.4
-5151.81
-11683.5
-11028.8
-18758.3
-21257.9
-10414.5
-8851.04
-16638.6
-12846.5
-7482.41
-3672.58
-7222.53
-3640.68
-6786.54
-6644.71
-3704.34
-10942.7
-10140.9
-16797.6
-18730.9
-9139.79
-7190.66
-14460.6
-10771.3
-6015.74
-1947.82
-5649.01
-1994.99
-4556.58
-4176.28
-2106.24
-8790.99
-8120.52
-13217.9
-14513.6
-7277.5
-5715.59
-11452.5
-8932.6
-3930.44
-1730.57
-3612.6
-1896.13
-2998.42
-2851
-2028.28
-5792.42
-5387.66
-8498.79
-9150.87
-4837.4
-3960.17
-7551.31
-6313.46
-3200.76
-1644.9
-3028.49
-1764.87
-2663.83
-2572.77
-1823.88
-3286.24
-3067.62
-4752.65
-5058.06
-2732.02
-2283.48
-4281.32
-3652.03
-1981.4
-1306.91
-1883.81
-1326.15
-1731.44
-1680.94
-1298.71
-1072.79
-1005.49
-1546.65
-1636.51
-917.866
-808.12
-1401.47
-1209.29
-669.157
-568.595
-648.474
-545.505
-627.037
-622.048
-508.524
15482.1
45336.9
12180.1
48712.7
6829.76
49060.6
9931.03
71029.4
15319.2
87826.2
16593.2
66692.9
18263.5
61366.7
18322.6
53721.3
8241.61
4752.3
24872.3
12255.1
7647.92
3423.93
25080.1
9925.89
12770.3
10596.6
36614.2
29883.4
8750.16
7875.3
36532.2
30871.2
18961.3
7417.34
14628.6
5976.09
7957.89
19284.6
74629.5
22462
23168.2
10110.4
83623.3
25804.6
19696.6
8661.18
54579.5
18116.3
27400.4
12411.4
48899
15293.7
17628.3
9321.74
24575.4
10507.1
16522.7
9756.54
25529.2
10351.8
19842.6
12656.5
16013.1
7370.63
26287.3
10238
10212
4072.19
24530.3
17568.1
14606.4
12198.1
20386.5
16233.9
11344.6
10238.1
16615.5
14128.8
23643.6
18900
10689.6
8500.75
5786.33
4676.96
8431.67
7058.67
4411
3897.08
12189.1
9635.59
6770.33
4848.02
16510.9
10339.8
17268.6
21505
23348.2
19268.3
24502.6
36151.4
11474.9
5565.06
10991.3
12826.1
6238.52
2505.49
4926.85
4841.5
22201.5
39908.7
15350.7
46890.1
23438.9
38421.6
17915.9
48445.2
27742.5
35311.1
23507.8
47217.9
19194.9
15903.2
20460
23088.3
28530.6
9272.53
15509.7
26284.6
36494.6
60129.5
12937.4
14672.8
17443.1
25570.8
46084.5
44462.8
34279.2
53003.5
41371.8
40988.5
32645
51926.9
40221.3
34799.8
28844
47825.9
37781.1
9664.65
7666.8
14461.8
11831.1
21082.3
17687
29942.3
24220.4
44389.5
35424.6
7919.12
6801.23
12368.6
11281.9
17838.2
16461.3
25597.9
23272.8
40464.2
34712.1
12029.9
6064.9
9043.43
5845.41
9800.34
6707.48
7522.07
5916.98
10970.3
7461.89
14918.7
8165.15
4639.94
4075.22
1526.57
1337.04
4577.26
4160.07
1458.62
1377.6
5366.22
4918.8
1766.26
1632.16
13280.4
8082.96
17711.4
8253.51
19961.6
11073.7
28205.5
14495
7113.5
4982.05
9770.14
4179.44
4601.63
3440.18
5179.06
3062.02
23472.8
11983.1
3434.03
26010
12757.5
3739.45
22078.7
11115.3
3271
25171.7
12297.4
3518.52
19224.3
9270.45
2546.71
23593.6
11378
3187.03
4142.24
1839.29
462.832
7477.04
3668.8
961.157
11622.1
5708.44
1529.7
15891.7
7557.98
2025.09
21631.7
10074.2
2785.18
4208.84
1713.4
467.037
6987.25
3345.77
959.97
10219.5
4907.3
1378.59
14345.9
6611.06
1809.96
19844.3
8484.32
2321.11
133.365
868.419
1438.11
2569.73
3375
2332.55
8043.75
5581.28
562.201
469.737
595.861
494.266
462.504
542.158
686.716
789.192
1625.47
952.329
2626.5
1818.02
1019.09
1703.08
3610.53
485.184
9040.86
2705.4
-3948.7
-1463.77
416.882
-27.3023
-582.212
-871.478
3765.97
1010.36
957.586
346.5
3887.82
1009.54
1083.76
386.15
3797.93
1010.47
1391.56
423.557
1126.99
243.802
171.265
24.1703
9641.01
7284.37
4136.25
4454.25
15025.1
12319.8
7560.48
7434.49
2489.04
2595.3
5827.98
3973.87
2625.38
2857.27
1176.35
1479.78
5215.56
4896.02
2629.94
2649.26
1238.62
1627.24
386.955
833.223
1444.14
478.424
1401.81
431.686
2801.04
773.46
1970.34
596.884
673.082
245.836
904.081
250.569
112.746
42.8097
468.136
99.1574
3895.23
1593.87
1121.2
726.356
4066.27
1720.61
1076.41
710.552
4334.25
1883.07
1046.96
679.727
9211.99
12628.1
5983.72
3052.08
809.183
6640.13
5493.45
3998.28
2456.31
771.465
9836.47
6108.93
3419.42
1750.69
511.089
701.235
321.058
419.259
229.692
817.95
395.025
435.785
249.925
1003.34
534.063
457.538
278.405
6240.15
4370.19
3966.94
2406.56
1987.35
1298.25
1159.58
736.667
438.062
307.964
4598.92
3730.58
2836.12
2201.9
1664.9
1247.09
940.602
686.883
324.759
302.372
2985.02
1637.93
1983.31
968.277
5735.93
2895.42
4356.6
2051.87
966.027
492.16
1499.95
903.61
1882.37
767.358
619.466
263.646
3393.54
1497.62
1079.01
516.936
1010.26
384.258
341.449
127.872
382.494
281.171
161.939
171.314
667.998
475.104
200.556
223.144
429.906
189.907
100.05
117.028
115.039
22.6182
-83.1032
-18.8969
145.282
48.0082
10.6159
98.3147
22.6029
4.95324
191.18
66.1014
15.3561
112.624
27.5093
6.21283
265.378