/*--------------------------------*- C++ -*----------------------------------*\
| =========                 |                                                 |
| \\      /  F ield         | OpenFOAM: The Open Source CFD Toolbox           |
|  \\    /   O peration     | Version:  2412                                  |
|   \\  /    A nd           | Website:  www.openfoam.com                      |
|    \\/     M anipulation  |                                                 |
\*---------------------------------------------------------------------------*/
FoamFile
{
    version     2.0;
    format      ascii;
    arch        "LSB;label=32;scalar=64";
    class       volScalarField;
    location    "0.2";
    object      gradTx;
}
// * * * * * * * * * * * * * * * * * * * * * * * * * * * * * * * * * * * * * //

dimensions      [0 -1 0 1 0 0 0];

internalField   nonuniform List<scalar> 
5712
(
-14220
-18292.9
-30981.2
-51848.2
-47886.2
-96784
-31391.2
-97186.3
-31962.5
-77066.7
-39518.9
-68456.5
-29730.7
-42393.4
-16234
-17583.2
-26552.5
-31061.7
-35413.5
-33281.8
-21215.2
-29658.1
-32317.6
-31315.2
-10696.2
-8844.77
-14981.9
-11907.5
-24695.1
-18611.7
-46202.5
-35658.4
-36968.3
-37346.6
-42162.8
-44004.8
-11718
-9983.44
-80134.4
-97946.5
-45113.3
-58790
-93813
-115041
-44054.5
-54609.6
-65184.3
-84577
-55493.6
-74361.3
-34152.3
-41473.1
-7579.13
-2537.59
-10024.5
-3686.61
-17135.8
-7438.02
-29465.4
-11469.3
-20175.3
-7139.32
-19693.2
-6084.44
-37447.3
-11808.4
-48472.8
-16439.2
-42484.7
-24955.5
-37756.2
-25508.1
-36101.4
-22242.8
-30778
-21763.2
-35688
-26474.4
-38111
-24998
-38095.7
-26483.7
-40365.4
-27404.2
-31820.4
-22323.8
-34150.3
-23023
-37091.9
-28056.8
-40044.8
-29278.9
-42333.8
-20313.6
-28985
-38073.2
-44402.9
-23348.7
-27596.4
-38522.9
-42958.6
-18868.7
-30627.4
-38235
-44817.2
-18975.3
-32094
-38921.4
-7058.51
-7733.21
-2577.97
-5772.85
-19897.5
-22597.1
-9252.94
-18912
-31207.8
-35404.8
-17549
-32340
-18636.6
-7522.37
-28285.5
-44479.1
-28162.6
-3822.08
-7663.01
-17884.4
-41970.3
-37874.2
-12049.4
-20104.2
-28292.8
-34810.5
-52052.4
-6253.08
-4836.45
-4299.43
-3445.41
-18039.6
-12672.9
-13837.1
-10469.8
-26270.7
-17746.8
-21401.5
-15869.9
-6661.15
-5594.34
-12513.3
-10651.4
-22415.6
-16659.3
-33601.2
-23881.8
-31764.4
-24180.5
-10510.7
-7320
-17195.4
-10328.8
-22284.5
-12877.6
-26872.2
-15288.4
-38122.1
-21958.8
-15740.1
-5122.9
-14761.5
-7837
-12406.2
-8245.5
-13218.6
-9690.31
-17882.1
-9828.99
-19805.5
-6040.33
-15033.9
-11363.4
-16022.3
-12449.4
-13943.6
-11989.5
-14967.3
-12933.5
-18152.3
-14062.9
-19200.8
-15379.2
-27269.9
-13085.2
-41045.4
-14709.1
-26411.6
-7595.92
-38106.3
-8851.72
-27540.2
-16397.9
-42162.8
-16209.2
-26463.2
-18416.8
-39821
-18924.4
-3183.78
-1849.82
-826.48
-2175.09
-1348.54
-676.967
-7987.21
-3832.38
-1553.29
-6200.93
-2917.61
-1161
-9570.69
-4034.97
-1797.88
-9345.47
-3842.68
-1662.33
-3101.32
-987.726
-356.622
-6784.61
-2120.57
-636.998
-9153.66
-3042.96
-892.641
-12934.1
-4843.51
-1737.23
-14532.9
-5222.59
-1689.24
-5190.36
-1851.64
-631.896
-5890.8
-2151.23
-645.525
-7695.98
-2728.13
-784.963
-9614.28
-3495.84
-1057.69
-14320.4
-4670.28
-1210.09
-11755.8
-17247.2
-11084.7
-14558.4
-13145.6
-23056.7
-12626.2
-21309.2
686.234
-420.705
1091.12
-80.8556
-1331.57
-2974.88
-405.951
-1659.95
-1350.56
-2705.5
-9049.29
-11827
-4408.21
-3726.64
-13401.6
-13025.1
-22817.5
-25907.9
-150.841
4323.49
-7799.63
-6021.91
-4668.51
-2549.64
-601.814
-381.538
-506.743
-377.916
-1979.22
-500.94
-1120.58
-301.382
-5748.42
-1185.49
-4863.02
-1214.58
-5745.1
-1292.66
-6527.96
-1473.97
-12301.1
-9366.28
-10102.1
-9126.64
-22175
-16507.4
-19146.5
-15724.8
-5955.41
-5121.22
-6581.41
-4829.76
-9852.98
-9053.63
-10598.9
-9185.78
-19214.6
-15627.1
-20567.7
-15942.1
-5529.55
-5131.71
-5477.08
-5155.27
-497.257
-250.939
-2667.28
-694.685
-639.882
-198.903
-2368.48
-584.015
-537.618
-214.918
-2771.64
-751.698
-685.962
-220.056
-2770.24
-776.137
61.0106
82.7847
-138.687
-45.9874
227.718
309.312
-213.705
-59.5722
-550.872
-202.778
-578.498
-343.001
2362.32
1145.79
1031.78
565.318
28.1112
3676.88
4277.54
1336.96
1068.18
88.8094
-7982.2
-4892.83
-2864.37
-1827.78
-490.173
67.912
40.0044
-13.6154
-1.55624
191.397
132.28
-33.8502
-2.98192
124.629
138.833
-128.994
-45.1069
322.82
-440.751
2057.45
730.443
594.748
138.105
482.731
211.884
34.6307
24.6252
-4186.93
-2330.16
-1118.62
-308.509
-439.722
-62.8804
-265.837
-11.5239
6.24676
40.9709
-3073.61
-1823.26
-5113.27
-2296.74
-6521.22
-3606.36
-8673.69
-4267.12
-2773.33
-1181.6
-1423.9
-925.274
-5769.71
-2131.12
-6221.39
-2219.97
-9768.17
-4373.45
-10620.5
-4594.76
-3174.85
-1016.67
-3408.89
-1023.21
-1282.34
-554.28
-287.067
-290.834
-704.534
-458.53
-137.286
-220.759
-1358.97
-490.297
-358.072
-325.454
-1598.88
-470.597
-479.878
-277.735
14.664
4.14421
1.95892
-2.21117
0.208913
0.20057
47.6302
15.8499
7.73462
-4.95174
1.89234
1.53068
60.3288
28.2678
13.0458
-22.069
4.30268
3.26355
-467.992
-76.5589
-15.917
26.3382
72.2683
43.2276
-3.73492
27.4004
21.4508
48.7873
29.6992
17.5882
-18.4193
3.86916
2.58095
-1486.32
-442.599
-125.746
-386.856
-80.9301
-7.18053
-182.266
-27.4585
3.26922
-90.2602
-11.1651
3.3022
-58.7185
-5.86153
0.451964
-17.7325
-2.83308
-0.493542
-0.119502
-7.75142
-0.768218
0.356637
0.0786852
-48.042
-7.69026
-1.07927
-0.281003
-21.5312
-2.27537
0.559584
0.0856978
-81.2766
-13.4479
-1.99912
-0.362925
-63.0768
-9.28716
-1.37893
-0.211123
-42.6737
-6.43667
-1.42885
-0.253509
-45.854
-7.30133
-1.0037
-0.148706
-139.224
-23.9143
-5.00406
-0.826555
-139.743
-24.5543
-5.70224
-0.95418
-114.577
-19.7627
-3.86859
-0.466568
-113.974
-20.0056
-4.89031
-0.864132
-129.414
-22.283
-4.34044
-0.74434
-151.789
-26.7769
-6.05643
-1.04176
-127.636
-22.1407
-3.90568
-0.677853
-156.925
-27.7442
-6.22774
-1.12207
-11.6519
-2.11068
-0.526198
-0.152032
-6.24909
-1.30025
-0.433053
-0.109021
-31.3692
-5.74976
-1.24089
-0.334453
-14.2666
-3.00285
-0.993761
-0.272262
-79.6429
-14.5351
-3.06235
-0.670811
-55.8176
-10.4929
-2.4027
-0.420403
-55.2364
-10.4902
-2.17398
-0.213287
-29.5318
-5.8256
-1.57422
-0.29665
-95.0384
-17.0469
-4.15679
-0.603478
-1.37472
-0.275962
-0.117445
-0.0253469
2.66414
0.539358
0.0660057
0.0100573
-7.82426
-1.48124
-0.486168
-0.0925537
6.04672
1.22753
0.11226
0.0178448
-17.8457
-3.35916
-0.909829
-0.147531
8.91705
1.68903
0.140741
0.0198441
-21.6631
-4.08375
-1.15398
-0.201121
10.9016
1.91303
0.0765011
-0.00138788
-32.5271
-5.62698
-1.79079
-0.332189
5.18984
1.13947
-0.190143
-0.041459
-86.18
-13.7543
-3.47883
-0.554097
-27.2604
-3.69143
-0.878051
-0.143303
-58.7909
-9.41193
-2.74113
-0.459756
-12.8958
-1.35623
-0.572856
-0.0967246
-103.104
-16.9058
-4.01224
-0.677965
-33.8546
-5.07658
-1.06486
-0.182816
-110.409
-18.6445
-4.32042
-0.761405
-36.8034
-5.94164
-1.17831
-0.206868
-0.0219389
-0.0026661
-0.00026467
-1.88945e-05
1.27278e-07
-0.00415
-0.000494328
2.3319e-05
2.09625e-05
6.46651e-06
-0.0593855
-0.00670651
-0.000632564
-4.40303e-05
1.22516e-07
-0.016651
-0.000659071
0.000245481
8.51053e-05
2.15869e-05
-0.0680815
-0.00633412
-0.000437847
-3.4062e-06
8.08914e-06
-0.0168043
0.00112761
0.000677512
0.000164301
3.64e-05
-0.0173464
-0.000900339
7.82376e-05
3.67217e-05
9.53954e-06
-0.0301341
-0.00343721
-0.000322256
-2.27648e-05
-2.31171e-07
-0.0615144
-0.00520783
-0.000311804
7.0177e-06
8.38776e-06
-0.0451116
-0.00441913
-0.000429739
-3.99694e-05
-3.60056e-06
-0.0156711
0.0011888
0.000577313
0.000131813
2.82697e-05
-0.0331238
-0.00272855
-0.000185532
-4.10674e-06
2.3838e-06
-0.078967
-0.00843149
-0.000871926
-8.60296e-05
-8.54155e-06
-0.0480197
-0.00473134
-0.000457825
-4.20442e-05
-3.69892e-06
-0.0912397
-0.0102893
-0.0011052
-0.000113338
-1.19924e-05
-0.0587241
-0.0061631
-0.000645254
-6.65253e-05
-7.31195e-06
-0.0229369
-0.00258476
-0.000260259
-2.13704e-05
-8.65411e-07
-0.0083977
-0.000837593
-6.24969e-05
4.66027e-09
1.56755e-06
-0.0476032
-0.00496308
-0.000449198
-2.94076e-05
6.62615e-07
-0.0173466
-0.00148359
-6.82491e-05
1.09131e-05
5.19001e-06
-0.0698571
-0.00634158
-0.000507961
-2.59867e-05
2.51143e-06
-0.00781281
0.000312669
0.000207483
5.08211e-05
1.15124e-05
0.00629733
0.00305895
0.000656357
0.000120133
2.31827e-05
0.0147861
0.00267689
0.000440515
7.0967e-05
1.27518e-05
0.0106094
0.00262969
0.000489182
8.38095e-05
1.55009e-05
-466.79
-708.107
-1453.29
-2243.42
-2651.3
-4123.01
-3851.7
-6346.42
-4838.36
-7587.88
-5822.49
-7958.68
-5269.09
-6965.71
-5892.99
-8356.32
-5551.17
-8080.91
-2342.09
-1087.32
-744.168
-601.345
-516.229
-621.412
-302.403
-81.2609
-57.704
11.2537
-7643.2
-3573.32
-2458.71
-1995.69
-1728.27
-1827.45
-789.28
-481.391
-349.081
-207.665
-13474.5
-6360.87
-4405.83
-3593.51
-3138.05
-3752.36
-1962.05
-1339.79
-1058.43
-865.097
-19356.3
-9248.15
-6466.1
-5305.22
-4659
-6129.66
-3516.49
-2520.31
-2048.43
-1753.04
-27548.6
-13576.1
-9632.88
-7964.57
-7034.07
-9607.42
-5926.67
-4367.02
-3605.82
-3143.22
-39762.7
-21281.2
-15546.7
-13010.1
-11562.7
-12178.7
-7745.1
-5787.08
-4826.77
-4243.38
-35124.4
-18200.6
-13119
-10914.8
-9673.55
-11581.5
-7363.99
-5489.66
-4573.98
-4022.56
-42111
-22898
-16831
-14125.5
-12558.9
-12178.3
-7634.13
-5669.93
-4725.49
-4146.29
-43575.3
-23698
-17458.8
-14707.9
-13089.5
-12216.4
-7667.65
-5680.87
-4692.93
-4126.7
-1399.17
-11592.9
-10445.6
-4724.55
4234.65
6040.93
10864.3
15462.3
6105.64
14193
-719.421
5150.04
4764
10256.2
12958.8
19757.6
14831.5
18207.1
8346.65
10041.9
-6726.13
-3580.6
-66.0118
-18.1017
-10.8725
-12.4201
-20.245
-3859.9
-2015.75
-1573.2
-936.888
-333.585
-217.557
-520.451
-117.751
-82.0932
-70.9373
-39.9173
-6141.45
-1444.11
-94.13
-218.85
-629.152
-254.666
-201.527
-97.6384
-20.4213
-32.9693
-64.9442
-83.4216
-6255.96
-2532.73
-2485.54
-976.124
-621.781
-1031.71
-132.012
-71.0644
-193.23
-3421.51
-2374.41
-1369.13
-768.486
-339.523
-2021.24
-1149.6
-662.617
-353.861
-105.079
-48.184
-31.3154
-18.1352
-9.08791
-2.7169
-13.5531
-9.05432
-5.34479
-2.70225
-0.812182
-8.09838
-5.37941
-3.15306
-1.58361
-0.47479
-9.39291
-6.34199
-3.77027
-1.91165
-0.575524
-15.0214
-9.93608
-5.81157
-2.91924
-0.875308
-1971.97
-1226.77
-680.004
-365.785
-184.274
-817.263
-450.865
-213.139
-101.381
-44.3863
-884.663
-476.685
-261.254
-133.887
-42.9101
-399.809
-209.883
-101.703
-49.1615
-19.2753
-135.604
-66.9607
-31.5153
-15.3328
-5.44828
-140.696
-82.4247
-44.6427
-21.7145
-6.53307
-305.985
-169.292
-90.7667
-44.6604
-13.8561
-67.243
-36.0249
-18.6606
-8.90994
-2.70823
-55.783
-33.9774
-18.7362
-9.12723
-2.7206
-47.0029
-28.0064
-15.1907
-7.31937
-2.17337
-27.6466
-17.1111
-9.5063
-4.6299
-1.37482
-3220.86
-1962.15
-1126.92
-620.086
-286.792
-868.561
-494.084
-277.032
-142.941
-45.083
-63.8477
-38.9061
-21.6162
-10.6492
-3.19251
-150.005
-92.4111
-51.9309
-25.8294
-7.77043
-415.31
-248.768
-138.991
-69.7035
-21.1374
-176.426
-109.354
-61.7485
-30.79
-9.21268
-142.597
-89.6646
-51.003
-25.4479
-7.56065
-69.9228
-44.6723
-25.5441
-12.7182
-3.80475
-14.6122
-9.31818
-5.28916
-2.60661
-0.776147
-24.0783
-15.6821
-9.06395
-4.52215
-1.35319
-45.3894
-28.3606
-15.9446
-7.86074
-2.34834
-59.1155
-37.4491
-21.2975
-10.5797
-3.16847
-3181.59
-2066.18
-1203.06
-675.121
-295.969
-1467.06
-836.636
-480.477
-255.034
-79.1122
-1543.2
-909.929
-504.884
-261.565
-80.2314
-638.484
-365.224
-204.985
-104.661
-29.8292
-421.461
-252.934
-141.879
-71.1919
-20.8059
-673.616
-384.08
-214.764
-109.313
-30.5236
-92.8291
-58.2089
-32.9542
-16.3795
-4.89132
-51.944
-33.8239
-19.5686
-9.78218
-2.92754
-136.173
-85.6441
-48.609
-24.1966
-7.23202
-12244.3
-27240.4
-20871
-70380.8
-18106.7
-83666.5
-12628.3
-33221.1
-17182.2
-16748.9
-34752.8
-29015.8
-15153
-17490.8
-34371.2
-27907.9
-8489.65
-6260.6
-19754.7
-15027.4
-15008.3
-8856.01
-54204.8
-41351.9
-30892.4
-20537.9
-36403.3
-24996.9
2972.98
-4639.98
-82989.3
-99084.9
-43926
-58695.7
-96239.1
-116061
-42881.8
-54370.2
-67092.8
-85642.9
-54285.9
-74443.2
-36573.9
-42476.1
-5389.2
-1287.76
-11674.2
-3989.09
-10666.3
-5549.97
-32588.4
-12318.5
-7462.29
-3899.97
-15437
-4843.65
-37615.6
-11745.5
-48893.2
-16535.1
-30576.6
-20255.1
-34083.4
-23389
-24385.5
-17166.3
-27143.2
-19638.5
-32959.5
-24776.6
-29405.4
-21571.4
-36725.5
-25571.7
-40078.4
-27165.9
-30373.5
-21404.1
-33783.9
-22778.1
-36221.6
-27311.1
-39895.2
-29079.5
-40902
-20025.4
-27763.3
-37755
-39409.7
-22220.7
-25087.5
-37843.9
-42676.9
-18817.7
-30099.6
-38095.9
-44838.8
-18987.5
-31959.3
-38883.3
-1741.74
-1652.86
-156.842
-3200.55
-6882.45
-8981.7
-5751.79
-15249.1
-12041.5
-16180.6
-13185.7
-28076.5
-23681.3
-18181.1
-25811
-35216.9
-26396
-9975.26
-9667.16
-14223
-32198.4
-36574.8
-16775.7
-21183.6
-25518.4
-30145.3
-50691.9
-2607.52
-2472.03
-2383.33
-2242.97
-8921.58
-6842.56
-10647
-8222.41
-11946.2
-7924.79
-17721.9
-13085.1
-9506.78
-6939.23
-11180.6
-8767.35
-16796.3
-11945.3
-25425.3
-18121.6
-29879
-22406.6
-13214.9
-8172.67
-16703.2
-9365.5
-19143.8
-10684.9
-23114.7
-12904
-36801.9
-20395.3
-14496.2
-4857.66
-13645.3
-7488.25
-12069.2
-8281.24
-12351.9
-9414.36
-16725.2
-9441.98
-18018.6
-5537.18
-14378.6
-11129.8
-15806.7
-12372.3
-13343.2
-11756
-14757.5
-12849.6
-17541.5
-13856.3
-19009.7
-15315.6
-26393.8
-12776
-40722
-14545.6
-24760.2
-7140.19
-37521.1
-8681.87
-27135.8
-16250.2
-42016.8
-16135.6
-26337.1
-18375.5
-39782
-18912.4
-2188.38
-1705.34
-1707.75
-1785.48
-5158.77
-3574.14
-5658.23
-4939.99
-5192.56
-3693.18
-9123.52
-6813.44
-4876.95
-2357.59
-6793.83
-3115.47
-7841.71
-3648.65
-11728.1
-6414.24
-15656.8
-8154.77
-5841.49
-2464.75
-5092.49
-1912.16
-6303.37
-2230.89
-7952.89
-2852.68
-11934.1
-3167.93
-5468.62
-9392.06
-5523.17
-10946.8
-9397.31
-13589
-12698.4
-18069
-1153.23
-765.925
-883.1
-602.746
-3089.29
-2393.78
-2783.11
-2035.68
-977.296
-1472.15
-6993.07
-6641.88
-2349.53
-2770.94
-11739.7
-12554.7
-21189.2
-25405.2
380.049
4426.8
-6649.34
-5654.29
-4023.26
-2379.18
-555.538
-378.808
-564.355
-371.467
-1357.37
-513.223
-1000.67
-309.548
-3832.98
-1090.11
-3983.25
-1097.79
-5104.89
-1185.37
-6274.66
-1424.35
-6723.41
-7100.52
-8031.09
-7948.17
-13503.2
-12535.5
-16196.1
-13958.3
-4852.63
-4515.56
-3829.46
-3916.37
-8865.3
-8491.45
-10314.8
-9026.89
-17894.5
-14830.7
-20188.5
-15723
-4977.39
-4812.39
-5305.1
-5058.83
-352.824
-236.372
-2433.8
-658.703
-401.941
-215.678
-2128.75
-562.531
-408.785
-198.87
-2625.83
-725.075
-625.923
-211.317
-2723.28
-766.575
-411.402
-381.839
-312.775
-268.601
-1095.67
-1032.92
-481.927
-417.625
-2908.1
-2713.5
-887.274
-770.213
-3961.4
-9436.56
-2008.26
-80.5595
-91.2655
-3621.27
-988.647
-1430.76
446.226
-2.35322
-12579.6
-7111.5
-3795.37
-2204.76
-563.394
-370.984
-294.015
-237.7
-176.219
-1014.42
-781.694
-382.668
-294.623
-2192.58
-1618.2
-575.851
-430.725
-4308.28
-3352.74
-1302.93
-1526.08
-1673.83
-1498.17
-279.604
-427.509
-90.743
-108.285
-7827.51
-4005.49
-3497.87
-1660
-1683.19
-849.915
-852.008
-398.298
-108.189
-62.2087
-3492.61
-2225.61
-4857.84
-2293.63
-6862.18
-4015.61
-8171.35
-4199.5
-2695.03
-1209.85
-1755.12
-1212.98
-5500.88
-2068.47
-6114.89
-2189.47
-9330.35
-4258.5
-10456
-4546.53
-3041.92
-993.521
-3351.33
-1008.73
-1286.51
-584.366
-314.739
-317.407
-913.702
-630.738
-220.264
-310.578
-1317.07
-486.27
-357.506
-328.047
-1575.6
-464.991
-475.656
-276.888
-183.004
-144.128
-92.3936
-68.7833
-587.114
-430.789
-155.062
-98.797
-1086.56
-620.955
-190.108
-61.0686
-2598.73
-1186.76
-1524.5
-656.951
-1050.87
-489.956
-395.038
-210.562
-96.1806
-30.0324
-2254.79
-793.99
-1036.65
-316.761
-585.41
-189.273
-305.809
-115.738
-125.798
-12.1055
-25.7518
-4.34167
-0.738268
-0.157007
-17.4461
-2.88319
-0.0328842
0.0163622
-64.9798
-11.1643
-1.64507
-0.364995
-37.7439
-6.27768
-0.245786
-0.0681313
-98.5176
-17.6155
-2.82737
-0.511347
-74.0577
-13.0585
-2.38317
-0.456725
-44.2319
-7.80747
-1.85666
-0.345143
-44.98
-7.61158
-1.13323
-0.179202
-138.221
-24.9899
-5.46939
-0.96684
-137.389
-24.8252
-5.93166
-1.01669
-124.835
-22.7945
-4.72176
-0.68825
-115.248
-20.9256
-5.29984
-0.959989
-127.247
-22.73
-4.56057
-0.798187
-149.411
-26.8227
-6.18067
-1.08768
-126.439
-22.241
-3.97637
-0.697454
-155.962
-27.7395
-6.26373
-1.13584
-24.1844
-4.02185
-0.811452
-0.191693
-21.7929
-3.50244
-0.812614
-0.162576
-60.4681
-10.3107
-1.95313
-0.439077
-53.3927
-8.70208
-1.96009
-0.407713
-107.944
-19.4274
-3.99175
-0.822588
-96.3047
-16.8542
-3.62052
-0.599203
-90.1872
-16.7774
-3.41745
-0.430735
-64.1121
-11.5122
-2.59332
-0.434692
-109.996
-20.0061
-4.99276
-0.752687
-15.7903
-2.3868
-0.414109
-0.0675941
-9.40316
-1.42945
-0.191722
-0.0289345
-42.1311
-6.57629
-1.26144
-0.209
-24.2368
-3.78489
-0.579061
-0.087978
-54.9715
-9.19551
-1.88195
-0.30612
-28.0063
-4.82348
-0.784904
-0.124423
-56.4273
-9.99635
-2.19225
-0.379792
-25.7222
-4.89843
-0.89669
-0.152283
-58.3642
-10.2146
-2.69168
-0.505341
-25.2492
-4.495
-1.0265
-0.174816
-94.903
-15.8886
-3.95296
-0.65163
-35.199
-5.44719
-1.17073
-0.193912
-78.2824
-13.203
-3.52135
-0.609965
-32.2755
-5.03233
-1.14384
-0.190901
-104.823
-17.6641
-4.2153
-0.725998
-35.7871
-5.65824
-1.17659
-0.203772
-110.23
-18.769
-4.36805
-0.77444
-36.9083
-6.03348
-1.20162
-0.211939
-0.0300917
-0.00438174
-0.000576466
-7.1195e-05
-9.32362e-06
-0.0170927
-0.00304902
-0.00043321
-5.54586e-05
-7.40345e-06
-0.0782018
-0.0104497
-0.001296
-0.000153929
-1.96019e-05
-0.0508112
-0.00730731
-0.000935282
-0.00011254
-1.4414e-05
-0.0989854
-0.0119265
-0.00139242
-0.000159116
-1.97059e-05
-0.0674718
-0.00830704
-0.000968283
-0.000109441
-1.34149e-05
-0.0324608
-0.00366736
-0.000407746
-4.50934e-05
-5.54891e-06
-0.0360333
-0.00457749
-0.000531481
-5.92528e-05
-7.16681e-06
-0.0880625
-0.00979864
-0.00108022
-0.000117404
-1.37863e-05
-0.0505407
-0.00526912
-0.000562787
-6.04174e-05
-7.07671e-06
-0.0603641
-0.00645905
-0.00069863
-7.48815e-05
-8.66467e-06
-0.0448088
-0.00465272
-0.000496726
-5.32878e-05
-6.21242e-06
-0.0868131
-0.00961971
-0.00105428
-0.000113711
-1.31992e-05
-0.0526664
-0.00547555
-0.000576594
-6.07223e-05
-6.95904e-06
-0.0946924
-0.0108524
-0.00119626
-0.000127816
-1.45445e-05
-0.0599072
-0.00632715
-0.000667542
-6.95042e-05
-7.75032e-06
-0.0302243
-0.00402401
-0.000514977
-6.34349e-05
-8.37364e-06
-0.0169849
-0.0023815
-0.000323541
-4.20649e-05
-5.82966e-06
-0.0661241
-0.00837698
-0.00103373
-0.000124368
-1.61422e-05
-0.0377479
-0.00501756
-0.000655425
-8.29164e-05
-1.12436e-05
-0.094693
-0.0106714
-0.0012293
-0.000141587
-1.78063e-05
-0.0335844
-0.00403452
-0.000503936
-6.21395e-05
-8.25872e-06
-0.0292433
-0.00285433
-0.000310992
-3.4426e-05
-4.14767e-06
-0.00388301
-0.000469747
-7.15521e-05
-1.01892e-05
-1.48039e-06
-0.0105858
-0.000837439
-7.56003e-05
-6.47136e-06
-5.07614e-07
-170.116
-477.094
-756.474
-1679.61
-1854.95
-3443.7
-3174.06
-5709.81
-4331.73
-7097.45
-5677.91
-7853.78
-4992.05
-6764.63
-5831.56
-8311.79
-5535.52
-8069.58
-2345
-1088.5
-744.014
-601.036
-515.951
-581.047
-299.963
-80.1282
-57.3841
11.4107
-7671.52
-3580.41
-2459.7
-1995.79
-1728.31
-1726.77
-775.769
-479.704
-349.218
-208.121
-13532.8
-6373.53
-4408.05
-3594.21
-3138.62
-3631.23
-1945.62
-1337.67
-1058.44
-865.496
-19424.9
-9261.45
-6467.99
-5305.57
-4659.29
-6018.22
-3501.3
-2518.39
-2048.33
-1753.16
-27618.9
-13589.6
-9635.14
-7965.28
-7034.68
-9529.86
-5916.2
-4365.8
-3605.88
-3143.42
-39798.8
-21288
-15548
-13010.6
-11563.2
-12159
-7742.43
-5786.88
-4826.81
-4243.33
-35182.5
-18211.7
-13120.9
-10915.4
-9674.16
-11541.2
-7358.49
-5489.17
-4574.07
-4022.77
-42129.7
-22901.4
-16831.6
-14125.7
-12559
-12170.4
-7632.97
-5669.63
-4725.37
-4146.11
-43582.2
-23699.4
-17459.2
-14708.1
-13089.7
-12214.7
-7667.39
-5680.7
-4692.75
-4126.5
-1136.07
-11343.8
-9574.02
-3546.1
-1853.17
-1023.35
-3566.66
-2580.21
-8186.65
-9506.03
-5101.12
-4986.27
-0.0237043
-0.0774338
-0.273886
-0.900795
-2.76136
-7.97961
-0.0269753
-0.122719
-0.484468
-1.63667
-4.8957
-13.1407
-0.0109913
-0.00337115
-0.0399912
-0.0158002
-0.161023
-0.0794462
-0.608774
-0.3849
-2.04648
-1.5093
-6.75994
-5.15821
-22.2619
-60.765
-163.61
-485.875
-972.115
-1613.96
-31.558
-67.1262
-126.196
-224.859
-344.856
-476.583
-0.0189628
-0.0136935
-0.00867988
-0.00461728
-0.0014268
-0.0615077
-0.0440263
-0.0276536
-0.0146011
-0.00449264
-0.215937
-0.153155
-0.0953177
-0.0499608
-0.0153097
-0.703918
-0.493968
-0.30427
-0.158233
-0.0482797
-2.13415
-1.47853
-0.900023
-0.464082
-0.140964
-6.08044
-4.1464
-2.4899
-1.27241
-0.384737
-0.0214776
-0.0154167
-0.00971178
-0.00514011
-0.00158379
-0.0969514
-0.0689326
-0.0430079
-0.0225875
-0.00692946
-0.379839
-0.267613
-0.165482
-0.0863137
-0.0263797
-1.27206
-0.887125
-0.543322
-0.281386
-0.0856732
-3.76685
-2.59707
-1.57432
-0.809523
-0.245566
-9.99219
-6.80089
-4.07805
-2.08237
-0.629526
-0.00883811
-0.00642235
-0.00409771
-0.00219174
-0.000679455
-0.00272099
-0.00198525
-0.00127212
-0.000682905
-0.000212184
-0.0319389
-0.0230077
-0.0145461
-0.0077211
-0.00238303
-0.0126692
-0.0091683
-0.00582406
-0.00310353
-0.000960038
-0.127589
-0.09101
-0.0569601
-0.0299872
-0.00921187
-0.0631691
-0.0452388
-0.0284259
-0.0150115
-0.00461924
-0.47758
-0.336534
-0.208098
-0.108526
-0.0331637
-0.302766
-0.213983
-0.132669
-0.0693137
-0.0211989
-1.58546
-1.10077
-0.671228
-0.346472
-0.105288
-1.17302
-0.817144
-0.499559
-0.25822
-0.0785157
-5.1515
-3.50999
-2.10516
-1.07454
-0.324621
-3.94954
-2.70402
-1.627
-0.831534
-0.251346
-16.6553
-11.1382
-6.58757
-3.33738
-1.0049
-44.3804
-28.9727
-16.8598
-8.48121
-2.54509
-115.894
-73.5421
-42.1518
-21.1389
-6.33102
-331.135
-203.283
-115.223
-58.0164
-17.3512
-621.303
-370.204
-209.725
-107.375
-32.6642
-997.835
-586.011
-332.343
-171.566
-51.512
-23.6643
-15.8737
-9.41144
-4.77504
-1.43932
-49.492
-32.6502
-19.1352
-9.65623
-2.90402
-91.0851
-58.9216
-34.1288
-17.158
-5.15282
-157.657
-99.4715
-56.9351
-28.6002
-8.58551
-231.802
-142.342
-80.8383
-40.8442
-12.3316
-311.356
-187.898
-106.303
-53.9535
-16.2233
-0.0236956
-0.0774402
-0.274065
-0.901577
-2.76272
-7.97609
-0.0269516
-0.122577
-0.483765
-1.63361
-4.8833
-13.099
-0.0110049
-0.00338598
-0.0401703
-0.0159868
-0.162375
-0.0811709
-0.615818
-0.398465
-2.0732
-1.6068
-6.81909
-5.62745
-22.2254
-60.5772
-162.851
-482.392
-964.333
-1608.48
-31.4396
-66.8463
-125.624
-223.677
-342.973
-475.424
-0.0189605
-0.0136946
-0.00868257
-0.00461971
-0.00142777
-0.0615305
-0.0440586
-0.0276852
-0.0146232
-0.00450054
-0.216156
-0.153381
-0.0955079
-0.0500849
-0.0153526
-0.704839
-0.494896
-0.30504
-0.158731
-0.0484515
-2.13635
-1.4811
-0.90232
-0.46563
-0.141508
-6.08169
-4.15086
-2.49511
-1.27633
-0.386181
-0.0214636
-0.0154106
-0.0097108
-0.00514098
-0.00158433
-0.096868
-0.0688979
-0.0430036
-0.0225938
-0.00693311
-0.379417
-0.26742
-0.165437
-0.0863274
-0.0263915
-1.27015
-0.886169
-0.543003
-0.281356
-0.0856925
-3.75879
-2.59269
-1.5725
-0.809012
-0.245505
-9.96436
-6.7851
-4.07085
-2.07988
-0.62904
-0.00885164
-0.00643359
-0.00410592
-0.00219666
-0.000681099
-0.0027334
-0.00199479
-0.0012786
-0.000686552
-0.000213342
-0.0320926
-0.0231286
-0.0146298
-0.0077691
-0.00239854
-0.0128237
-0.00928487
-0.00590157
-0.00314656
-0.000973689
-0.128722
-0.0918774
-0.0575451
-0.0303159
-0.00931696
-0.0645768
-0.0462825
-0.0291077
-0.0153846
-0.00473672
-0.483435
-0.340977
-0.211069
-0.110185
-0.0336919
-0.313696
-0.221968
-0.13781
-0.0720962
-0.0220697
-1.60779
-1.11774
-0.68258
-0.352818
-0.107313
-1.25041
-0.872613
-0.534598
-0.276895
-0.0843054
-5.20375
-3.55163
-2.13427
-1.09139
-0.330112
-4.31844
-2.96532
-1.7903
-0.917926
-0.278041
-16.6402
-11.1399
-6.59679
-3.34613
-1.00837
-44.2817
-28.9443
-16.8685
-8.49827
-2.55293
-115.462
-73.3674
-42.1221
-21.1603
-6.34552
-328.977
-202.18
-114.769
-57.8867
-17.3369
-616.095
-367.099
-208.066
-106.635
-32.4846
-994.015
-583.603
-330.966
-170.897
-51.3435
-23.5846
-15.8277
-9.38962
-4.76689
-1.43754
-49.3034
-32.5413
-19.0829
-9.63613
-2.89951
-90.7009
-58.7014
-34.0229
-17.1169
-5.14344
-156.859
-99.0121
-56.7087
-28.5086
-8.56345
-230.487
-141.533
-80.3978
-40.6419
-12.278
-310.524
-187.364
-105.997
-53.8048
-16.183
-6697.53
-3565.86
-66.0779
-18.2851
-13.4744
-13.5446
-21.3897
-3875.26
-2555.39
-1699.36
-1450.27
-262.383
-733.278
-123.961
-143.038
-72.8509
-6056.97
-1462.17
-107.893
-226.258
-636.431
-256.842
-201.733
-100.046
-28.5224
-38.261
-78.4646
-88.2297
-6173.12
-2504.83
-2456.53
-966.863
-619.646
-1025.55
-134.315
-73.1674
-195.942
-3402.52
-2360.07
-1360.6
-763.978
-338.211
-2011.21
-1143.4
-659.046
-352.101
-104.687
-48.34
-31.509
-18.3093
-9.20499
-2.75819
-13.7181
-9.18783
-5.43921
-2.75735
-0.830239
-10.1008
-6.76459
-4.00193
-2.02767
-0.611547
-10.2772
-6.96921
-4.16363
-2.12083
-0.640436
-15.9451
-10.6103
-6.24697
-3.15697
-0.950418
-2086.9
-1340.26
-769.986
-425.235
-215.281
-1288.86
-819.097
-462.667
-251.622
-115.966
-1011.5
-573.872
-329.104
-174.836
-57.8758
-751.392
-445.098
-249.501
-140.013
-59.5605
-176.169
-107.265
-60.6442
-30.7833
-9.59636
-459.691
-267.368
-151.14
-78.5764
-25.7414
-86.863
-54.673
-31.2052
-15.7031
-4.79442
-99.7701
-62.5524
-35.6457
-17.9468
-5.48938
-51.7938
-32.9958
-18.928
-9.51386
-2.89101
-3216
-1979.82
-1151.13
-640.406
-298.503
-894.132
-517.476
-294.796
-154.135
-49.165
-74.7379
-46.6067
-26.5237
-13.3593
-4.07395
-156.756
-97.7961
-55.6903
-28.031
-8.50557
-424.63
-257.51
-145.738
-73.934
-22.6221
-179.011
-111.778
-63.6276
-31.965
-9.61884
-143.201
-90.4255
-51.6821
-25.9035
-7.72204
-72.1076
-46.4382
-26.7897
-13.4483
-4.04626
-20.7356
-13.4761
-7.81272
-3.92907
-1.18673
-28.172
-18.5344
-10.8317
-5.45972
-1.64514
-55.7956
-35.5557
-20.4061
-10.2522
-3.10501
-63.1159
-40.4403
-23.2825
-11.6969
-3.53086
-3131.37
-2033.16
-1185.04
-667.16
-294.375
-1449.36
-826.502
-475.118
-252.713
-78.6426
-1535.41
-911.513
-510.141
-266.578
-82.6547
-634.106
-364.062
-205.217
-105.248
-30.116
-421.686
-254.364
-143.494
-72.3958
-21.2619
-672.791
-385.96
-217.249
-111.278
-31.3011
-95.0689
-60.1077
-34.3361
-17.206
-5.16807
-53.7327
-35.199
-20.5
-10.3109
-3.09867
-138.877
-87.9687
-50.3215
-25.2328
-7.58221
-5.77671
-18.5751
-36.618
-64.7233
-106.096
-157.642
-4345.73
-10667.8
-8899.36
-3874.77
-12857.4
-14177.7
-11095.2
-14853.5
-2899.78
-407.863
-6040.82
2397.55
-18514.9
-20359.3
3600.81
-3007.07
-7887.06
-6569.48
-2737.55
-9381.96
-7762.76
-8105.39
-8165.37
-1452.04
2053.96
-3198.57
6935.16
-11347.6
-12179.1
7292.26
-1552.33
-4392.08
-3750.89
-1484.68
-4917.12
-2451.18
-4602.74
-4155.03
-396.11
1730.92
-413.48
5427.64
-5092.95
-3232.3
6635.33
-710.723
-2185.89
-1869.52
-707.498
-1819.18
88.1098
-2329.03
-1993.74
0.914756
678.198
293.405
2898.92
-2240.46
85.6374
4691.24
-355.037
-1231.02
-996.111
-355.978
-619.791
460.573
-1361.65
-1410.79
119.97
-47.8035
437.113
997.053
-1494.16
143.706
1406.5
-205.556
-782.625
-563.255
-192.575
-656.907
-293.032
-794.359
-957.557
115.313
51.9562
133.577
393.012
-2228.83
-1332.48
-425.106
-1232.95
-2840.31
-5319.12
-2300.88
-5220.09
-8596.87
-7833.3
-12409.1
-907.14
-537.923
-2908
-1630.44
-1537.1
-5512.67
-1608.98
-1038.39
-2406.73
-4213.43
-1764.63
-4299.99
-6257.54
-6167.99
-7645.4
-773.776
-327.377
-2338.04
-1119.28
-714.969
-4155.55
-1117.77
-700.062
-1625.71
-2626.72
-1068.31
-2819.78
-3776.55
-3817.01
-4662.74
-454.682
-317.217
-1411.76
-1004.21
-506.997
-2543.44
-932.073
-398.772
-997.068
-1396.58
-548.513
-1625.08
-2031.46
-2172.46
-2598.06
-263.879
-267.01
-819.15
-787.248
-242.757
-1571
-678.35
-211.851
-526.301
-738.613
-280.778
-747.527
-1113.52
-1222.93
-1645.39
-146.64
-255.493
-455.876
-676.169
-193.966
-987.961
-623.37
-112.063
-274.911
-394.945
-146.681
-462.109
-785.794
-677.674
-1036.07
-101.083
-218.674
-323.898
-530.777
-343.18
-809.528
-542.662
13016.9
16612.2
30993
51771.8
47905
96764
31399.8
97183.5
31976.1
77065
39559.3
68459.1
29813.5
42387.2
13944.4
15091.5
26560
31062.3
35407.5
33279
21219.3
29658.9
32317.4
31314.7
9859.78
8179.98
13744
10925.9
24706.2
18606.3
46131.2
35599.1
36939.7
37343.9
42150.6
43997.9
11710.4
9950.77
80138.3
97950.7
45113.2
58791.2
93815.5
115044
44054.8
54610.4
65187.6
84581.8
55491.9
74363.5
34159.4
41478
7096.76
2398.98
9245.31
3418.77
17100.2
7440.58
29407
11455.2
20156.1
7133.08
19667.2
6075.9
37448.4
11808.3
48476.5
16440.4
42482
24953.7
37753.6
25506.4
36100.2
22241.9
30776.9
21762.1
35683.9
26472.1
38106.5
24995.1
38094.5
26482.5
40365
27403.1
31819.8
22322.9
34149.9
23022.2
37090.6
28055.3
40044.7
29277.8
42326.6
20311.5
28982.1
38072
44393.1
23345.9
27592.1
38520.9
42957.1
18868.4
30625.8
38234.4
44817.8
18975.6
32093
38921.1
6620.81
7230.93
2436.69
5391.25
19825.9
22479.4
9250.38
18848.2
31175.6
35364.3
17538.8
32320.5
18634.5
7521.7
28281.4
44465.1
28159.1
3821.64
7662.04
17881.6
41954.7
37869
12048.6
20102.3
28288.9
34802.6
52048.3
5754.92
4468.75
3889.62
3180.16
18028.6
12631.3
13892.8
10477.4
26258.5
17735.4
21411
15876.5
6660.6
5593.94
12512.2
10650.7
22412.9
16658
33595
23878.4
31768.5
24186.3
10509.9
7319.45
17193.7
10328.1
22282
12876.8
26869
15287.9
38123.5
21962
15738.7
5122.48
14760.3
7836.5
12405.3
8244.89
13217.7
9689.69
17880.6
9828.58
19803.7
6039.97
15032.9
11363
16021.4
12448.9
13942.8
11988.9
14966.5
12932.9
18151.3
14062.6
19199.9
15378.9
27268.8
13085.1
41045.6
14709.5
26410
7595.96
38106.8
8852.87
27539.5
16397.8
42162.8
16209.4
26462.6
18416.8
39821
18924.5
2907.61
1690.05
756.336
2018.76
1255.62
632.988
7976.28
3825.45
1552.15
6201.95
2916.19
1160.28
9566.49
4032.92
1797.26
9347.74
3842.66
1662.06
3101.14
987.684
356.608
6784.25
2120.48
636.967
9153.17
3042.81
892.577
12932.8
4842.83
1736.92
14535.5
5223.07
1689.18
5190.04
1851.55
631.872
5890.53
2151.16
645.506
7695.78
2728.09
784.942
9614.26
3495.8
1057.64
14321.7
4670.65
1210.13
11758.8
17247
11090.4
14558.7
13148.3
23057.2
12628.5
21309.4
-593.685
399.746
-965.496
83.8819
1292.49
2960.84
363.03
1647.36
1338.34
2694.37
9044.39
11820.5
4399.51
3717.27
13401.3
13025
22817.5
25908
149.112
-4323.77
7797.64
6021.45
4667.05
2549.28
551.233
354.714
464.457
349.373
1976.62
497.538
1115.74
298.525
5743.5
1183.47
4858.02
1212.43
5743.27
1291.89
6527.39
1473.7
12300.1
9365.61
10101.5
9126.06
22174.5
16506.7
19146
15724.1
5954
5120.54
6579.35
4828.91
9852.54
9053.17
10598.7
9185.45
19214.2
15626.5
20567.4
15941.6
5528.86
5131.27
5476.89