/*--------------------------------*- C++ -*----------------------------------*\
| =========                 |                                                 |
| \\      /  F ield         | OpenFOAM: The Open Source CFD Toolbox           |
|  \\    /   O peration     | Version:  2412                                  |
|   \\  /    A nd           | Website:  www.openfoam.com                      |
|    \\/     M anipulation  |                                                 |
\*---------------------------------------------------------------------------*/
FoamFile
{
    version     2.0;
    format      ascii;
    arch        "LSB;label=32;scalar=64";
    class       volScalarField;
    location    "0.2";
    object      gradTy;
}
// * * * * * * * * * * * * * * * * * * * * * * * * * * * * * * * * * * * * * //

dimensions      [0 -1 0 1 0 0 0];

internalField   nonuniform List<scalar> 
5712
(
20233.2
11050.8
33345.4
22558.3
31820.8
28487.9
42325.7
57452.2
66373.6
90999.1
37157.6
34422.2
22848.9
16501.4
15995.9
9143.19
28066.2
19033.5
26751.6
21470.4
30050.3
23736
38465.5
27091.4
11535.8
8063.43
6101.64
4628.87
15243.3
9864.57
8406.49
6013.23
37095.2
35975.3
27262.3
16861.7
22666.5
19459.2
17943.8
17291.2
20463.7
21013.5
53421
59696.8
31124.2
34544.7
34460
27125.6
28385.6
17848.9
12690
11554.9
14011.3
26452.2
7033.42
11459.8
17638.9
33718.9
11463.7
18590.2
16304.4
38869.3
12832.7
26677.1
3199.01
17566.2
-153.318
12423.3
16352.7
18720.1
20013.8
19867.7
18109.6
15474.2
21414.8
16474.4
23496.2
27553.7
21335.1
25872.8
21234.8
20587.8
21111.8
20865.3
23277.3
17113.4
24169.5
17411.3
22659.1
28355
20417.3
28594.1
36059.7
48144.3
43914.3
81497.2
37430.8
56861.3
43020.9
90137.8
34257.2
42002.8
44020
77019.2
32993.7
38149.2
44232.8
75055.1
14260.3
18466.4
39848
67600.3
15982.7
18156.2
46648.1
72082
17237.1
17428.9
53869.2
75572
25513.9
18089.5
31736
38572
70618.6
17699.4
22422.1
30308
32924.6
82592.2
15529.4
19584.8
23879.9
38101.6
103617
2707.08
3331.21
7020.44
19217.2
4025.63
5012.21
9405.15
20811.4
5862.19
4629.55
12698.8
22799.1
14289.4
10234.4
17203.5
11758.2
21580.5
13696.6
19173.1
12625.2
17243.5
27440.3
12370.4
8007.88
15459
10430.6
18592.1
12528.3
22492.1
15122.9
19922.4
28056.8
15953.7
13547.5
16084
14316.2
12262.4
8958.38
12443.3
9547.14
19470.2
16516.6
20194.2
16436.4
16014.1
14450.4
16066.9
14559.9
12589.9
9937.79
12642.3
10061.8
18393.5
15760
18804.4
15966.7
23565.4
20006.2
18019.4
22856
24713.2
20216.2
18905.7
24244.2
21989.3
18976.6
17528
22271.3
21577.2
18408.5
16831.2
21364.7
2004.05
926.411
380.31
891.919
383.833
239.852
3267.16
1133.05
456.358
2207.81
1138.46
438.355
2821.53
1210.2
627.028
4092.2
1818.53
792.234
5583.24
2153.5
835.578
6412.65
2630.97
1080.7
6069.91
2528.81
1115.39
6262.48
2741.86
1207.74
6779.54
2300.17
779.018
4279.57
1712.66
678.49
5676.03
2240.91
898.657
5986.79
2168.72
842.848
6298.8
2371.96
945.724
6245.75
1969.87
624.418
27220.4
24471.5
32047
25362.4
31657.7
26617.4
42411.3
30154.5
13556.3
11297.8
14294.8
10871.3
18932.3
12957.5
19980.9
12312.1
21735.9
20760.3
17597.3
18056.5
18542.9
17998.3
28310.9
31028.6
34797.2
39321.1
21673
23517.8
18195
19039.4
18415.2
18483.6
7587.89
3179.03
7453.07
3616.57
7889.16
3198.97
7646.55
3555.49
7667.83
2934.92
7749.25
3473.47
8043.47
3703.83
7949.84
3716.44
15278.9
9102.12
16505
9949.78
19103.1
13592.4
21540.6
14558.2
13251.9
6281.97
12604.5
5629.73
18014.7
10476.7
19316.9
10708.3
23849.6
15259.3
25338.9
15605.1
13627.8
6619.33
14004.5
6738.57
5784.13
2590.09
3648.32
1625.54
4887.23
2168.01
3177.33
1401.25
6162.42
2830.8
3871.78
1737.73
6326.72
2967.59
3935.13
1771.85
839.932
314.781
1247.21
524.426
865.606
361.303
1264.62
586.005
910.988
489.635
1225.87
690.022
4990.45
10788.6
2911.05
2377.72
1302.45
10474.3
5127.62
2163.05
1773.65
860.416
10405.9
6137.88
3778.29
2236.13
1056.31
124.824
59.073
248.476
140.925
166.045
72.2805
314.365
179.653
258.326
120.641
408.884
243.879
9104.49
5981.25
4274.44
2508.02
1976.16
1126.53
1274.65
699.222
619.215
376.813
7885.02
4619.64
4488.63
2435.44
2669.47
1425.36
1498.72
796.478
775.618
503.533
4583.84
2129.8
4908.91
2089.66
7306.07
3653.51
7808.94
3805.76
3155.89
1401.04
2995.59
1425.65
5324.82
2034.9
5502.97
2110.52
8507.18
4045.48
8671.3
4160.38
3268.74
1353.77
3377.09
1433.04
1757.34
838.589
882.472
624.748
1727.68
848.477
905.488
598.936
1767.07
824.159
847.182
644.828
1873.69
862.351
900.195
643.356
32.1455
10.8747
3.45803
102.65
22.6866
7.55504
29.7011
12.6695
4.1959
122.333
28.8658
9.83344
52.4507
22.768
8.45191
153.383
40.3114
14.0518
2817.35
1069.14
420.829
1145.79
424.574
166.923
536.338
192.271
75.1753
296.562
98.1585
36.3053
215.308
60.6571
20.8944
2086.35
768.48
283.916
1008.68
350.62
126.037
578.579
189.639
64.5212
333.329
103.42
33.927
312.357
77.5518
25.4011
819.814
168.692
33.8031
6.43111
974.115
198.659
38.8388
7.35273
781.541
162.214
32.8609
6.33992
953.634
196.61
39.6796
7.7914
704.488
149.84
33.1051
6.66926
900.615
191.826
42.4179
8.70221
947.487
200.283
39.8796
7.75324
955.149
203.066
38.7502
7.25788
710.003
156.058
35.2418
7.19719
476.191
108.653
25.4359
5.11794
579.224
128.121
30.635
6.50915
415.164
95.5103
22.9474
4.68255
781.126
172.134
36.7552
7.24507
510.007
116.654
26.4902
5.22517
811.044
179.542
37.3722
7.2809
521.701
120.237
27.1864
5.39508
495.983
118.275
26.4089
5.25267
266.958
72.6674
18.3533
3.75018
472.594
113.496
25.813
5.17143
267.393
71.9977
18.1613
3.71221
436.829
105.633
25.2308
5.11341
278.853
73.2744
18.305
3.67489
389.995
92.4946
22.7743
4.70651
282.602
72.1686
18.4824
3.74327
336.797
80.2721
19.7239
4.07487
132.574
42.6328
10.3976
1.70057
62.8821
29.9183
7.50493
1.18059
144.918
45.324
10.9663
1.81725
72.7172
32.4312
7.97868
1.248
166.638
49.7003
11.5487
1.86506
90.7232
36.8374
8.62918
1.3278
202.331
55.6178
12.7162
2.08659
119.795
43.3098
9.696
1.48436
256.627
64.4837
14.6238
2.46369
163.203
50.8448
10.8011
1.63286
314.873
76.0164
16.1332
2.54588
203.516
60.901
12.7257
1.86302
301.973
71.8102
15.4087
2.47953
196.173
57.7967
11.9119
1.76082
316.198
77.6262
16.0006
2.44365
205.706
62.3639
12.9391
1.86532
309.579
78.5595
16.2784
2.47841
210.913
63.4063
13.1769
1.8925
1.13495
0.226056
0.0431341
0.00782147
0.00113839
1.2769
0.244995
0.0454933
0.00810535
0.0011682
1.13836
0.225258
0.0430391
0.00783399
0.00114378
1.31685
0.24713
0.0457646
0.00817362
0.00118107
1.11063
0.219664
0.0425441
0.0078236
0.00114884
1.32222
0.248706
0.046435
0.00834412
0.00120968
1.36913
0.263482
0.0492616
0.00882221
0.00127481
1.35541
0.270798
0.0511705
0.00917841
0.00132509
1.18106
0.232284
0.0448262
0.00821999
0.00120458
0.906841
0.205305
0.0420666
0.00793468
0.00117825
1.03288
0.213999
0.0423028
0.00785866
0.00115956
0.833643
0.196468
0.0407871
0.00774094
0.00115318
1.24526
0.246364
0.0471706
0.00858411
0.00125163
0.942689
0.215745
0.0439897
0.00825184
0.00122066
1.26735
0.25521
0.049173
0.00895511
0.00130444
0.963252
0.223719
0.0458358
0.00860103
0.00127101
0.923841
0.198391
0.039793
0.00742983
0.00109806
0.698217
0.17579
0.0373413
0.00715564
0.00107046
0.908379
0.196277
0.0395758
0.00742179
0.00110009
0.694609
0.175264
0.0373127
0.00716626
0.00107383
0.871837
0.191839
0.0392462
0.00742326
0.00110524
0.687302
0.174785
0.0374089
0.00720936
0.00108242
0.812415
0.188989
0.0393865
0.0074992
0.00111945
0.701933
0.180824
0.0384356
0.00737385
0.00110452
0.764455
0.190999
0.0399655
0.00760982
0.00113558
26105.6
36037.6
26748.8
36071.6
27793.6
36130.7
28968.1
37014.1
30023.9
39006.5
27457.2
31122.9
28099.2
33229.8
27369.9
30565.1
27503.1
30351.3
25256.1
4542.4
1274.49
546.562
183.098
26360.4
8265.09
2792.69
1288.24
446.609
25434.8
4434.58
1224.08
527.448
179.905
26454.9
8227.41
2743.66
1278.99
460.321
25700.5
4350.98
1176.98
507.556
175.402
26661.3
8182.87
2694.18
1259.78
460.182
26058.4
4235.09
1121.97
483.313
168.204
26956.6
8134.12
2654.04
1243.76
457.443
26375.7
4139.36
1093.74
474.811
166.249
27223.5
8114.24
2658.08
1255.77
464.098
25699.8
4770.75
1400.95
638.552
227.138
25361.7
8452.22
2972.56
1458.04
545.945
25945.5
4505.31
1261.96
561.885
198.257
26091.5
8302.55
2815.68
1352.29
502.349
25636
4959.09
1496.68
692.482
248.473
25143.5
8566.9
3077.58
1530.86
579.191
25738.9
4913.11
1482.35
687.261
248.549
25069.7
8537.71
3078.7
1532.5
587.552
41926.2
70105.9
61483.3
37825.5
17359.2
19156.9
28502.5
30688.7
22270.9
26119.7
39365
58878.9
61513.5
91874.6
29408.2
35077.9
21361.8
22378.2
13822.6
14983.7
1047.33
484.371
4.43269
1.38607
1.35038
0.979382
2.6983
813.778
470.511
222.87
168.386
60.6403
25.4292
68.1542
19.9983
9.94643
11.4514
5.68464
748.472
164.882
25.6838
23.6951
59.2609
36.8897
16.2365
11.8923
3.26424
3.01662
9.12879
9.57262
854.985
296.852
348.534
119.499
62.1692
174.228
15.7326
4.45478
21.5787
1828.55
1281.86
816.736
565.237
602.766
881.503
652.549
419.898
285.744
225.416
9.57651
9.41653
7.33696
5.26625
4.09836
3.04508
3.08791
2.48339
1.82511
1.439
2.97456
3.03126
2.44794
1.80053
1.41809
2.16481
2.21912
1.80325
1.33427
1.05525
5.88179
5.87818
4.65187
3.37083
2.63399
1485.61
1103.84
680.752
441.782
478.759
825.643
570.394
343.646
214.665
178.889
417.783
320.44
203.418
131.595
100.775
287.942
199.416
118.55
71.6804
53.628
99.0261
69.0149
40.6063
23.9238
17.2811
51.157
44.5773
31.1805
20.7322
15.564
131.058
105.525
69.3256
44.6699
33.4005
39.2106
32.7446
22.1303
14.3162
10.5561
20.6334
18.9572
13.8678
9.45955
7.15129
23.3822
20.9192
14.9507
10.0192
7.49792
11.9681
11.2796
8.43664
5.82818
4.42089
1371.04
1029.21
645.661
431.054
479.193
318.674
257.936
170.837
113.451
87.3022
52.6265
47.2604
33.9146
23.0259
17.4953
48.945
44.5548
32.3629
22.177
16.9299
118.788
102.616
71.4337
48.0938
36.7297
76.329
69.3732
50.129
34.3436
26.2227
34.3224
32.3932
24.2258
16.94
13.0258
25.2488
24.0604
18.1631
12.7284
9.78342
7.03563
6.90363
5.36715
3.82482
2.95513
6.53566
6.46794
5.07095
3.64301
2.83065
19.202
18.0532
13.4837
9.35412
7.14334
20.2649
19.2515
14.5152
10.1523
7.7923
1520.29
1094.35
691.292
475.549
524.138
553.887
426.884
279.849
189.892
149.6
708.211
584.972
367.119
246.66
204.247
239.143
203.834
139.524
94.6602
72.7115
127.746
114.007
80.7421
55.0387
41.9921
347.905
290.258
191.438
128.099
97.2573
33.2397
31.3727
23.4671
16.3807
12.5795
9.59936
9.39979
7.29012
5.2034
4.03341
45.0382
41.656
30.6165
21.129
16.1572
26002.5
18603.6
26922.5
22609
29674.9
51777.4
33401.9
55400.6
27028.8
22313.4
25913.7
22676.7
24577.2
21102.6
36851.6
25930.3
22971.9
24970.4
10367.9
9887.92
26380.5
24962
14286.7
10755.3
38546.9
39305.9
29524.5
22385
36189.6
23938.2
17932.1
17411
21070.4
21228.3
53822.9
60020.1
30890.2
34578.8
35859
27502.7
30052.7
18220.3
13907.5
11804.9
31662.1
41730.2
12629.2
16880.1
32924
46370.3
16670.2
23602.8
26901.6
46939.6
16616.7
30544
3866.24
18957.5
-98.9162
12698.5
19464
18632.6
20780.5
19909.3
17730.2
14931.7
20945.4
16138.1
25532.5
28005
27089.3
26321.2
21563.3
20629.8
21189.1
20879.5
23091.2
16949
24132.2
17359.3
23455.5
28624.7
20596.3
28682
37697.5
50540.7
44839.2
82810
40010.5
61060
44378.2
92383.4
35059.9
43136
44525
77707.5
33216.1
38459.4
44396
75276.7
42996.8
46829.9
62600
90877.8
39717.5
40280.8
64381.2
89868.3
32635.5
31080.4
64930
86043.8
18801.8
14558.4
27500.8
39403
75907.1
14142.4
15730.5
26915.4
33366.2
88385.5
13198.7
16685.1
22410.7
39356.3
107023
17126.8
12011
15609.4
23343.9
16771.7
12266.3
16299.6
24111.4
15347.7
10497.6
16882.3
24665.2
11449.1
8057.83
13143.2
9216.1
20104.3
13406.1
19812.4
13280.3
19197.3
28062.6
10833.4
7271.32
13610
9641.09
17625.3
12206.2
23087.1
15478.3
20731.2
27940.3
15356.9
13142.8
15886.3
14129.9
11612.9
8602.92
12129.8
9352.74
19517.2
16473.2
19995.5
16251.9
15953.2
14368.2
16053.7
14536.8
12454.2
9843.71
12603.9
10034
18449.8
15750.9
18823
15964.5
23821.1
20097.2
18301.7
23015.3
25067.2
20329.5
19437.4
24491.9
22130
19032.8
17667.4
22358.6
21628.4
18429.2
16880.8
21394.4
8765.83
8796.13
3639.71
3342.73
8929.96
7477.28
4706.86
4324.53
6713.61
4913.34
5935.22
4613.81
5263.23
3180.83
6259.96
4070.45
7460.45
4779.07
8089.02
5148.08
8383.65
4441.67
4554.04
2736.13
6272.17
3748.09
6963.12
3905.56
7682.25
4300.89
6710.84
2924.94
20113.1
17589.4
29313.3
22279.2
25930.5
21391.9
42105.1
28364.6
14673.6
8927.93
18275.6
10846.2
14745.3
8992.13
18704.8
10995.3
18141
13965.4
14800
12244.7
12222.6
15246.8
26851
30604.9
34032.1
39123.4
20084.1
23077
16804.3
18664.1
16925.3
18030.4
5473.38
2891.14
6626.47
3290.61
5416.58
2817.08
6594.13
3192.46
5326.63
2576.63
6665.8
3130.2
7399.87
3460.55
7736.59
3629.99
11668.9
8200.48
14794.2
9297.75
16189.5
12347.5
20181.9
13821.9
11544.2
5832.02
9251.92
5138.52
17162.5
10119
19071.3
10594.2
23228
14889.3
25169.6
15492.5
12752.4
6348.81
13742.8
6648.55
5190.7
2407.62
3421.45
1560.05
4196.4
2048.96
3009.91
1390.81
5816.15
2698.72
3715.95
1682.42
6219.73
2921.68
3880.16
1750.59
3824.16
3182.21
2214.19
1756.17
3669.36
3153.83
2100.5
1676.8
3448.32
2968.24
1835.47
1471.03
8061.66
12119.5
6016.67
3095.81
1617.22
11489.6
8412.02
5950.22
2831.5
1350.1
10817.1
7163.9
4511.28
2654.93
1237.76
2672.42
1926.81
1448.94
1067.8
2609.46
1792.37
1371.89
993.521
2391.33
1583.45
1166.17
808.953
9106.08
5761.94
5922.81
3548.08
4163.17
2643.61
2241.34
1427.1
1092.99
747.531
7825.54
4494.26
5065.06
2701.14
3273.43
1789.16
1923.3
1086.32
974.244
663.573
4478.11
2131.21
4735.76
2048.39
6980.57
3534.86
7554.6
3719.64
3047.81
1379.77
2991.88
1473.99
5205.09
2004.12
5462.08
2099.83
8362.34
3997.62
8625.76
4145.62
3184.25
1330.18
3346.91
1424.04
1709.82
831.853
871.227
626.693
1769.12
902.719
948.133
648.96
1722.23
810.026
830.949
636.783
1856
856.383
892.537
639.358
1350.13
902.267
885.029
616.523
1216.87
788.76
804.055
541.743
1023.79
630.328
637.373
402.973
3222.81
1881.54
1998.25
1116.36
1572.65
894.278
795.019
412.927
566.827
316.549
2229.06
1277.09
1246.66
687.591
843.834
453.896
537.678
270.453
519.679
247.615
855.958
186.899
38.3748
7.44829
952.616
206.136
41.8488
8.16049
800.394
177.079
36.7173
7.21978
920.075
200.516
41.8762
8.45198
711.364
160.826
36.2284
7.4277
863.681
192.641
43.8129
9.20094
913.255
198.481
40.3602
7.97872
941.495
201.983
38.83
7.31955
690.563
156.784
36.1463
7.52121
471.723
110.223
26.1858
5.34647
589.519
135.438
32.8804
7.09842
431.102
101.855
24.6682
5.08411
760.624
170.789
36.9965
7.39014
501.774
116.423
26.7367
5.33072
803.04
178.797
37.4024
7.31998
518.033
119.964
27.2326
5.42357
696.739
155.892
33.5913
6.60897
544.175
122.315
27.4818
5.27789
638.856
146.171
32.1894
6.39201
500.531
115.413
26.28
5.08599
558.474
131.416
30.5808
6.15909
441.947
105.813
24.6608
4.76625
469.587
110.431
26.657
5.48224
398.558
96.5449
23.4107
4.59454
392.834
93.4297
22.6736
4.63465
402.789
93.0617
18.5522
2.75031
261.336
76.5979
15.5251
2.20515
374.375
89.6537
18.3405
2.80399
243.705
73.5663
15.1844
2.18151
333.06
83.8709
17.3282
2.64753
217.592
68.895
14.3297
2.07622
320.552
80.2514
17.1538
2.71781
215.235
66.5535
13.9066
2.05388
321.08
78.7851
17.518
2.92278
225.052
65.444
13.5314
2.02098
317.483
78.1607
16.8686
2.68853
207.117
63.0716
13.3426
1.96873
324.556
78.5166
17.0345
2.75422
217.354
64.4645
13.3535
1.98059
313.424
77.8952
16.2479
2.50089
204.302
62.689
13.1279
1.90417
308.109
78.4918
16.3275
2.4927
210.019
63.3747
13.2115
1.90157
1.33859
0.26817
0.0512117
0.00927221
0.00134684
1.4559
0.284073
0.0531688
0.00949953
0.00136957
1.31918
0.262248
0.0501432
0.00911568
0.00132873
1.46715
0.280077
0.0522649
0.00936108
0.00135342
1.26239
0.250797
0.0485775
0.00892227
0.00130849
1.43059
0.272715
0.0512471
0.009236
0.00134047
1.42574
0.27615
0.0518988
0.00932654
0.00135027
1.37384
0.275261
0.0521285
0.00936522
0.00135338
1.25658
0.249875
0.0484931
0.00891852
0.0013088
0.964997
0.220622
0.0454042
0.00858534
0.00127656
1.14602
0.238495
0.0471849
0.00876475
0.00129281
0.917634
0.215931
0.0448401
0.00851357
0.00126858
1.28869
0.257584
0.0496191
0.00906302
0.00132415
0.973709
0.225259
0.0462062
0.00869926
0.00128949
1.27995
0.2586
0.0499402
0.00910889
0.00132806
0.972192
0.22669
0.046563
0.00875232
0.00129468
1.15931
0.244287
0.0483621
0.00894831
0.00131484
0.949047
0.223883
0.0462124
0.00871617
0.00129239
1.12178
0.237789
0.0473442
0.00880412
0.00129817
0.922951
0.219095
0.0454311
0.00860123
0.0012787
1.05312
0.227305
0.0459587
0.0086301
0.00127947
0.878552
0.212428
0.0444833
0.00847364
0.00126429
0.954218
0.217459
0.0449181
0.00851292
0.00126757
0.856437
0.211848
0.0443934
0.00845679
0.00126201
0.872399
0.21442
0.0446712
0.00848943
0.00126556
29209.6
37391.7
29266.5
37214.2
29491.9
36938.2
30102.3
37581.3
30634.6
39194.9
27664.9
31282.8
28470.9
33483.6
27472.4
30646.2
27530.4
30374.1
26379.5
4670.68
1291.56
548.828
183.342
27320.1
8465.1
2825.4
1292.93
447.136
26406.7
4545.62
1238.88
529.391
180.106
27288.9
8403.35
2772.46
1283
460.75
26432.4
4436.23
1188.44
509.027
175.54
27295.5
8320.43
2716.87
1262.84
460.459
26562
4293.64
1129.88
484.305
168.287
27395.8
8230.62
2670.07
1245.83
457.596
26675.9
4174.52
1098.55
475.4
166.291
27476.6
8174.71
2668.35
1257.07
464.221
25799.2
4783.69
1402.82
638.789
227.157
25457.3
8472.61
2975.98
1458.47
545.963
26123.8
4527.66
1265.13
562.273
198.283
26258.1
8339.54
2821.92
1353.02
502.403
25684.6
4965.6
1497.64
692.622
248.497
25190.1
8576.62
3079.17
1531.12
579.249
25752.9
4914.84
1482.58
687.289
248.557
25082.9
8540.47
3079.12
1532.56
587.582
41542.4
70244.6
61742.5
36564.8
23248.8
32877.5
21828.3
32023.8
30031.9
59019.6
34365.8
65922.1
0.0015319
0.00417328
0.0139151
0.046963
0.156276
0.50847
0.0036424
0.00927242
0.0285113
0.0874125
0.260664
0.751364
0.000606993
0.000303436
0.00184373
0.00101036
0.00706719
0.00432524
0.0282991
0.0198906
0.110558
0.0883138
0.408218
0.333261
1.61721
5.1254
16.5852
53.6498
117.492
185.122
2.0855
5.51709
13.7066
30.5602
54.4535
75.1215
0.00354618
0.00396494
0.00356157
0.00289769
0.00244654
0.0095998
0.0106063
0.00939213
0.00753175
0.00629292
0.031799
0.0347017
0.0302844
0.0239368
0.0197941
0.106536
0.11468
0.0985109
0.0766882
0.0627469
0.351408
0.372183
0.313933
0.240313
0.194406
1.13102
1.17441
0.969609
0.728478
0.582279
0.00838703
0.0092838
0.0082396
0.00662274
0.00554282
0.0212078
0.0231838
0.0202768
0.0160633
0.0133056
0.0647654
0.0699037
0.0602453
0.047052
0.0385878
0.197106
0.209877
0.178135
0.137156
0.111398
0.582851
0.611206
0.510177
0.386994
0.31125
1.66378
1.71446
1.40485
1.04907
0.835521
0.00141497
0.00159986
0.00145452
0.0011983
0.00102115
0.000710536
0.000810494
0.000745131
0.000621096
0.000533756
0.00426972
0.00476935
0.00427338
0.003468
0.00292287
0.00235026
0.00264775
0.00239734
0.00196649
0.00167011
0.0162499
0.017914
0.0158023
0.0126226
0.0105169
0.00998622
0.0110943
0.00987697
0.00796197
0.00667637
0.0645286
0.0700479
0.0606906
0.0476284
0.0391868
0.0455122
0.049722
0.0433959
0.0342904
0.0283427
0.24959
0.265978
0.225647
0.173592
0.140878
0.199951
0.214199
0.182732
0.141229
0.114928
0.910403
0.948755
0.78534
0.591051
0.472809
0.746012
0.78258
0.652011
0.492999
0.395299
3.54801
3.59419
2.89249
2.12877
1.68079
11.0496
10.8511
8.4711
6.09927
4.76096
34.9489
32.9726
24.8105
17.4672
13.5098
109.658
98.1154
70.6206
48.719
37.5382
231.311
195.552
136.089
93.0717
72.1559
357.222
292.441
199.601
136.009
105.564
4.56561
4.61029
3.7008
2.71886
2.14502
11.9169
11.7539
9.22301
6.66519
5.21356
29.1388
27.9634
21.4018
15.2211
11.8234
63.7661
59.3061
44.2154
31.0049
23.9805
111.424
100.508
73.3266
50.9509
39.3835
151.884
134.421
96.7888
66.9294
51.709
0.00153102
0.00417543
0.0139315
0.047047
0.156552
0.508856
0.00363771
0.00925808
0.0284591
0.0872263
0.259962
0.748835
0.000608116
0.000304416
0.00185184
0.00101901
0.0071218
0.00439009
0.0286208
0.0203642
0.112069
0.0914985
0.413818
0.354135
1.61484
5.10549
16.4903
53.2857
116.86
184.756
2.07692
5.49074
13.6361
30.4073
54.2499
75.0177
0.0035459
0.00396662
0.00356406
0.00290064
0.00244971
0.00960709
0.0106193
0.00940909
0.00755019
0.00631154
0.0318466
0.0347744
0.0303703
0.0240248
0.0198804
0.106766
0.11501
0.0988841
0.0770589
0.0631048
0.352175
0.373309
0.315229
0.241613
0.195668
1.1324
1.17697
0.972962
0.732095
0.585928
0.00837957
0.00927947
0.00823788
0.00662334
0.00554472
0.0211806
0.0231645
0.0202704
0.0160674
0.0133152
0.0646674
0.069835
0.0602222
0.047066
0.0386212
0.196756
0.209627
0.17804
0.137187
0.111495
0.581505
0.610177
0.509675
0.386935
0.311431
1.65883
1.71046
1.40258
1.0483
0.835583
0.00141766
0.00160316
0.00145793
0.00120149
0.00102409
0.000712915
0.000813395
0.000748018
0.000623704
0.000536131
0.00428964
0.00479409
0.00429835
0.00349079
0.00294376
0.00237102
0.0026725
0.00242131
0.00198759
0.00168899
0.0163812
0.0180714
0.0159558
0.0127583
0.0106388
0.0101396
0.0112726
0.010045
0.00810601
0.00680308
0.0652915
0.0709426
0.0615433
0.0483673
0.039842
0.0466179
0.0509792
0.0445515
0.0352581
0.0291809
0.253149
0.27011
0.229544
0.176938
0.14383
0.207285
0.222346
0.190037
0.147209
0.120032
0.923748
0.964382
0.800088
0.603727
0.484014
0.793428
0.833839
0.696511
0.52835
0.424852
3.5446
3.59442
2.8967
2.13545
1.68859
11.011
10.8233
8.46108
6.10285
4.77151
34.7604
32.8209
24.7279
17.4396
13.5117
108.925
97.4951
70.2298
48.5142
37.4361
230.02
194.41
135.294
92.5676
71.8238
356.466
291.752
199.097
135.667
105.321
4.54851
4.59584
3.6918
2.71469
2.14356
11.8638
11.7079
9.19292
6.64926
5.20567
28.996
27.8385
21.3178
15.1733
11.7964
63.455
59.0305
44.0249
30.8893
23.9081
111.006
100.13
73.0546
50.7735
39.2615
151.668
134.222
96.6424
66.8301
51.6375
1044.22
483.082
4.43512
1.39737
1.53684
1.06192
2.77816
789.845
489.191
227.174
219.52
29.5833
77.9109
13.2486
20.8819
9.04812
732.038
163.984
27.0924
24.1417
59.4246
36.8249
16.1634
12.0396
4.52717
3.60401
10.3037
10.0252
846.882
294.564
343.327
118.343
61.6522
172.342
15.7598
4.65296
21.7624
1822.19
1276.11
812.628
562.348
600.351
878.924
650.311
418.304
284.649
224.658
9.59466
9.4583
7.39316
5.32713
4.15993
3.0737
3.12392
2.51921
1.85735
1.46843
3.39162
3.46915
2.81587
2.08468
1.65166
2.35058
2.41641
1.97114
1.4654
1.16377
6.06848
6.08968
4.84474
3.53206
2.77434
1465.79
1122.51
712.083
476.748
528.794
895.933
667.254
428.858
288.861
258.845
433.377
343.524
225.801
151.958
120.631
414.458
317.923
202.334
134.844
112.91
60.4495
54.1257
38.9774
26.8487
20.8671
153.165
128.117
87.4453
59.1294
46.4958
27.8063
26.0746
19.5162
13.6927
10.6374
43.2327
39.5836
29.0104
20.1246
15.6189
19.2162
18.3888
14.0087
9.92494
7.72487
1346
1018.38
645.145
436.317
491.251
318.903
261.298
175.627
118.664
92.7722
55.9462
50.9736
37.204
25.7649
19.9343
50.1261
46.0852
33.8835
23.5505
18.2062
119.772
104.583
73.7627
50.4297
39.0468
76.4043
69.8193
50.807
35.1079
27.0171
34.2148
32.3796
24.3041
17.0729
13.1834
25.6356
24.5683
18.6825
13.2062
10.2282
9.79211
9.67246
7.5889
5.47984
4.29083
7.83277
7.79871
6.16306
4.47206
3.50696
21.8383
20.8205
15.8084
11.1786
8.68501
21.3277
20.4521
15.5985
11.0552
8.58366
1504.46
1081.06
682.593
470.215
520.526
549.407
423.187
277.396
188.379
148.674
698.959
579.279
365.171
246.994
206.089
236.953
202.207
138.678
94.3705
72.7229
126.864
113.548
80.741
55.3294
42.429
345.087
289.457
192.291
129.858
99.49
33.3696
31.6311
23.7942
16.7227
12.9208
10.0564
9.90479
7.73842
5.57008
4.34891
45.5835
42.4538
31.4781
21.9514
16.9433
23.2746
29.9281
43.6027
60.9568
68.574
33.6923
22896.8
23967.7
22421.7
24397.4
22409.7
19213.6
19611.4
17226
24135.2
40088.8
26732.3
38180.5
37682.7
20315.2
49473.6
18641.7
19755.8
18659.5
19855.6
18810.8
17598.2
16657.3
15500.8
24028.5
51542.5
26783.2
48026.8
38066.5
26381.4
56156.3
14277.1
15141.3
13471.4
13933.3
14974.1
15199.2
12491.3
12511.1
24792.2
41465.4
27590.8
39988.1
34754.9
28249.2
45631
10267.8
10793
8682.94
8835.76
11014.2
11745.5
8216.55
8738.34
18449.6
30801.5
20124.8
28421.6
24174.4
19705.4
32092.7
7141.76
7491.02
5534.61
5603.04
7881.52
8498.38
5230.73
5652.99
12883.8
19295
14003.1
16718.2
15334.9
11031.4
17856.1
5060.8
5263.9
3590.8
3644.83
5119.4
4945.25
3346.03
3390.72
8146.05
10856.6
8727.13
9110.19
9156.98
5397.53
9579.05
17710.7
16547.7
20973.6
23510.6
15579.2
14378.1
18163.5
16496.6
12027
5461.55
12124.2
5365.9
10875.5
8571.59
7676.78
14819.6
14085.7
17029.8
18655.7
13293.5
12359.9
15048.6
13867.4
8637.75
4032.09
8580.12
3930.98
7318.37
6315.62
5273.02
9988.65
9557.35
11725.4
12473
9097.59
8470.44
10708.6
10264.4
5592.69
2793.33
5514.96
2661.62
4902.46
3792.33
3908.9
5557.6
5379.79
7013.06
7306.1
5092.81
4655.36
6633.89
6353.07
2650.4
1260.68
2606.58
1271.96
2279.83
1726.92
2163.72
3005.83
2935.39
4119.5
4256.22
2696.88
2446.5
3916.57
3623.58
1176.15
627.86
1192.12
803.05
1214.05
1198.27
1393.96
1565.16
1543.28
2438.7
2515.22
1521.66
1501.76
2309.31
2216.28
675.404
578.664
743.71
733.965
842.585
920.415
1072.62
19845.7
10590.8
33313.8
22476.6
31820.6
28464.9
42326.3
57441.9
66389.2
90989.7
37185.1
34415
22872.1
16470.9
15510.9
8620.13
28058.1
19029.1
26741.5
21466.4
30048.2
23733.7
38460.8
27088.8
11294.9
7941.6
5926.07
4553.99
15217.1
9847
8398.32
6018.53
37083.3
35960.9
27257
16857.7
22657.4
19459.7
17941.2
17290.6
20462
21012.8
53419.8
59696.6
31122.7
34543.7
34459.5
27126.4
28385.2
17848.9
12689.7
11555.1
13801.4
26012.8
6896.26
11187
17648.3
33746.6
11484.6
18623.5
16310.6
38883
12841.2
26689.6
3200.22
17570.9
-153.349
12425
16350.6
18719
20012.2
19866.9
18108
15473.1
21413.2
16473.4
23496.1
27553.7
21333.4
25872.5
21233.7
20587.3
21111.1
20865
23276.1
17112.6
24168.4
17410.5
22658.9
28355.2
20417.2
28594.4
36061.4
48149.9
43916
81500
37432.4
56868.2
43022.9
90141.2
34258.7
42006.4
44021.3
77021.4
32995.1
38151.7
44234
75057
14126.4
18384.1
39399.7
67248.9
16006.3
18180.3
46686.9
72132.5
17246.9
17438.5
53886
75585.7
25511.4
18088.1
31732.3
38573.5
70625.7
17697.9
22419.9
30303.6
32926.3
82598.2
15528.2
19583.4
23879.2
38104.3
103621
2673.89
3296.07
6931.32
19094.2
4047.53
5022.34
9435.66
20838.2
5870.48
4634.93
12714.3
22812.9
14288.3
10233.8
17202.1
11757.6
21578.9
13696.2
19176.7
12628.1
17251.9
27448.3
12369.5
8007.44
15458.3
10430.4
18592.2
12528.8
22494.6
15124.9
19926.5
28060.8
15953.1
13547.2
16083.6
14315.9
12261.7
8957.92
12442.7
9546.73
19470.3
16516.7
20194.3
16436.7
16013.8
14450.1
16066.6
14559.6
12589.4
9937.44
12641.8
10061.5
18393.6
15760
18804.6
15966.7
23566.2
20006.8
18020.6
22856.9
24714.5
20217.4
18907.8
24246
21989.9
18976.9
17528.7
22271.8
21577.7
18408.8
16831.7
21365
1962.61
906.221
373.596
875.997
375.264
236.8
3269.46
1133.48
456.579
2212.28
1139.8
438.549
2823.36
1210.79
627.152
4094.82
1819.17
792.313
5582.99
2153.42
835.55
6412.53
2630.92
1080.67
6069.98
2528.77
1115.34
6263.73
2742.14
1207.76
6781.5
2300.65
779.099
4279.4
1712.62
678.474
5676.03
2240.93
898.658
5987.21
2168.86
842.878
6299.82
2372.27
945.792
6246.85
1970.18
624.485
27224.7
24472.6
32050.6
25363.2
31657.8
26616.8
42409.7
30153.5
13383.7
11226.4
14068.1
10787.7
18944.8
12948.5
20000
12303.6
21740.1
20764.7
17599
18057.9
18539.6
17995.7
28310.8
31028
34796.4
39320.2
21674
23517.7
18195
19039
18414.4
18483.2
7551.81
3162.62
7412.27
3600.24
7883.05
3196.91
7641.35
3553.07
7664.5
2933.56
7746.69
3472.17
8042.47
3703.09
7949.5
3716.17
15278.7
9101.79
16504.8
9949.36
19102.3
13591.6
21539.7
14557.4
13251.2
6281.69
12603.5
5629.5
18014.2
10476.2
19316.2
10707.8
23848.7
15258.6
25337.9
15604.3
13627.3
6619.01
14004
6738.22
5783.79
2589.59
3648.04
1625.34
4886.88
2167.46
3177.05
1401.01
6162.13
2830.46
3871.53
1737.57
6326.49
2967.41
3934.92
1771.73
834.789
311.611
1240.65
520.243
865.593
361.578
1263.99
585.969
910.748
489.593
1225.32
689.795
4990.39
10787.9
2911.2
2377.62
1302.13
10473.6
5127.45
2163.15
1773.59
860.218
10405.2
6137.61
3778.15
2235.94
1056.1
122.666
57.7295
245.565
139.306
166.245
72.3167
314.471
179.676
258.346
120.654
408.811
243.834
9103.84
5980.83
4274.2
2507.84
1976.1
1126.45
1274.56
699.168
619.11
376.761
7884.47
4619.32
4488.36
2435.26
2669.32
1425.25
1498.6
796.416
775.505
503.471
4583.58
2129.65
4908.63
2089.52
7305.61
3653.27
7808.5
3805.55
3155.7
1400.95
2995.42
1425.55
5324.52
2034.79
5502.64
2110.4
8506.76
4045.29
8670.87
4160.2
3268.55
1353.68
3376.88
1432.94
1757.22
838.528
882.378
624.679
1727.56
848.412
905.372
598.859
1766.96
824.102
847.108
644.77
1873.57
862.292
900.132
643.306
31.5481
10.6914
3.40181
101.636
22.4105
7.46255
29.6752
12.6646
4.19654
122.369
28.8839
9.84106
52.4501
22.7664
8.45116
153.352
40.3086
14.0518
2817.18
1069.08
420.81
1145.7
424.543
166.913
536.286
192.252
75.1684
296.529
98.1466
36.3009
215.266
60.6493
20.8923
2086.22
768.439
283.903
1008.6
350.593
126.028
578.528
189.622
64.5155
333.295
103.409
33.9234
312.301
77.5415
25.3982
818.664
168.759
33.806
6.42699
972.74
198.655
38.8304
7.34221
780.468
162.02
32.8309
6.33481
952.532
196.434
39.654
7.78766
703.916
149.703
33.077
6.66403
900.036
191.691
42.3903
8.69713
947.152
200.194
39.8607
7.74963
955.007
203.022
38.7401
7.25584
709.746
155.987
35.2245
7.19356
476.084
108.62
25.4265
5.11583
578.944
128.044
30.6153
6.50493
415.036
95.4705
22.9361
4.68008
780.953
172.084
36.7426
7.24237
509.929
116.63
26.4835
5.22361
810.957
179.514
37.3648
7.27924
521.654
120.223
27.1822
5.39409
495.363
118.343
26.423
5.25315
266.123
72.6035
18.348
3.75112
471.9
113.351
25.7867
5.16655
267.049
71.9173
18.1439
3.70884
436.427
105.526
25.2067
5.10884
278.625
73.2066
18.2883
3.6717
389.783
92.4312
22.7577
4.7031
282.441
72.1168
18.4683
3.74044
336.671
80.2316
19.7125
4.07246
131.992
42.6109
10.402
1.70268
62.4575
29.8538
7.49599
1.17939
144.851
45.3098
10.9621
1.81668
72.7158
32.4272
7.97808
1.24796
166.543
49.6659
11.5401
1.8637
90.69
36.8174
8.62424
1.32706
202.239
55.5838
12.7073
2.08509
119.754
43.2871
9.69008
1.48341
256.548
64.455
14.6159
2.46224
163.163
50.8246
10.7957
1.63197
314.818
75.9979
16.1281
2.54495
203.488
60.8879
12.7222
1.86244
301.902
71.7861
15.402
2.47834
196.137
57.7797
11.9074
1.76008
316.158
77.6132
15.9971
2.44301
205.684
62.3545
12.9367
1.86492
309.553
78.5512
16.2762
2.47801
210.896
63.3999
13.1754
1.89225
1.13428
0.22599
0.0431251
0.00781942
0.001138
1.2748
0.244829
0.0454765
0.00810239
0.00116768
1.13751
0.225109
0.0430154
0.00783056
0.00114338
1.31631
0.247011
0.0457459
0.00817111
0.0011808
1.10983
0.21952
0.0425196
0.00781976
0.00114836
1.32153
0.248583
0.0464141
0.0083409
0.00120928
1.36854
0.263375
0.0492426
0.00881905
0.00127439