/*--------------------------------*- C++ -*----------------------------------*\
| =========                 |                                                 |
| \\      /  F ield         | OpenFOAM: The Open Source CFD Toolbox           |
|  \\    /   O peration     | Version:  2412                                  |
|   \\  /    A nd           | Website:  www.openfoam.com                      |
|    \\/     M anipulation  |                                                 |
\*---------------------------------------------------------------------------*/
FoamFile
{
    version     2.0;
    format      ascii;
    arch        "LSB;label=32;scalar=64";
    class       volScalarField;
    location    "0.2";
    object      T;
}
// * * * * * * * * * * * * * * * * * * * * * * * * * * * * * * * * * * * * * //

dimensions      [0 0 0 1 0 0 0];

internalField   nonuniform List<scalar> 
5712
(
505.307
540.089
483.044
523.25
455.664
499.565
418.939
463.452
426.456
471.088
461.43
507.658
478.694
522.372
495.684
534.799
437.446
405.476
471.014
422.09
404.127
374.935
433.614
387.546
516.977
526.973
546.432
551.583
497.583
510.08
531.542
539.332
497.76
469.517
447.087
430.037
491.531
517.514
508.743
519.602
437.825
451.651
474.63
485.004
401.397
412.171
525.389
536.092
466.648
485.841
544.332
557.237
534.074
555.829
556.287
566.141
517.215
548.921
544.398
561.471
495.008
537.123
520.136
551.118
536.934
557.458
546.875
561.299
376.047
350.27
390.587
356.516
345.173
326.707
356.475
331.749
426.874
386.623
410.732
378.564
400.553
360.498
406.178
362.299
364.608
334.904
369.079
336.293
438.149
391.794
444.35
394.086
471.905
533.649
430.906
502.388
455.159
521.878
420.121
492.159
482.883
539.336
437.177
508.088
488.536
541.694
439.822
511.36
515.451
480.769
544.826
518.788
495.921
462.129
535.984
507.273
469.492
437.415
520.732
489.686
346.056
316.333
385.931
430.887
499.313
314.334
341.462
374.287
412.718
471.608
313.908
338.724
367.828
405.136
471.552
416.314
367.724
422.702
375.044
408.482
362.088
420.852
373.284
396.311
354.743
416.967
370.84
305.86
293.838
328.577
310.062
354.64
327.485
381.967
346.038
413.579
369.099
305.126
292.708
325.197
307.36
348.321
323.477
376.633
342.972
411.552
367.641
326.113
311.807
326.438
312.849
306.226
291.745
306.757
291.731
349.458
333.471
349.503
331.867
326.572
313.031
327.26
313.717
307.435
291.845
308.112
292.387
348.959
333.318
349.829
334.203
378.898
359.056
414.393
390.614
379.698
357.061
415.356
387.654
376.843
357.928
412.315
389.885
377.443
358.371
410.873
388.623
323.473
296.024
284.252
326.577
297.194
284.874
320.808
294.198
283.094
325.589
296.058
283.86
315.366
290.71
280.903
323.88
294.099
282.356
282.665
276.645
274.434
291.713
280.16
275.831
301.087
283.894
277.35
310.343
287.848
279.183
321.473
291.964
280.726
281.937
276.286
274.224
290.688
279.876
275.691
299.114
283.116
276.951
308.197
286.376
278.189
317.884
289.87
279.527
335
321.395
340.59
325.516
365.53
344.359
379.725
352.596
308.21
295.078
309.332
295.978
310.392
296.323
311.894
297.449
311.362
308.877
310.161
305.754
296.525
298.573
328.485
331.587
359.125
364.861
312.773
314.343
312.021
313.256
299.995
300.504
284.507
276.986
286.43
277.697
285.368
276.885
287.232
277.642
285.793
276.659
288.273
277.628
289.34
277.909
289.753
277.999
302.928
292.996
307.796
295.533
320.596
306.679
328.683
310.559
294.545
285.81
291.006
284.18
310.536
296.892
312.02
297.401
333.776
312.77
336.581
313.65
296.129
286.637
296.772
286.914
284.954
276.679
279.845
275.426
282.776
276.011
278.942
275.106
286.04
277.061
280.328
275.598
286.454
277.242
280.504
275.646
278.002
275.292
275.441
274.333
278.367
275.633
275.376
274.36
278.751
276.339
275.27
274.463
288.421
298.004
282.471
278.857
275.048
296.302
286.384
280.048
277.048
274.506
296.477
287.032
281.084
277.555
274.706
274.057
273.499
273.683
273.341
274.345
273.656
273.758
273.397
274.896
274.002
273.895
273.503
290.615
283.201
282.406
278.051
277.958
275.756
275.731
274.513
274.08
273.657
290.481
282.845
283.025
278.424
278.609
276.035
276.075
274.664
274.307
273.834
284.335
278.623
284.871
278.717
291.863
282.528
292.844
282.448
279.773
276.389
279.456
276.276
285.239
278.719
285.566
278.948
293.791
282.258
294.39
282.596
279.943
276.439
280.096
276.564
276.489
274.91
274.576
273.965
276.483
274.81
274.511
273.935
276.446
274.98
274.584
273.975
276.631
275.034
274.588
274.022
273.177
273.054
273.018
273.088
273.025
273.008
273.249
273.077
273.026
273.11
273.032
273.01
273.39
273.119
273.04
273.152
273.044
273.014
277.33
274.545
273.59
275.098
273.723
273.271
274.118
273.371
273.135
273.59
273.182
273.061
273.204
273.06
273.019
277.036
274.372
273.49
275.143
273.688
273.234
274.171
273.361
273.117
273.618
273.186
273.06
273.251
273.072
273.021
273.872
273.164
273.031
273.005
274.026
273.189
273.035
273.006
273.84
273.159
273.03
273.005
274.016
273.189
273.036
273.006
273.775
273.148
273.03
273.005
273.989
273.186
273.037
273.006
274.036
273.196
273.037
273.006
274.052
273.2
273.037
273.006
273.807
273.156
273.032
273.006
273.564
273.113
273.023
273.004
273.663
273.129
273.027
273.005
273.496
273.1
273.02
273.004
273.891
273.172
273.034
273.006
273.605
273.121
273.024
273.004
273.93
273.18
273.035
273.006
273.624
273.125
273.025
273.005
273.614
273.123
273.024
273.004
273.379
273.082
273.017
273.003
273.589
273.119
273.024
273.004
273.376
273.081
273.017
273.003
273.548
273.111
273.023
273.004
273.382
273.082
273.017
273.003
273.48
273.098
273.02
273.004
273.376
273.08
273.017
273.003
273.417
273.086
273.018
273.004
273.225
273.054
273.01
273.002
273.158
273.042
273.008
273.001
273.238
273.057
273.011
273.002
273.171
273.045
273.008
273.002
273.261
273.061
273.011
273.002
273.194
273.049
273.009
273.002
273.291
273.065
273.012
273.002
273.227
273.055
273.01
273.002
273.336
273.072
273.014
273.003
273.266
273.061
273.01
273.002
273.396
273.083
273.015
273.003
273.318
273.071
273.012
273.002
273.374
273.079
273.014
273.003
273.302
273.067
273.011
273.002
273.405
273.086
273.015
273.003
273.326
273.074
273.012
273.002
273.41
273.088
273.015
273.003
273.331
273.075
273.012
273.002
273.001
273
273
273
273
273.001
273
273
273
273
273.001
273
273
273
273
273.001
273
273
273
273
273.001
273
273
273
273
273.001
273
273
273
273
273.001
273
273
273
273
273.001
273
273
273
273
273.001
273
273
273
273
273.001
273
273
273
273
273.001
273
273
273
273
273.001
273
273
273
273
273.001
273
273
273
273
273.001
273
273
273
273
273.001
273
273
273
273
273.001
273
273
273
273
273.001
273
273
273
273
273.001
273
273
273
273
273.001
273
273
273
273
273.001
273
273
273
273
273.001
273
273
273
273
273.001
273
273
273
273
273.001
273
273
273
273
273.001
273
273
273
273
273.001
273
273
273
273
436.188
422.893
436.209
423.263
435.826
423.5
434.973
422.809
433.659
421.163
431.132
422.198
432.804
422.759
429.368
420.739
428.739
420.36
535.592
555.816
560.889
562.914
563.933
503.048
537.93
548.725
553.412
555.855
536.844
556.659
561.541
563.476
564.478
504.097
538.929
549.541
554.127
556.645
537.951
557.478
562.182
564.032
565.009
505.205
539.954
550.388
554.87
557.381
539.16
558.252
562.746
564.501
565.437
505.868
540.515
550.804
555.212
557.707
539.728
558.407
562.78
564.499
565.425
505.479
540.034
550.318
554.757
557.29
531.783
552.842
558.352
560.644
561.909
498.155
533.453
544.785
549.894
552.868
535.464
555.551
560.554
562.579
563.684
501.914
536.929
547.75
552.514
555.254
529.098
550.854
556.716
559.189
560.573
495.508
531.047
542.718
548.049
551.197
529.181
550.731
556.543
558.986
560.37
495.013
530.415
542.119
547.41
550.611
345.779
394.155
389.023
342.882
320.665
322.95
328.675
332.839
341.956
347.457
372.102
385.27
379.076
392.162
351.554
356.704
340.776
344.834
331.07
333.972
282.752
277.666
273.062
273.021
273.02
273.015
273.039
280.877
277.243
275.207
274.472
273.508
273.296
273.712
273.218
273.125
273.138
273.074
280.37
274.752
273.313
273.295
273.685
273.458
273.214
273.159
273.046
273.043
273.119
273.127
281.122
275.994
276.882
274.364
273.754
274.931
273.207
273.062
273.275
278.808
276.338
274.933
274.026
273.327
275.971
274.78
274.013
273.52
273.156
273.047
273.031
273.019
273.009
273.003
273.016
273.011
273.006
273.003
273.001
273.015
273.011
273.006
273.003
273.001
273.011
273.008
273.005
273.002
273.001
273.03
273.02
273.012
273.006
273.002
277.799
275.671
274.497
273.773
273.259
275.463
274.338
273.728
273.365
273.116
274.427
273.842
273.465
273.232
273.071
273.846
273.453
273.24
273.117
273.036
273.292
273.154
273.08
273.038
273.012
273.207
273.129
273.073
273.036
273.011
273.474
273.285
273.157
273.077
273.023
273.148
273.091
273.05
273.024
273.007
273.09
273.058
273.033
273.017
273.005
273.098
273.062
273.035
273.017
273.005
273.054
273.036
273.021
273.01
273.003
277.542
275.567
274.462
273.764
273.255
274.175
273.714
273.401
273.201
273.061
273.223
273.142
273.081
273.04
273.012
273.212
273.136
273.078
273.039
273.012
273.478
273.299
273.17
273.085
273.025
273.329
273.211
273.121
273.061
273.018
273.157
273.103
273.06
273.03
273.009
273.117
273.077
273.045
273.023
273.007
273.034
273.023
273.014
273.007
273.002
273.032
273.022
273.013
273.007
273.002
273.087
273.057
273.033
273.016
273.005
273.094
273.062
273.036
273.018
273.005
277.903
275.8
274.618
273.858
273.28
274.955
274.184
273.674
273.344
273.105
275.612
274.502
273.848
273.432
273.125
273.946
273.587
273.334
273.168
273.05
273.536
273.339
273.194
273.097
273.029
274.321
273.8
273.45
273.226
273.066
273.152
273.099
273.058
273.029
273.009
273.047
273.031
273.018
273.009
273.003
273.2
273.129
273.075
273.037
273.011
432.838
514.83
418.176
495.892
389.229
468
401.757
487.481
401.722
380.629
458.003
410.819
373.406
353.349
422.835
377.531
457.696
482.65
527.149
537.233
445.73
470.395
513.751
526.035
483.726
433.652
436.071
405.73
461.062
505.639
504.383
518.635
432.642
450.307
470.419
483.871
396.549
410.768
521.088
535.232
461.97
484.698
541.153
556.738
510.044
547.9
547.905
563.376
494.59
541.789
536.054
558.797
477.043
531.554
511.869
548.445
533.888
556.378
546.261
561.061
365.376
345.632
383.892
353.149
336.247
322.98
350.712
328.794
420.356
383.426
400.143
373.781
397.203
358.615
405.241
361.684
361.608
333.194
368.215
335.725
434.971
390.054
443.466
393.524
466.621
531.773
428.432
501.371
446.03
518.565
416.051
490.428
480.388
538.437
435.881
507.57
487.857
541.441
439.409
511.202
479.304
444.126
533.145
506.467
463.375
430.058
526.085
496.921
444.909
414.413
513.369
482.311
345.623
320.862
378.869
419.789
494.867
320.234
341.826
366.601
399.982
466.381
316.379
337.375
363
399.352
468.923
389.139
350.668
410.819
369.073
383.821
346.36
410.864
368.112
377.472
342.355
409.865
367.022
309.325
295.945
327.451
308.621
347.668
322.402
371.997
339.514
408.812
366.432
306.619
293.512
324.066
306.842
344.8
321.871
372.468
341.172
409.013
366.529
324.281
310.912
325.01
312.114
305.408
291.61
305.737
291.391
347.905
332.569
347.048
330.504
325.76
312.604
326.995
313.579
306.775
291.604
307.887
292.303
348.141
332.834
349.57
334.052
377.6
358.2
413.544
389.975
377.334
355.654
413.839
386.597
376.194
357.479
411.897
389.567
377.228
358.227
410.758
388.532
325.617
313.564
338.182
324.452
322.089
308.995
336.574
320.449
317.696
303.633
334.031
314.352
285.807
280.383
294.463
285.76
303.813
291.692
314.665
299.023
330.556
307.681
283.436
278.951
293.024
284.737
302.229
290.054
312.797
295.763
324.742
302.279
317.153
309.478
330.823
319.032
342.189
328.012
369.789
344.35
302.527
290.607
308.267
293.881
301.456
290.91
307.914
294.634
306.487
299.618
305.708
298.167
291.245
295.6
324.953
330.498
354.807
363.519
309.891
313.372
309.457
312.413
298.085
299.832
283.771
277.181
285.412
277.617
284.184
276.998
285.935
277.5
284.467
276.709
286.901
277.453
288.346
277.741
289.387
277.931
298.892
291.869
304.6
294.227
314.221
304.367
324.183
308.419
292.686
285.176
289.109
283.838
308.703
296.03
311.463
297.099
331.303
311.457
335.844
313.203
294.975
286.168
296.403
286.742
284.191
276.587
279.614
275.409
282.345
276.073
278.951
275.192
285.476
276.961
280.12
275.559
286.26
277.203
280.423
275.629
281.364
279.612
276.411
275.667
281.537
279.782
276.2
275.509
281.41
279.761
275.897
275.301
292.413
303.638
285.023
280.227
275.464
303.541
292.013
283.989
279.229
275.115
300.122
289.522
282.521
278.329
274.989
278.095
276.535
275.001
274.316
278.257
276.612
274.907
274.262
278.232
276.537
274.761
274.172
295.884
286.903
287.177
281.535
281.52
278.475
277.848
276.174
274.698
274.16
293.149
284.4
285.275
279.904
280.08
277.091
276.915
275.301
274.632
274.141
284.532
278.933
284.563
278.675
291.825
282.787
292.261
282.328
279.652
276.39
279.702
276.533
284.958
278.633
285.46
278.912
293.333
282.124
294.225
282.544
279.796
276.392
280.037
276.543
276.468
274.927
274.592
273.985
276.686
274.986
274.626
274.037
276.392
274.959
274.572
273.97
276.604
275.023
274.581
274.019
275.371
274.75
273.61
273.456
275.484
274.734
273.593
273.425
275.257
274.418
273.553
273.362
280.478
277.133
277.688
275.605
276.113
274.759
274.835
274.047
273.531
273.305
278.352
275.928
276.237
274.731
274.935
274.031
274.088
273.603
273.458
273.246
273.968
273.187
273.036
273.006
274.068
273.205
273.039
273.007
273.919
273.179
273.035
273.006
274.038
273.2
273.04
273.007
273.833
273.164
273.033
273.006
273.995
273.193
273.04
273.007
274.029
273.198
273.039
273.007
274.047
273.2
273.037
273.006
273.812
273.16
273.033
273.006
273.573
273.116
273.024
273.005
273.702
273.14
273.03
273.006
273.529
273.108
273.022
273.004
273.885
273.173
273.034
273.006
273.605
273.122
273.024
273.005
273.926
273.18
273.035
273.006
273.623
273.125
273.025
273.005
273.808
273.158
273.031
273.005
273.634
273.127
273.024
273.004
273.758
273.15
273.03
273.005
273.599
273.121
273.023
273.004
273.682
273.137
273.028
273.005
273.55
273.113
273.022
273.004
273.573
273.117
273.024
273.005
273.502
273.104
273.021
273.004
273.485
273.101
273.021
273.004
273.485
273.101
273.017
273.003
273.399
273.088
273.014
273.003
273.467
273.098
273.017
273.003
273.384
273.086
273.014
273.002
273.438
273.094
273.017
273.003
273.36
273.082
273.014
273.002
273.419
273.09
273.016
273.003
273.348
273.079
273.013
273.002
273.41
273.087
273.016
273.003
273.342
273.077
273.013
273.002
273.408
273.087
273.016
273.003
273.329
273.075
273.013
273.002
273.409
273.087
273.016
273.003
273.337
273.076
273.013
273.002
273.407
273.087
273.015
273.003
273.327
273.075
273.012
273.002
273.41
273.088
273.015
273.003
273.331
273.075
273.012
273.002
273.001
273
273
273
273
273.001
273
273
273
273
273.001
273
273
273
273
273.001
273
273
273
273
273.001
273
273
273
273
273.001
273
273
273
273
273.001
273
273
273
273
273.001
273
273
273
273
273.001
273
273
273
273
273.001
273
273
273
273
273.001
273
273
273
273
273.001
273
273
273
273
273.001
273
273
273
273
273.001
273
273
273
273
273.001
273
273
273
273
273.001
273
273
273
273
273.001
273
273
273
273
273.001
273
273
273
273
273.001
273
273
273
273
273.001
273
273
273
273
273.001
273
273
273
273
273.001
273
273
273
273
273.001
273
273
273
273
273.001
273
273
273
273
273.001
273
273
273
273
430.818
418.62
431.56
419.537
432.321
420.656
432.56
420.835
432.219
420.01
430.653
421.77
431.947
422.009
429.133
420.531
428.671
420.301
534.865
555.72
560.877
562.912
563.934
501.92
537.747
548.699
553.409
555.855
536.215
556.576
561.53
563.475
564.478
503.106
538.768
549.519
554.125
556.644
537.469
557.413
562.175
564.032
565.009
504.431
539.826
550.37
554.867
557.38
538.828
558.208
562.74
564.5
565.437
505.324
540.425
550.791
555.21
557.706
539.528
558.38
562.777
564.498
565.424
505.138
539.976
550.31
554.756
557.289
531.709
552.83
558.351
560.643
561.908
498.039
533.433
544.781
549.893
552.867
535.336
555.533
560.552
562.579
563.683
501.705
536.893
547.744
552.513
555.252
529.061
550.848
556.715
559.188
560.572
495.453
531.037
542.717
548.048
551.196
529.171
550.729
556.543
558.986
560.37
494.998
530.412
542.119
547.41
550.611
344.323
392.539
383.829
338.011
322.505
333.473
320.181
332.999
349.944
379.659
355.801
384.498
273
273
273
273.001
273.003
273.008
273
273
273
273.001
273.004
273.012
273
273
273
273
273
273
273
273
273.002
273.001
273.006
273.005
273.024
273.072
273.219
273.654
274.327
275.007
273.031
273.078
273.186
273.395
273.672
273.903
273
273
273
273
273
273
273
273
273
273
273
273
273
273
273
273.001
273
273
273
273
273.002
273.001
273.001
273
273
273.006
273.004
273.003
273.001
273
273
273
273
273
273
273
273
273
273
273
273
273
273
273
273
273.001
273.001
273
273
273
273.003
273.002
273.001
273.001
273
273.009
273.006
273.004
273.002
273.001
273
273
273
273
273
273
273
273
273
273
273
273
273
273
273
273
273
273
273
273
273
273
273
273
273
273
273
273
273
273
273
273
273
273
273
273
273
273
273
273
273.001
273.001
273.001
273
273
273.001
273.001
273.001
273
273
273.005
273.003
273.002
273.001
273
273.004
273.003
273.002
273.001
273
273.018
273.013
273.008
273.004
273.001
273.054
273.036
273.022
273.011
273.003
273.161
273.106
273.062
273.031
273.009
273.467
273.298
273.172
273.087
273.026
273.916
273.575
273.329
273.166
273.05
274.359
273.842
273.481
273.243
273.073
273.023
273.016
273.01
273.005
273.001
273.059
273.04
273.024
273.012
273.004
273.138
273.091
273.054
273.027
273.008
273.288
273.188
273.11
273.055
273.017
273.482
273.311
273.18
273.091
273.027
273.64
273.41
273.237
273.119
273.036
273
273
273
273.001
273.003
273.008
273
273
273
273.001
273.004
273.011
273
273
273
273
273
273
273
273
273.002
273.002
273.006
273.006
273.024
273.072
273.218
273.65
274.32
275.002
273.031
273.078
273.185
273.393
273.67
273.902
273
273
273
273
273
273
273
273
273
273
273
273
273
273
273
273.001
273
273
273
273
273.002
273.001
273.001
273
273
273.006
273.004
273.003
273.001
273
273
273
273
273
273
273
273
273
273
273
273
273
273
273
273
273.001
273.001
273
273
273
273.003
273.002
273.001
273.001
273
273.009
273.006
273.004
273.002
273.001
273
273
273
273
273
273
273
273
273
273
273
273
273
273
273
273
273
273
273
273
273
273
273
273
273
273
273
273
273
273
273
273
273
273
273
273
273
273
273
273
273.001
273.001
273.001
273
273
273.001
273.001
273.001
273
273
273.005
273.004
273.002
273.001
273
273.004
273.003
273.002
273.001
273
273.018
273.013
273.008
273.004
273.001
273.054
273.036
273.022
273.011
273.003
273.16
273.105
273.062
273.031
273.009
273.464
273.297
273.171
273.086
273.026
273.911
273.571
273.328
273.166
273.05
274.355
273.84
273.48
273.243
273.073
273.023
273.016
273.01
273.005
273.001
273.059
273.04
273.024
273.012
273.004
273.137
273.091
273.054
273.027
273.008
273.286
273.187
273.109
273.055
273.017
273.48
273.31
273.18
273.091
273.027
273.639
273.409
273.236
273.119
273.036
282.714
277.651
273.063
273.021
273.023
273.016
273.041
280.97
277.884
275.367
275.26
273.361
273.867
273.173
273.263
273.122
280.299
274.779
273.339
273.306
273.7
273.462
273.214
273.163
273.064
273.052
273.138
273.136
281.036
275.97
276.848
274.354
273.752
274.929
273.209
273.066
273.281
278.781
276.322
274.924
274.022
273.326
275.961
274.773
274.01
273.518
273.156
273.047
273.032
273.019
273.01
273.003
273.016
273.011
273.007
273.003
273.001
273.018
273.012
273.007
273.004
273.001
273.012
273.009
273.005
273.003
273.001
273.031
273.021
273.013
273.006
273.002
277.983
275.84
274.627
273.855
273.29
276.033
274.743
274.001
273.526
273.174
274.572
273.954
273.542
273.276
273.086
274.436
273.822
273.467
273.244
273.081
273.258
273.165
273.095
273.048
273.015
273.595
273.369
273.21
273.107
273.033
273.127
273.083
273.048
273.024
273.007
273.19
273.123
273.071
273.036
273.011
273.09
273.06
273.035
273.018
273.005
277.532
275.585
274.486
273.783
273.263
274.205
273.74
273.421
273.213
273.065
273.244
273.158
273.091
273.046
273.014
273.222
273.144
273.083
273.042
273.013
273.492
273.311
273.179
273.09
273.027
273.333
273.215
273.124
273.062
273.019
273.157
273.103
273.06
273.03
273.009
273.12
273.08
273.047
273.024
273.007
273.048
273.033
273.019
273.01
273.003
273.039
273.027
273.016
273.008
273.002
273.102
273.067
273.04
273.02
273.006
273.1
273.067
273.039
273.02
273.006
277.847
275.769
274.602
273.85
273.278
274.939
274.174
273.669
273.342
273.104
275.597
274.499
273.85
273.435
273.127
273.94
273.584
273.333
273.168
273.05
273.536
273.34
273.195
273.098
273.029
274.326
273.808
273.457
273.231
273.068
273.154
273.101
273.059
273.03
273.009
273.049
273.033
273.02
273.01
273.003
273.205
273.134
273.078
273.039
273.012
273.016
273.054
273.106
273.184
273.289
273.407
392.685
383.068
357.974
366.531
369.644
357.112
346.502
333.672
418.243
446.511
410.076
436.466
398.81
381.652
426.546
371.275
364.637
343.005
349.039
354.289
345.327
334.265
325.094
392.104
410.874
386.969
404.748
378.281
365.458
398.01
341.963
338.549
322.231
325.498
332.533
328.17
317.07
312.026
357.749
372.708
355.195
369.6
350.748
343.79
365.837
315.227
313.667
302.672
304.229
310.537
308.52
300.031
297.455
327.389
339.951
326.104
337.514
323.499
319.12
334.685
298.433
297.657
290.373
291.156
295.808
294.572
288.922
287.322
307.25
316.856
306.6
315.498
304.972
301.8
313.152
288.545
288.097
283.197
283.62
286.884
286.017
282.358
281.41
294.925
302.885
294.465
301.848
293.209
290.731
299.612
312.349
309.637
331.389
336.451
306.198
300.473
324.481
314.778
296.301
285.642
294.956
285.546
292.026
290.929
285.414
306.045
303.757
321.629
325.509
300.835
296.12
316.033
308.474
291.286
283.405
290.122
283.517
287.896
287.273
283.442
296.753
295.208
307.499
309.848
293.233
290.243
303.943
299.403
287.224
281.489
286.485
281.443
285.002
284.619
281.254
287.391
286.509
293.655
294.861
285.234
283.361
291.724
289.041
282.266
279.115
281.802
278.904
280.876
280.469
278.588
281.347
280.878
284.901
285.519
280.21
279.149
283.86
282.314
278.702
277.273
278.421
276.991
277.872
277.518
276.627
277.824
277.576
279.821
280.144
277.231
276.619
279.258
278.389
276.606
275.885
276.421
275.615
276.008
275.709
275.298
506.453
540.856
483.049
523.201
455.667
499.546
418.942
463.447
426.466
471.084
461.455
507.649
478.743
522.36
497.1
535.77
437.44
405.468
471.001
422.081
404.124
374.93
433.608
387.54
517.87
527.709
546.992
552.039
497.564
510.041
531.475
539.265
497.732
469.497
447.072
430.024
491.501
517.48
508.737
519.599
437.818
451.646
474.627
485.001
401.392
412.167
525.38
536.089
466.64
485.836
544.324
557.235
534.711
556.138
556.68
566.312
517.163
548.907
544.34
561.453
494.978
537.113
520.109
551.108
536.924
557.455
546.872
561.298
376.04
350.265
390.58
356.511
345.169
326.704
356.471
331.746
426.864
386.617
410.721
378.558
400.547
360.494
406.172
362.295
364.604
334.901
369.074
336.289
438.142
391.789
444.344
394.081
471.893
533.644
430.901
502.386
455.144
521.872
420.115
492.156
482.875
539.333
437.173
508.086
488.53
541.691
439.818
511.358
516.096
481.322
545.211
519.193
495.846
462.045
535.964
507.244
469.456
437.384
520.72
489.679
346.051
316.33
385.921
430.871
499.308
314.331
341.456
374.278
412.703
471.605
313.905
338.719
367.821
405.129
471.55
416.639
367.87
422.944
375.14
408.464
362.065
420.892
373.306
396.298
354.735
416.98
370.854
305.857
293.837
328.573
310.059
354.633
327.482
381.959
346.035
413.584
369.106
305.123
292.706
325.194
307.358
348.316
323.475
376.629
342.971
411.553
367.644
326.109
311.805
326.435
312.847
306.223
291.744
306.755
291.73
349.455
333.469
349.499
331.865
326.569
313.03
327.258
313.715
307.433
291.844
308.11
292.386
348.956
333.316
349.827
334.202
378.895
359.055
414.392
390.614
379.695
357.059
415.356
387.655
376.841
357.927
412.314
389.885
377.441
358.369
410.872
388.622
323.561
296.084
284.299
326.619
297.233
284.91
320.798
294.192
283.092
325.596
296.058
283.859
315.363
290.708
280.903
323.886
294.1
282.356
282.664
276.645
274.434
291.712
280.16
275.831
301.086
283.893
277.35
310.342
287.848
279.183
321.477
291.965
280.726
281.936
276.286
274.224
290.687
279.876
275.691
299.113
283.116
276.95
308.197
286.376
278.189
317.886
289.871
279.527
334.997
321.392
340.588
325.513
365.529
344.355
379.723
352.593
308.015
294.986
309.104
295.871
310.366
296.304
311.867
297.43
311.352
308.865
310.156
305.749
296.514
298.563
328.483
331.585
359.122
364.858
312.768
314.341
312.018
313.255
299.991
300.503
284.462
276.98
286.376
277.691
285.359
276.88
287.222
277.637
285.787
276.656
288.267
277.625
289.336
277.907
289.751
277.998
302.926
292.995
307.793
295.531
320.593
306.677
328.68
310.557
294.542
285.808
291.004
284.178
310.534
296.891
312.019
297.4
333.773
312.767
336.578
313.647
296.128
286.636
296.771
286.913
284.952
276.678
279.844
275.426
282.773
276.009
278.941
275.106
286.038
277.06
280.327
275.597
286.453
277.242
280.504
275.646
277.985
275.279
275.437
274.328
278.364
275.632
275.372
274.358
278.748
276.338
275.268
274.461
288.42
298.002
282.469
278.855
275.046
296.3
286.383
280.047
277.047
274.505
296.475
287.031
281.083
277.554
274.705
274.048
273.493
273.68
273.339
274.346
273.657
273.758
273.397
274.896
274.001
273.894
273.503
290.614
283.2
282.406
278.05
277.957
275.755
275.731
274.512
274.08
273.656
290.48
282.844
283.024
278.423
278.608
276.034
276.075
274.664
274.307
273.833
284.334
278.622
284.87
278.717
291.862
282.527
292.842
282.447
279.772
276.389
279.456
276.275
285.239
278.718
285.566
278.948
293.789
282.257
294.389
282.595
279.942
276.438
280.096
276.564
276.489
274.91
274.575
273.965
276.482
274.81
274.51
273.934
276.446
274.98
274.584
273.975
276.63
275.034
274.587
274.022
273.175
273.054
273.018
273.088
273.024
273.008
273.249
273.077
273.026
273.111
273.032
273.01
273.39
273.119
273.04
273.152
273.044
273.014
277.33
274.545
273.59
275.098
273.723
273.271
274.118
273.371
273.135
273.59
273.182
273.061
273.204
273.06
273.019
277.035
274.372
273.49
275.142
273.688
273.234
274.171
273.361
273.117
273.618
273.186
273.06
273.251
273.072
273.021
273.873
273.164
273.031
273.005
274.026
273.189
273.035
273.006
273.839
273.158
273.03
273.005
274.015
273.189
273.036
273.006
273.775
273.148
273.03
273.005
273.988
273.186
273.037
273.006
274.036
273.195
273.037
273.006
274.052
273.2
273.037
273.006
273.807
273.156
273.032
273.006
273.564
273.113
273.023
273.004
273.662
273.129
273.027
273.005
273.496
273.1
273.02
273.004
273.891
273.172
273.034
273.006
273.605
273.121
273.024
273.004
273.929
273.18
273.035
273.006
273.624
273.125
273.025
273.005
273.614
273.123
273.024
273.004
273.379
273.082
273.017
273.003
273.588
273.118
273.024
273.004
273.375
273.081
273.017
273.003
273.548
273.111
273.023
273.004
273.382
273.082
273.017
273.003
273.48
273.098
273.02
273.004
273.376
273.08
273.017
273.003
273.417
273.086
273.018
273.004
273.225
273.054
273.01
273.002
273.158
273.042
273.008
273.001
273.238
273.057
273.011
273.002
273.171
273.045
273.008
273.002
273.261
273.06
273.011
273.002
273.194
273.049
273.009
273.002
273.291
273.065
273.012
273.002
273.227
273.055
273.01
273.002
273.336
273.072
273.014
273.003
273.266
273.061
273.01
273.002
273.396
273.083
273.015
273.003
273.318
273.071
273.012
273.002
273.374
273.079
273.014
273.003
273.302
273.067
273.011
273.002
273.405
273.086
273.015
273.003
273.326
273.074
273.012
273.002
273.41
273.088
273.015
273.003
273.331
273.075
273.012
273.002
273.001
273
273
273
273
273.001
273
273
273
273
273.001
273
273
273
273
273.001
273
273
273
273
273.001
273
273
273
273
273.001
273
273
273
273
273.001
273
273
273
273
273.001
273
273
273
273
273.001
273
273
273
273
273.001
273
273
273
273
273.001
273
273
273
273
273.001
273
273
273
273
273.001
273
273
273
273
273.001
273
273
273
273
273.001
273
273
273
273
273.001
273
273
273
273
273.001
273
273
273
273
273.001
273
273
273
273
273.001
273
273
273
273
273.001
273
273
273
273
273.001
273
273
273
273
273.001
273
273
273
273
273.001
273
273
273
273
273.001
273
273
273
273
273.001
273
273
273
273
436.267
422.972
436.268
423.321
435.86
423.535
434.991
422.828
433.667
421.172
431.133
422.199
432.807
422.762
429.367
420.739
428.738
420.359
535.752
555.899
560.948
562.963
563.976
503.139
537.982
548.764
553.447
555.883
536.917
556.71
561.581
563.512
564.511
504.184
539
549.6
554.179
556.693
537.982
557.502
562.204
564.052
565.027
505.254
539.998
550.426
554.904
557.412
539.173
558.264
562.757
564.511
565.447
505.893
540.539
550.825
555.232
557.725
539.733
558.413
562.785
564.503
565.429
505.491
540.046
550.329
554.767
557.299
531.784
552.843
558.354
560.645
561.91
498.157
533.455
544.787
549.896
552.87
535.466
555.554
560.557
562.582
563.686
501.919
536.934
547.755
552.519
555.258
529.099
550.854
556.717
559.189
560.573
495.509
531.047
542.719
548.05
551.197
529.181
550.731
556.543
558.986
560.371
495.013
530.415
542.12
547.41
550.611
345.777
394.152
389.02
342.879
320.293
322.471
328.676
332.853
341.958
347.463
372.103
385.27
379.082
392.165
351.562
356.713
340.788
344.85
330.369
333.135
282.751
277.666
273.062
273.021
273.02
273.015
273.039
280.876
277.243
275.207
274.472
273.508
273.296
273.712
273.218
273.125
273.138
273.074
280.37
274.752
273.313
273.295
273.685
273.458
273.214
273.159
273.046
273.043
273.119
273.127
281.122
275.994
276.882
274.364
273.754
274.931
273.207
273.062
273.275
278.807
276.338
274.933
274.026
273.327
275.971
274.78
274.013
273.52
273.156
273.047
273.031
273.019
273.009
273.003
273.016
273.011
273.006
273.003
273.001
273.015
273.011
273.006
273.003
273.001
273.011
273.008
273.005
273.002
273.001
273.03
273.02
273.012
273.006
273.002
277.799
275.671
274.497
273.773
273.259
275.463
274.337
273.728
273.365
273.116
274.427
273.842
273.465
273.232
273.071
273.846
273.453
273.24
273.117
273.036
273.292
273.154
273.08
273.038
273.012
273.207
273.129
273.073
273.036
273.011
273.474
273.285
273.157
273.077
273.023
273.148
273.091
273.05
273.024
273.007
273.09
273.058
273.033
273.017
273.005
273.098
273.062
273.035
273.017
273.005
273.054
273.036
273.021
273.01
273.003
277.541
275.567
274.462
273.764
273.255
274.175
273.714
273.401
273.201
273.061
273.223
273.142
273.081
273.04
273.012
273.212
273.136
273.078
273.039
273.012
273.478
273.299
273.17
273.085
273.025
273.329
273.211
273.121
273.061
273.018
273.157
273.103
273.06
273.03
273.009
273.117