/*--------------------------------*- C++ -*----------------------------------*\
| =========                 |                                                 |
| \\      /  F ield         | OpenFOAM: The Open Source CFD Toolbox           |
|  \\    /   O peration     | Version:  2412                                  |
|   \\  /    A nd           | Website:  www.openfoam.com                      |
|    \\/     M anipulation  |                                                 |
\*---------------------------------------------------------------------------*/
FoamFile
{
    version     2.0;
    format      ascii;
    arch        "LSB;label=32;scalar=64";
    class       volScalarField;
    location    "30/bottomWater";
    object      p;
}
// * * * * * * * * * * * * * * * * * * * * * * * * * * * * * * * * * * * * * //

dimensions      [1 -1 -2 0 0 0 0];

internalField   nonuniform List<scalar> 
1460
(
353.16353
353.16318
353.16302
353.16289
353.16277
353.16265
353.16254
353.16243
353.16232
353.16221
353.16208
353.16194
353.16178
353.1616
353.16142
353.16125
353.1611
353.16097
353.16086
353.16077
353.16068
353.16061
353.16053
353.16046
353.16039
353.16032
353.16025
353.16018
353.16011
353.16003
274.68329
274.6831
274.68296
274.68285
274.68274
274.68263
274.68253
274.68242
274.68232
274.6822
274.68208
274.68194
274.68179
274.68161
274.68143
274.68126
274.6811
274.68097
274.68086
274.68076
274.68068
274.6806
274.68053
274.68046
274.68039
274.68032
274.68025
274.68018
274.6801
274.68003
196.20332
196.20313
196.20299
196.20288
196.20276
196.20265
196.20254
196.20243
196.20232
196.20221
196.20208
196.20194
196.20179
196.20161
196.20143
196.20126
196.20111
196.20097
196.20086
196.20077
196.20068
196.20061
196.20053
196.20046
196.20039
196.20032
196.20025
196.20018
196.2001
196.20003
117.72329
117.7231
117.72296
117.72285
117.72274
117.72263
117.72253
117.72242
117.72232
117.7222
117.72208
117.72194
117.72179
117.72161
117.72143
117.72126
117.7211
117.72097
117.72086
117.72076
117.72068
117.7206
117.72053
117.72046
117.72039
117.72032
117.72025
117.72018
117.7201
117.72003
39.243531
39.243182
39.243018
39.242888
39.242766
39.242651
39.242542
39.242434
39.242324
39.242209
39.242083
39.241942
39.241783
39.241603
39.241423
39.241254
39.241103
39.240971
39.24086
39.240766
39.240683
39.240606
39.240533
39.240462
39.240391
39.24032
39.240249
39.240177
39.240106
39.240034
353.16332
353.16309
353.16296
353.16285
353.16274
353.16264
353.16254
353.16244
353.16234
353.16222
353.16209
353.16194
353.16175
353.16152
353.16133
353.16118
353.16104
353.16092
353.16082
353.16074
353.16067
353.1606
353.16053
353.16046
353.16039
353.16032
353.16025
353.16018
353.16011
353.16003
274.68308
274.68302
274.68292
274.68282
274.68272
274.68263
274.68253
274.68243
274.68233
274.68222
274.6821
274.68194
274.68175
274.68152
274.68132
274.68117
274.68104
274.68091
274.68081
274.68074
274.68067
274.6806
274.68053
274.68046
274.68039
274.68032
274.68025
274.68018
274.6801
274.68003
196.20312
196.20305
196.20295
196.20285
196.20275
196.20264
196.20254
196.20244
196.20234
196.20223
196.2021
196.20194
196.20175
196.20151
196.20132
196.20117
196.20104
196.20092
196.20082
196.20074
196.20067
196.2006
196.20053
196.20046
196.20039
196.20032
196.20025
196.20018
196.2001
196.20003
117.72308
117.72302
117.72292
117.72282
117.72272
117.72263
117.72253
117.72243
117.72233
117.72222
117.7221
117.72194
117.72175
117.72152
117.72132
117.72117
117.72104
117.72091
117.72081
117.72074
117.72067
117.7206
117.72053
117.72046
117.72039
117.72032
117.72025
117.72018
117.7201
117.72003
39.243322
39.243092
39.242958
39.242849
39.242742
39.242639
39.242539
39.24244
39.242336
39.242223
39.242093
39.241938
39.241751
39.241521
39.241334
39.241181
39.241042
39.240918
39.240819
39.240739
39.240667
39.240598
39.240529
39.240461
39.240391
39.240321
39.24025
39.240178
39.240106
39.240034
353.16331
353.16309
353.16297
353.16286
353.16276
353.16267
353.16258
353.16249
353.1624
353.1623
353.16219
353.16205
353.16187
353.16156
353.16132
353.16113
353.16096
353.16082
353.16074
353.16069
353.16065
353.16059
353.16054
353.16047
353.16041
353.16034
353.16026
353.16019
353.16011
353.16004
274.68307
274.68301
274.68293
274.68284
274.68275
274.68266
274.68257
274.68248
274.6824
274.68231
274.6822
274.68207
274.68188
274.68155
274.6813
274.6811
274.68093
274.68079
274.68072
274.68068
274.68064
274.6806
274.68054
274.68048
274.68041
274.68034
274.68026
274.68019
274.68011
274.68004
196.20311
196.20305
196.20296
196.20286
196.20277
196.20268
196.20259
196.2025
196.20241
196.20231
196.20221
196.20207
196.20188
196.20156
196.20131
196.20111
196.20094
196.20079
196.20073
196.20069
196.20065
196.2006
196.20054
196.20048
196.20041
196.20034
196.20026
196.20019
196.20011
196.20004
117.72307
117.72301
117.72293
117.72284
117.72275
117.72266
117.72257
117.72248
117.7224
117.72231
117.7222
117.72207
117.72188
117.72155
117.7213
117.7211
117.72093
117.72079
117.72072
117.72068
117.72064
117.7206
117.72054
117.72048
117.72041
117.72034
117.72026
117.72019
117.72011
117.72004
39.243312
39.243091
39.242965
39.242863
39.242764
39.242669
39.242578
39.242488
39.242398
39.242302
39.242192
39.242054
39.241872
39.241559
39.24132
39.241128
39.240962
39.240816
39.240743
39.240695
39.240647
39.240595
39.240537
39.240474
39.240406
39.240336
39.240263
39.240188
39.240113
39.240037
353.16327
353.16306
353.16294
353.16285
353.16276
353.16267
353.16259
353.16252
353.16244
353.16236
353.16225
353.16208
353.16173
353.16095
353.16103
353.16093
353.16079
353.16059
353.16062
353.16062
353.16061
353.16058
353.16053
353.16047
353.16041
353.16034
353.16027
353.16019
353.16012
353.16004
274.68304
274.68298
274.68291
274.68283
274.68274
274.68266
274.68259
274.68251
274.68244
274.68237
274.68228
274.6821
274.68169
274.68072
274.68092
274.68088
274.68074
274.68053
274.68058
274.68061
274.68061
274.68058
274.68054
274.68048
274.68042
274.68034
274.68027
274.68019
274.68012
274.68004
196.20307
196.20302
196.20294
196.20285
196.20277
196.20268
196.2026
196.20252
196.20245
196.20237
196.20227
196.2021
196.20167
196.20069
196.20092
196.20089
196.20074
196.20054
196.20059
196.20062
196.20061
196.20059
196.20054
196.20048
196.20042
196.20034
196.20027
196.20019
196.20012
196.20004
117.72304
117.72298
117.72291
117.72283
117.72274
117.72266
117.72259
117.72251
117.72244
117.72237
117.72228
117.7221
117.72169
117.72072
117.72092
117.72088
117.72074
117.72053
117.72058
117.72061
117.72061
117.72058
117.72054
117.72048
117.72042
117.72034
117.72027
117.72019
117.72012
117.72004
39.243273
39.243061
39.242944
39.242851
39.24276
39.242674
39.242593
39.242516
39.242439
39.242356
39.242251
39.242078
39.241731
39.240951
39.241034
39.240935
39.240793
39.240594
39.240623
39.240624
39.240609
39.240577
39.24053
39.240474
39.240409
39.24034
39.240267
39.240192
39.240116
39.24004
353.16327
353.16306
353.16295
353.16286
353.16278
353.1627
353.16263
353.16258
353.16254
353.16252
353.16254
353.16259
353.16271
353.16025
353.16052
353.16056
353.16061
353.1606
353.16056
353.1605
353.16043
353.16036
353.16028
353.1602
353.16012
353.16004
274.68303
274.68298
274.68291
274.68284
274.68276
274.68269
274.68262
274.68258
274.68255
274.68255
274.6826
274.68271
274.68296
274.6801
274.68049
274.68056
274.68063
274.68063
274.68059
274.68052
274.68045
274.68037
274.68029
274.68021
274.68013
274.68005
196.20307
196.20302
196.20294
196.20286
196.20278
196.20271
196.20264
196.20259
196.20256
196.20256
196.20261
196.20273
196.203
196.2001
196.2005
196.20057
196.20063
196.20063
196.20059
196.20052
196.20045
196.20037
196.20029
196.20021
196.20013
196.20005
117.72303
117.72298
117.72291
117.72284
117.72276
117.72269
117.72262
117.72258
117.72255
117.72255
117.7226
117.72271
117.72296
117.7201
117.72049
117.72056
117.72063
117.72063
117.72059
117.72052
117.72045
117.72037
117.72029
117.72021
117.72013
117.72005
39.243273
39.243062
39.242949
39.24286
39.242776
39.242698
39.242631
39.242577
39.242539
39.242524
39.242541
39.242593
39.242714
39.24025
39.24052
39.240565
39.240611
39.240602
39.240562
39.240504
39.240435
39.24036
39.240282
39.240203
39.240123
39.240044
353.16327
353.16306
353.16295
353.16286
353.16278
353.1627
353.16263
353.16258
353.16254
353.16252
353.16254
353.16259
353.16271
353.16025
353.16052
353.16056
353.16061
353.1606
353.16056
353.1605
353.16043
353.16036
353.16028
353.1602
353.16012
353.16004
274.68303
274.68298
274.68291
274.68284
274.68276
274.68269
274.68262
274.68258
274.68255
274.68255
274.6826
274.68271
274.68296
274.6801
274.68049
274.68056
274.68063
274.68063
274.68059
274.68052
274.68045
274.68037
274.68029
274.68021
274.68013
274.68005
196.20307
196.20302
196.20294
196.20286
196.20278
196.20271
196.20264
196.20259
196.20256
196.20256
196.20261
196.20273
196.203
196.2001
196.2005
196.20057
196.20063
196.20063
196.20059
196.20052
196.20045
196.20037
196.20029
196.20021
196.20013
196.20005
117.72303
117.72298
117.72291
117.72284
117.72276
117.72269
117.72262
117.72258
117.72255
117.72255
117.7226
117.72271
117.72296
117.7201
117.72049
117.72056
117.72063
117.72063
117.72059
117.72052
117.72045
117.72037
117.72029
117.72021
117.72013
117.72005
39.243273
39.243062
39.242949
39.24286
39.242776
39.242698
39.242631
39.242577
39.242539
39.242524
39.242541
39.242593
39.242714
39.24025
39.24052
39.240565
39.240611
39.240602
39.240562
39.240504
39.240435
39.24036
39.240282
39.240203
39.240123
39.240044
353.16327
353.16306
353.16294
353.16285
353.16276
353.16267
353.16259
353.16252
353.16244
353.16236
353.16225
353.16208
353.16173
353.16095
353.16103
353.16093
353.16079
353.16059
353.16062
353.16062
353.16061
353.16058
353.16053
353.16047
353.16041
353.16034
353.16027
353.16019
353.16012
353.16004
274.68304
274.68298
274.68291
274.68283
274.68274
274.68266
274.68259
274.68251
274.68244
274.68237
274.68228
274.6821
274.68169
274.68072
274.68092
274.68088
274.68074
274.68053
274.68058
274.68061
274.68061
274.68058
274.68054
274.68048
274.68042
274.68034
274.68027
274.68019
274.68012
274.68004
196.20307
196.20302
196.20294
196.20285
196.20277
196.20268
196.2026
196.20252
196.20245
196.20237
196.20227
196.2021
196.20167
196.20069
196.20092
196.20089
196.20074
196.20054
196.20059
196.20062
196.20061
196.20059
196.20054
196.20048
196.20042
196.20034
196.20027
196.20019
196.20012
196.20004
117.72304
117.72298
117.72291
117.72283
117.72274
117.72266
117.72259
117.72251
117.72244
117.72237
117.72228
117.7221
117.72169
117.72072
117.72092
117.72088
117.72074
117.72053
117.72058
117.72061
117.72061
117.72058
117.72054
117.72048
117.72042
117.72034
117.72027
117.72019
117.72012
117.72004
39.243273
39.243061
39.242944
39.242851
39.24276
39.242674
39.242593
39.242516
39.242439
39.242356
39.242251
39.242078
39.241731
39.240951
39.241034
39.240935
39.240793
39.240594
39.240623
39.240624
39.240609
39.240577
39.24053
39.240474
39.240409
39.24034
39.240267
39.240192
39.240116
39.24004
353.16331
353.16309
353.16297
353.16286
353.16276
353.16267
353.16258
353.16249
353.1624
353.1623
353.16219
353.16205
353.16187
353.16156
353.16132
353.16113
353.16096
353.16082
353.16074
353.16069
353.16065
353.16059
353.16054
353.16047
353.16041
353.16034
353.16026
353.16019
353.16011
353.16004
274.68307
274.68301
274.68293
274.68284
274.68275
274.68266
274.68257
274.68248
274.6824
274.68231
274.6822
274.68207
274.68188
274.68155
274.6813
274.6811
274.68093
274.68079
274.68072
274.68068
274.68064
274.6806
274.68054
274.68048
274.68041
274.68034
274.68026
274.68019
274.68011
274.68004
196.20311
196.20305
196.20296
196.20286
196.20277
196.20268
196.20259
196.2025
196.20241
196.20231
196.20221
196.20207
196.20188
196.20156
196.20131
196.20111
196.20094
196.20079
196.20073
196.20069
196.20065
196.2006
196.20054
196.20048
196.20041
196.20034
196.20026
196.20019
196.20011
196.20004
117.72307
117.72301
117.72293
117.72284
117.72275
117.72266
117.72257
117.72248
117.7224
117.72231
117.7222
117.72207
117.72188
117.72155
117.7213
117.7211
117.72093
117.72079
117.72072
117.72068
117.72064
117.7206
117.72054
117.72048
117.72041
117.72034
117.72026
117.72019
117.72011
117.72004
39.243312
39.243091
39.242965
39.242863
39.242764
39.242669
39.242578
39.242488
39.242398
39.242302
39.242192
39.242054
39.241872
39.241559
39.24132
39.241128
39.240962
39.240816
39.240743
39.240695
39.240647
39.240595
39.240537
39.240474
39.240406
39.240336
39.240263
39.240188
39.240113
39.240037
353.16332
353.16309
353.16296
353.16285
353.16274
353.16264
353.16254
353.16244
353.16234
353.16222
353.16209
353.16194
353.16175
353.16152
353.16133
353.16118
353.16104
353.16092
353.16082
353.16074
353.16067
353.1606
353.16053
353.16046
353.16039
353.16032
353.16025
353.16018
353.16011
353.16003
274.68308
274.68302
274.68292
274.68282
274.68272
274.68263
274.68253
274.68243
274.68233
274.68222
274.6821
274.68194
274.68175
274.68152
274.68132
274.68117
274.68104
274.68091
274.68081
274.68074
274.68067
274.6806
274.68053
274.68046
274.68039
274.68032
274.68025
274.68018
274.6801
274.68003
196.20312
196.20305
196.20295
196.20285
196.20275
196.20264
196.20254
196.20244
196.20234
196.20223
196.2021
196.20194
196.20175
196.20151
196.20132
196.20117
196.20104
196.20092
196.20082
196.20074
196.20067
196.2006
196.20053
196.20046
196.20039
196.20032
196.20025
196.20018
196.2001
196.20003
117.72308
117.72302
117.72292
117.72282
117.72272
117.72263
117.72253
117.72243
117.72233
117.72222
117.7221
117.72194
117.72175
117.72152
117.72132
117.72117
117.72104
117.72091
117.72081
117.72074
117.72067
117.7206
117.72053
117.72046
117.72039
117.72032
117.72025
117.72018
117.7201
117.72003
39.243322
39.243092
39.242958
39.242849
39.242742
39.242639
39.242539
39.24244
39.242336
39.242223
39.242093
39.241938
39.241751
39.241521
39.241334
39.241181
39.241042
39.240918
39.240819
39.240739
39.240667
39.240598
39.240529
39.240461
39.240391
39.240321
39.24025
39.240178
39.240106
39.240034
353.16353
353.16318
353.16302
353.16289
353.16277
353.16265
353.16254
353.16243
353.16232
353.16221
353.16208
353.16194
353.16178
353.1616
353.16142
353.16125
353.1611
353.16097
353.16086
353.16077
353.16068
353.16061
353.16053
353.16046
353.16039
353.16032
353.16025
353.16018
353.16011
353.16003
274.68329
274.6831
274.68296
274.68285
274.68274
274.68263
274.68253
274.68242
274.68232
274.6822
274.68208
274.68194
274.68179
274.68161
274.68143
274.68126
274.6811
274.68097
274.68086
274.68076
274.68068
274.6806
274.68053
274.68046
274.68039
274.68032
274.68025
274.68018
274.6801
274.68003
196.20332
196.20313
196.20299
196.20288
196.20276
196.20265
196.20254
196.20243
196.20232
196.20221
196.20208
196.20194
196.20179
196.20161
196.20143
196.20126
196.20111
196.20097
196.20086
196.20077
196.20068
196.20061
196.20053
196.20046
196.20039
196.20032
196.20025
196.20018
196.2001
196.20003
117.72329
117.7231
117.72296
117.72285
117.72274
117.72263
117.72253
117.72242
117.72232
117.7222
117.72208
117.72194
117.72179
117.72161
117.72143
117.72126
117.7211
117.72097
117.72086
117.72076
117.72068
117.7206
117.72053
117.72046
117.72039
117.72032
117.72025
117.72018
117.7201
117.72003
39.243531
39.243182
39.243018
39.242888
39.242766
39.242651
39.242542
39.242434
39.242324
39.242209
39.242083
39.241942
39.241783
39.241603
39.241423
39.241254
39.241103
39.240971
39.24086
39.240766
39.240683
39.240606
39.240533
39.240462
39.240391
39.24032
39.240249
39.240177
39.240106
39.240034
)
;

boundaryField
{
    minX
    {
        type            calculated;
        value           nonuniform List<scalar> 
50
(
353.16353
274.68329
196.20332
117.72329
39.243531
353.16332
274.68308
196.20312
117.72308
39.243322
353.16331
274.68307
196.20311
117.72307
39.243312
353.16327
274.68304
196.20307
117.72304
39.243273
353.16327
274.68303
196.20307
117.72303
39.243273
353.16327
274.68303
196.20307
117.72303
39.243273
353.16327
274.68304
196.20307
117.72304
39.243273
353.16331
274.68307
196.20311
117.72307
39.243312
353.16332
274.68308
196.20312
117.72308
39.243322
353.16353
274.68329
196.20332
117.72329
39.243531
)
;
    }
    maxX
    {
        type            calculated;
        value           nonuniform List<scalar> 
50
(
353.16
274.68
196.2
117.72
39.24
353.16
274.68
196.2
117.72
39.24
353.16
274.68
196.2
117.72
39.24
353.16
274.68
196.2
117.72
39.24
353.16
274.68
196.2
117.72
39.24
353.16
274.68
196.2
117.72
39.24
353.16
274.68
196.2
117.72
39.24
353.16
274.68
196.2
117.72
39.24
353.16
274.68
196.2
117.72
39.24
353.16
274.68
196.2
117.72
39.24
)
;
    }
    minY
    {
        type            calculated;
        value           nonuniform List<scalar> 
292
(
392.40353
392.40332
392.40331
392.40327
392.40327
392.40327
392.40327
392.40331
392.40332
392.40353
392.40318
392.40309
392.40309
392.40306
392.40306
392.40306
392.40306
392.40309
392.40309
392.40318
392.40302
392.40296
392.40297
392.40294
392.40295
392.40295
392.40294
392.40297
392.40296
392.40302
392.40289
392.40285
392.40286
392.40285
392.40286
392.40286
392.40285
392.40286
392.40285
392.40289
392.40277
392.40274
392.40276
392.40276
392.40278
392.40278
392.40276
392.40276
392.40274
392.40277
392.40265
392.40264
392.40267
392.40267
392.4027
392.4027
392.40267
392.40267
392.40264
392.40265
392.40254
392.40254
392.40258
392.40259
392.40263
392.40263
392.40259
392.40258
392.40254
392.40254
392.40243
392.40244
392.40249
392.40252
392.40258
392.40258
392.40252
392.40249
392.40244
392.40243
392.40232
392.40234
392.4024
392.40244
392.40254
392.40254
392.40244
392.4024
392.40234
392.40232
392.40221
392.40222
392.4023
392.40236
392.40252
392.40252
392.40236
392.4023
392.40222
392.40221
392.40208
392.40209
392.40219
392.40225
392.40254
392.40254
392.40225
392.40219
392.40209
392.40208
392.40194
392.40194
392.40205
392.40208
392.40259
392.40259
392.40208
392.40205
392.40194
392.40194
392.40178
392.40175
392.40187
392.40173
392.40271
392.40271
392.40173
392.40187
392.40175
392.40178
392.4016
392.40152
392.40156
392.40095
392.40095
392.40156
392.40152
392.4016
392.40142
392.40133
392.40132
392.40103
392.40103
392.40132
392.40133
392.40142
392.40125
392.40118
392.40113
392.40093
392.40093
392.40113
392.40118
392.40125
392.4011
392.40104
392.40096
392.40079
392.40079
392.40096
392.40104
392.4011
392.40097
392.40092
392.40082
392.40059
392.40025
392.40025
392.40059
392.40082
392.40092
392.40097
392.40086
392.40082
392.40074
392.40062
392.40052
392.40052
392.40062
392.40074
392.40082
392.40086
392.40077
392.40074
392.40069
392.40062
392.40056
392.40056
392.40062
392.40069
392.40074
392.40077
392.40068
392.40067
392.40065
392.40061
392.40061
392.40061
392.40061
392.40065
392.40067
392.40068
392.40061
392.4006
392.40059
392.40058
392.4006
392.4006
392.40058
392.40059
392.4006
392.40061
392.40053
392.40053
392.40054
392.40053
392.40056
392.40056
392.40053
392.40054
392.40053
392.40053
392.40046
392.40046
392.40047
392.40047
392.4005
392.4005
392.40047
392.40047
392.40046
392.40046
392.40039
392.40039
392.40041
392.40041
392.40043
392.40043
392.40041
392.40041
392.40039
392.40039
392.40032
392.40032
392.40034
392.40034
392.40036
392.40036
392.40034
392.40034
392.40032
392.40032
392.40025
392.40025
392.40026
392.40027
392.40028
392.40028
392.40027
392.40026
392.40025
392.40025
392.40018
392.40018
392.40019
392.40019
392.4002
392.4002
392.40019
392.40019
392.40018
392.40018
392.40011
392.40011
392.40011
392.40012
392.40012
392.40012
392.40012
392.40011
392.40011
392.40011
392.40003
392.40003
392.40004
392.40004
392.40004
392.40004
392.40004
392.40004
392.40003
392.40003
)
;
    }
    minZ
    {
        type            calculated;
        value           nonuniform List<scalar> 
150
(
353.16353
274.68329
196.20332
117.72329
39.243531
353.16318
274.6831
196.20313
117.7231
39.243182
353.16302
274.68296
196.20299
117.72296
39.243018
353.16289
274.68285
196.20288
117.72285
39.242888
353.16277
274.68274
196.20276
117.72274
39.242766
353.16265
274.68263
196.20265
117.72263
39.242651
353.16254
274.68253
196.20254
117.72253
39.242542
353.16243
274.68242
196.20243
117.72242
39.242434
353.16232
274.68232
196.20232
117.72232
39.242324
353.16221
274.6822
196.20221
117.7222
39.242209
353.16208
274.68208
196.20208
117.72208
39.242083
353.16194
274.68194
196.20194
117.72194
39.241942
353.16178
274.68179
196.20179
117.72179
39.241783
353.1616
274.68161
196.20161
117.72161
39.241603
353.16142
274.68143
196.20143
117.72143
39.241423
353.16125
274.68126
196.20126
117.72126
39.241254
353.1611
274.6811
196.20111
117.7211
39.241103
353.16097
274.68097
196.20097
117.72097
39.240971
353.16086
274.68086
196.20086
117.72086
39.24086
353.16077
274.68076
196.20077
117.72076
39.240766
353.16068
274.68068
196.20068
117.72068
39.240683
353.16061
274.6806
196.20061
117.7206
39.240606
353.16053
274.68053
196.20053
117.72053
39.240533
353.16046
274.68046
196.20046
117.72046
39.240462
353.16039
274.68039
196.20039
117.72039
39.240391
353.16032
274.68032
196.20032
117.72032
39.24032
353.16025
274.68025
196.20025
117.72025
39.240249
353.16018
274.68018
196.20018
117.72018
39.240177
353.16011
274.6801
196.2001
117.7201
39.240106
353.16003
274.68003
196.20003
117.72003
39.240034
)
;
    }
    maxZ
    {
        type            calculated;
        value           nonuniform List<scalar> 
150
(
353.16353
274.68329
196.20332
117.72329
39.243531
353.16318
274.6831
196.20313
117.7231
39.243182
353.16302
274.68296
196.20299
117.72296
39.243018
353.16289
274.68285
196.20288
117.72285
39.242888
353.16277
274.68274
196.20276
117.72274
39.242766
353.16265
274.68263
196.20265
117.72263
39.242651
353.16254
274.68253
196.20254
117.72253
39.242542
353.16243
274.68242
196.20243
117.72242
39.242434
353.16232
274.68232
196.20232
117.72232
39.242324
353.16221
274.6822
196.20221
117.7222
39.242209
353.16208
274.68208
196.20208
117.72208
39.242083
353.16194
274.68194
196.20194
117.72194
39.241942
353.16178
274.68179
196.20179
117.72179
39.241783
353.1616
274.68161
196.20161
117.72161
39.241603
353.16142
274.68143
196.20143
117.72143
39.241423
353.16125
274.68126
196.20126
117.72126
39.241254
353.1611
274.6811
196.20111
117.7211
39.241103
353.16097
274.68097
196.20097
117.72097
39.240971
353.16086
274.68086
196.20086
117.72086
39.24086
353.16077
274.68076
196.20077
117.72076
39.240766
353.16068
274.68068
196.20068
117.72068
39.240683
353.16061
274.6806
196.20061
117.7206
39.240606
353.16053
274.68053
196.20053
117.72053
39.240533
353.16046
274.68046
196.20046
117.72046
39.240462
353.16039
274.68039
196.20039
117.72039
39.240391
353.16032
274.68032
196.20032
117.72032
39.24032
353.16025
274.68025
196.20025
117.72025
39.240249
353.16018
274.68018
196.20018
117.72018
39.240177
353.16011
274.6801
196.2001
117.7201
39.240106
353.16003
274.68003
196.20003
117.72003
39.240034
)
;
    }
    bottomWater_to_rightSolid
    {
        type            calculated;
        value           nonuniform List<scalar> 
130
(
0.00097110472
0.00085975234
0.00076562584
0.00068272876
0.00060625842
0.00053322298
0.0004618193
0.00039095376
0.00032003944
0.00024887559
0.00017742565
0.00010575046
3.4055763e-05
0.00091817751
0.00081936652
0.00073902053
0.00066689543
0.00059767531
0.00052921378
0.00046065982
0.00039140737
0.00032121036
0.00025015203
0.00017847736
0.00010636501
3.4100492e-05
0.00081601472
0.00074340254
0.00069457306
0.00064707578
0.00059473208
0.00053663272
0.0004735898
0.00040638009
0.00033578621
0.00026281264
0.00018835225
0.00011301828
3.7246006e-05
0.00059427513
0.00062272301
0.00062447702
0.00060940063
0.00057692347
0.00053026979
0.00047357245
0.00040941363
0.00033985816
0.00026684992
0.00019188574
0.00011597182
3.9639048e-05
0.00025024316
0.00052048224
0.00056452178
0.00061149433
0.00060199659
0.00056172588
0.00050365329
0.00043480346
0.00035985279
0.00028185329
0.00020262631
0.00012320197
4.4006097e-05
0.00025024265
0.00052048194
0.0005645216
0.00061149423
0.00060199654
0.00056172585
0.00050365327
0.00043480344
0.00035985277
0.00028185326
0.00020262628
0.00012320193
4.4006074e-05
0.000594275
0.00062272284
0.00062447691
0.00060940058
0.00057692347
0.00053026982
0.00047357249
0.00040941367
0.00033985817
0.00026684992
0.00019188572
0.00011597179
3.9639016e-05
0.00081601467
0.00074340247
0.00069457303
0.00064707581
0.00059473216
0.0005366328
0.00047358988
0.00040638015
0.00033578623
0.00026281263
0.00018835221
0.00011301822
3.7245946e-05
0.0009181775
0.00081936652
0.00073902057
0.00066689557
0.00059767578
0.00052921399
0.00046065995
0.00039140746
0.00032121042
0.00025015205
0.00017847735
0.00010636498
3.4100429e-05
0.00097110471
0.00085975234
0.00076562588
0.00068272884
0.00060625855
0.00053322308
0.00046181938
0.00039095381
0.00032003946
0.00024887559
0.00017742562
0.00010575041
3.4055695e-05
)
;
    }
    bottomWater_to_leftSolid
    {
        type            calculated;
        value           nonuniform List<scalar> 
130
(
0.0035310261
0.0031817064
0.0030175234
0.0028877026
0.0027657569
0.0026511815
0.0025418514
0.0024339963
0.0023243378
0.0022088126
0.0020828866
0.0019420934
0.001783
0.0033222863
0.0030920384
0.0029584229
0.0028491306
0.0027422637
0.0026386003
0.0025387897
0.0024397209
0.0023360892
0.0022225567
0.0020926606
0.0019382124
0.0017514138
0.0033120259
0.0030912961
0.0029650507
0.0028632677
0.0027643927
0.0026690749
0.0025775611
0.0024883666
0.0023982597
0.002301989
0.0021919548
0.0020542845
0.0018722158
0.0032734989
0.0030610626
0.0029439973
0.0028507366
0.0027602135
0.0026739851
0.002593194
0.0025162194
0.0024394405
0.0023560203
0.0022513195
0.0020777218
0.0017312154
0.0032728078
0.0030621717
0.002948506
0.0028597786
0.0027755755
0.0026981057
0.0026310761
0.0025768998
0.0025388397
0.0025236805
0.0025412395
0.0025932504
0.00271353
0.0032728078
0.0030621717
0.002948506
0.0028597786
0.0027755754
0.0026981057
0.0026310761
0.0025768998
0.0025388398
0.0025236805
0.0025412395
0.0025932505
0.0027135301
0.0032734989
0.0030610626
0.0029439973
0.0028507366
0.0027602135
0.0026739851
0.002593194
0.0025162194
0.0024394405
0.0023560203
0.0022513195
0.0020777219
0.0017312155
0.0033120259
0.003091296
0.0029650507
0.0028632677
0.0027643927
0.0026690749
0.0025775611
0.0024883666
0.0023982597
0.002301989
0.0021919548
0.0020542845
0.0018722159
0.0033222862
0.0030920383
0.0029584228
0.0028491305
0.0027422636
0.0026386003
0.0025387896
0.0024397208
0.0023360892
0.0022225566
0.0020926606
0.0019382124
0.0017514138
0.003531026
0.0031817064
0.0030175234
0.0028877026
0.0027657569
0.0026511814
0.0025418513
0.0024339962
0.0023243377
0.0022088125
0.0020828866
0.0019420933
0.001783
)
;
    }
    bottomWater_to_heater
    {
        type            calculated;
        value           nonuniform List<scalar> 
92
(
0.0016031727
0.0014230417
0.0012543313
0.001103049
0.0015208713
0.0013343976
0.0011809775
0.0010424571
0.0015593455
0.0013197183
0.001128394
0.00096178445
353.16095
353.16103
353.16093
353.16079
274.68072
274.68092
274.68088
274.68074
196.20069
196.20092
196.20089
196.20074
117.72072
117.72092
117.72088
117.72074
0.00095130432
39.240951
0.0010336197
39.241034
0.00093489069
39.240935
0.00079345741
39.240793
353.16271
353.16025
274.68296
274.6801
196.203
196.2001
117.72296
117.7201
39.242714
39.24025
353.16271
353.16095
353.16103
353.16093
353.16025
353.16079
274.68296
274.68072
274.68092
274.68088
274.6801
274.68074
196.203
196.20069
196.20092
196.20089
196.2001
196.20074
117.72296
117.72072
117.72092
117.72088
117.7201
117.72074
39.242714
39.240951
39.241034
39.240935
39.24025
39.240793
0.00095130449
0.0010336198
0.00093489071
0.00079345738
0.0015593455
0.0013197183
0.001128394
0.00096178443
0.0015208713
0.0013343976
0.0011809775
0.0010424571
0.0016031727
0.0014230417
0.0012543313
0.0011030489
)
;
    }
}


// ************************************************************************* //
