/*--------------------------------*- C++ -*----------------------------------*\
| =========                 |                                                 |
| \\      /  F ield         | OpenFOAM: The Open Source CFD Toolbox           |
|  \\    /   O peration     | Version:  2412                                  |
|   \\  /    A nd           | Website:  www.openfoam.com                      |
|    \\/     M anipulation  |                                                 |
\*---------------------------------------------------------------------------*/
FoamFile
{
    version     2.0;
    format      ascii;
    arch        "LSB;label=32;scalar=64";
    class       volScalarField;
    location    "30/bottomWater";
    object      p_rgh;
}
// * * * * * * * * * * * * * * * * * * * * * * * * * * * * * * * * * * * * * //

dimensions      [1 -1 -2 0 0 0 0];

internalField   nonuniform List<scalar> 
1460
(
0.0035310261
0.0031817064
0.0030175234
0.0028877026
0.0027657569
0.0026511815
0.0025418514
0.0024339963
0.0023243378
0.0022088126
0.0020828866
0.0019420934
0.001783
0.0016031727
0.0014230417
0.0012543313
0.0011030489
0.00097110471
0.00085975235
0.00076562589
0.00068272886
0.0006062586
0.00053322311
0.00046181939
0.00039095382
0.00032003948
0.00024887562
0.00017742567
0.00010575047
3.4055771e-05
0.0032874412
0.0030982991
0.0029636403
0.0028502794
0.0027401341
0.0026329175
0.0025284276
0.0024240741
0.0023170237
0.0022044785
0.0020818999
0.0019445588
0.0017880331
0.0016087839
0.0014272793
0.0012565141
0.0011018984
0.00096804067
0.00085607532
0.00076215114
0.00067976991
0.0006036695
0.00053074005
0.0004592926
0.00038841378
0.00031764773
0.00024668056
0.00017545925
0.00010395539
3.2275128e-05
0.003323369
0.0031348735
0.00299476
0.0028765134
0.002762064
0.0026506181
0.0025420568
0.0024339143
0.002323429
0.0022081381
0.0020835064
0.0019449391
0.0017883394
0.0016101412
0.0014299564
0.0012605433
0.001106786
0.00097295895
0.00086092188
0.00076674507
0.00068382959
0.00060694484
0.0005331497
0.00046092718
0.00038942621
0.00031809445
0.00024678045
0.00017537075
0.00010373272
3.185076e-05
0.0032874412
0.0030982991
0.0029636403
0.0028502794
0.0027401341
0.0026329175
0.0025284276
0.0024240741
0.0023170237
0.0022044785
0.0020818999
0.0019445588
0.0017880331
0.0016087839
0.0014272793
0.0012565141
0.0011018984
0.00096804068
0.00085607532
0.00076215113
0.00067976991
0.00060366952
0.00053074002
0.00045929254
0.00038841371
0.00031764768
0.00024668053
0.00017545924
0.00010395538
3.227512e-05
0.0035310261
0.0031817064
0.0030175234
0.0028877026
0.0027657569
0.0026511815
0.0025418514
0.0024339963
0.0023243378
0.0022088126
0.0020828866
0.0019420934
0.001783
0.0016031727
0.0014230417
0.0012543313
0.001103049
0.00097110472
0.00085975234
0.00076562584
0.00068272876
0.00060625842
0.00053322298
0.0004618193
0.00039095376
0.00032003944
0.00024887559
0.00017742565
0.00010575046
3.4055763e-05
0.0033222863
0.0030920384
0.0029584229
0.0028491306
0.0027422637
0.0026386003
0.0025387897
0.0024397208
0.0023360892
0.0022225567
0.0020926606
0.0019382124
0.0017514139
0.0015208713
0.0013343976
0.0011809775
0.0010424571
0.00091817749
0.00081936652
0.0007390206
0.00066689565
0.00059767604
0.00052921407
0.00046065999
0.00039140748
0.00032121044
0.00025015209
0.00017847739
0.00010636503
3.4100507e-05
0.0030842385
0.0030163389
0.002923016
0.0028244387
0.002724477
0.0026252009
0.0025278347
0.0024315678
0.002331593
0.0022217379
0.0020954771
0.0019431971
0.0017538275
0.0015151537
0.0013241014
0.0011713011
0.0010357281
0.00091279982
0.00081467741
0.00073634371
0.00066607531
0.00059774787
0.00052946989
0.00046044866
0.00039057351
0.00031996682
0.00024876622
0.00017704237
0.00010476914
3.1964124e-05
0.0031183326
0.0030518607
0.0029535362
0.0028501831
0.002746488
0.0026435844
0.0025424139
0.0024426697
0.0023395497
0.0022266224
0.002097491
0.0019431556
0.0017526814
0.0015141702
0.0013248972
0.0011738454
0.001038769
0.0009168825
0.00081944014
0.00074137668
0.0006707296
0.00060136672
0.00053180662
0.0004618244
0.00039130527
0.00032024602
0.00024873248
0.00017681103
0.00010438704
3.1306544e-05
0.0030842385
0.0030163389
0.002923016
0.0028244387
0.002724477
0.0026252009
0.0025278347
0.0024315679
0.002331593
0.0022217379
0.002095477
0.0019431971
0.0017538275
0.0015151537
0.0013241014
0.0011713011
0.0010357281
0.00091279986
0.00081467744
0.00073634375
0.00066607544
0.00059774836
0.00052946992
0.0004604486
0.00039057344
0.00031996677
0.00024876618
0.00017704235
0.00010476912
3.1964111e-05
0.0033222863
0.0030920384
0.0029584229
0.0028491306
0.0027422637
0.0026386003
0.0025387897
0.0024397209
0.0023360892
0.0022225567
0.0020926606
0.0019382124
0.0017514138
0.0015208713
0.0013343976
0.0011809775
0.0010424571
0.00091817751
0.00081936652
0.00073902053
0.00066689543
0.00059767531
0.00052921378
0.00046065982
0.00039140737
0.00032121036
0.00025015203
0.00017847736
0.00010636501
3.4100492e-05
0.0033120259
0.0030912961
0.0029650507
0.0028632677
0.0027643927
0.0026690749
0.0025775611
0.0024883666
0.0023982597
0.002301989
0.0021919548
0.0020542845
0.0018722158
0.0015593455
0.0013197183
0.001128394
0.00096178443
0.00081601469
0.00074340253
0.0006945731
0.00064707588
0.00059473224
0.00053663286
0.00047358994
0.00040638021
0.0003357863
0.00026281271
0.00018835229
0.00011301831
3.7246029e-05
0.0030731067
0.0030141805
0.0029290255
0.0028382506
0.0027468112
0.0026569259
0.0025691982
0.0024831351
0.0023970249
0.002306247
0.0022019774
0.0020683106
0.0018814242
0.0015516611
0.0012996256
0.0011032128
0.00093370844
0.00078775135
0.00072108826
0.00068304043
0.00064337558
0.00059606296
0.00054070296
0.00047803942
0.00040972762
0.00033778492
0.00026372117
0.00018850338
0.00011255575
3.592734e-05
0.0031080084
0.0030505243
0.0029604293
0.0028649356
0.0027698866
0.0026763972
0.00258531
0.0024955353
0.0024059319
0.0023118851
0.0022050295
0.0020707428
0.0018844667
0.0015564267
0.0013056032
0.0011076336
0.00093762433
0.00079198602
0.00072671167
0.0006897114
0.0006496025
0.00060080342
0.00054364341
0.00047959816
0.00041052828
0.00033811388
0.00026376619
0.00018838023
0.00011226998
3.5342142e-05
0.0030731067
0.0030141805
0.0029290255
0.0028382506
0.0027468112
0.0026569259
0.0025691982
0.0024831351
0.0023970249
0.002306247
0.0022019774
0.0020683105
0.0018814242
0.0015516611
0.0012996256
0.0011032128
0.00093370848
0.00078775141
0.00072108832
0.00068304046
0.00064337558
0.00059606294
0.00054070286
0.00047803932
0.00040972754
0.00033778485
0.00026372112
0.00018850336
0.00011255574
3.592732e-05
0.0033120259
0.0030912961
0.0029650507
0.0028632677
0.0027643927
0.0026690749
0.0025775611
0.0024883666
0.0023982597
0.002301989
0.0021919548
0.0020542845
0.0018722158
0.0015593455
0.0013197183
0.001128394
0.00096178445
0.00081601472
0.00074340254
0.00069457306
0.00064707578
0.00059473208
0.00053663272
0.0004735898
0.00040638009
0.00033578621
0.00026281264
0.00018835225
0.00011301828
3.7246006e-05
0.0032734989
0.0030610626
0.0029439973
0.0028507366
0.0027602135
0.0026739851
0.002593194
0.0025162194
0.0024394405
0.0023560203
0.0022513195
0.0020777218
0.0017312154
0.00095130431
0.0010336197
0.00093489065
0.00079345735
0.00059427496
0.00062272288
0.00062447697
0.00060940065
0.00057692354
0.00053026988
0.00047357256
0.00040941373
0.00033985824
0.00026684998
0.00019188578
0.00011597184
3.9639066e-05
0.0030354734
0.0029840944
0.002908612
0.0028266324
0.0027434546
0.0026622575
0.0025855334
0.0025131099
0.0024432593
0.0023699004
0.0022753322
0.0021041247
0.0016864578
0.00071572466
0.00091679435
0.00087799866
0.0007367287
0.00052922295
0.00058104746
0.00060680678
0.00060514955
0.00058053168
0.00053800067
0.00048150006
0.00041549037
0.00034380595
0.00026911758
0.00019308558
0.00011667358
4.0295559e-05
0.003069615
0.0030197121
0.0029394647
0.0028528393
0.0027661503
0.0026816886
0.0026010487
0.0025246329
0.0024504935
0.0023725525
0.0022740002
0.0020999147
0.0016687866
0.00069472645
0.00091790517
0.00088801781
0.00074236261
0.00053781053
0.00059140234
0.00061787208
0.0006143531
0.0005867229
0.00054115074
0.00048288926
0.00041597623
0.00034384098
0.0002689528
0.00019286572
0.00011647651
4.0188626e-05
0.0030354734
0.0029840944
0.002908612
0.0028266324
0.0027434546
0.0026622575
0.0025855334
0.00251311
0.0024432594
0.0023699004
0.0022753322
0.0021041247
0.0016864578
0.00071572468
0.00091679438
0.0008779987
0.00073672878
0.00052922315
0.00058104765
0.0006068069
0.00060514959
0.00058053165
0.00053800059
0.00048149998
0.0004154903
0.0003438059
0.00026911754
0.00019308556
0.00011667356
4.0295542e-05
0.0032734989
0.0030610626
0.0029439973
0.0028507366
0.0027602135
0.0026739851
0.002593194
0.0025162194
0.0024394405
0.0023560203
0.0022513195
0.0020777218
0.0017312154
0.00095130432
0.0010336197
0.00093489069
0.00079345741
0.00059427513
0.00062272301
0.00062447702
0.00060940063
0.00057692347
0.00053026979
0.00047357245
0.00040941363
0.00033985816
0.00026684992
0.00019188574
0.00011597182
3.9639048e-05
0.0032728078
0.0030621717
0.002948506
0.0028597786
0.0027755754
0.0026981057
0.0026310761
0.0025768998
0.0025388397
0.0025236805
0.0025412395
0.0025932504
0.00271353
0.00025024285
0.00052048216
0.00056452178
0.00061149438
0.00060199664
0.00056172593
0.00050365334
0.0004348035
0.00035985283
0.00028185332
0.00020262634
0.00012320198
4.4006111e-05
0.003034446
0.0029846472
0.0029124446
0.0028350243
0.0027581908
0.002686173
0.002623634
0.0025756136
0.0025489591
0.0025531101
0.0026029554
0.0027076267
0.0029550925
9.652369e-05
0.00048982232
0.0005607708
0.00062706578
0.00062800196
0.00058595157
0.00052254305
0.00044808767
0.0003683733
0.00028692598
0.00020567574
0.00012568755
4.7568199e-05
0.0030686622
0.0030203507
0.0029434065
0.0028613672
0.0027810705
0.0027057847
0.0026396627
0.0025879751
0.0025576474
0.0025593976
0.0026110631
0.0027251382
0.0029981788
9.5611285e-05
0.00050084945
0.00057022595
0.00063340633
0.00063259525
0.00058860446
0.00052381317
0.0004485753
0.00036843902
0.00028679672
0.00020553264
0.00012574004
4.8252661e-05
0.003034446
0.0029846472
0.0029124446
0.0028350243
0.0027581908
0.0026861731
0.002623634
0.0025756136
0.0025489592
0.0025531101
0.0026029554
0.0027076267
0.0029550925
9.6524063e-05
0.00048982241
0.0005607708
0.00062706573
0.00062800187
0.00058595148
0.00052254297
0.00044808761
0.00036837326
0.00028692595
0.00020567572
0.00012568754
4.7568185e-05
0.0032728078
0.0030621717
0.002948506
0.0028597786
0.0027755755
0.0026981057
0.0026310761
0.0025768998
0.0025388397
0.0025236805
0.0025412395
0.0025932504
0.00271353
0.00025024316
0.00052048224
0.00056452178
0.00061149433
0.00060199659
0.00056172588
0.00050365329
0.00043480346
0.00035985279
0.00028185329
0.00020262631
0.00012320197
4.4006097e-05
0.0032728078
0.0030621717
0.002948506
0.0028597786
0.0027755754
0.0026981057
0.0026310761
0.0025768998
0.0025388397
0.0025236805
0.0025412395
0.0025932505
0.0027135301
0.00025024265
0.00052048195
0.00056452161
0.00061149424
0.00060199653
0.00056172584
0.00050365327
0.00043480345
0.00035985279
0.00028185329
0.00020262631
0.00012320196
4.4006081e-05
0.003034446
0.0029846472
0.0029124447
0.0028350243
0.0027581908
0.0026861731
0.002623634
0.0025756136
0.0025489592
0.0025531102
0.0026029555
0.0027076269
0.0029550927
9.6523427e-05
0.00048982207
0.0005607706
0.00062706561
0.00062800184
0.00058595148
0.00052254298
0.00044808761
0.00036837325
0.00028692594
0.00020567571
0.00012568752
4.7568167e-05
0.0030686622
0.0030203507
0.0029434065
0.0028613673
0.0027810705
0.0027057848
0.0026396627
0.0025879751
0.0025576475
0.0025593976
0.0026110632
0.0027251383
0.002998179
9.5610785e-05
0.00050084913
0.00057022574
0.00063340619
0.00063259516
0.0005886044
0.00052381312
0.00044857526
0.00036843898
0.00028679668
0.0002055326
0.00012574001
4.8252628e-05
0.003034446
0.0029846472
0.0029124447
0.0028350243
0.0027581908
0.0026861731
0.002623634
0.0025756136
0.0025489592
0.0025531102
0.0026029555
0.0027076269
0.0029550927
9.6523416e-05
0.00048982204
0.00056077059
0.00062706559
0.0006280018
0.00058595144
0.00052254295
0.00044808758
0.00036837323
0.00028692591
0.00020567568
0.0001256875
4.7568156e-05
0.0032728078
0.0030621717
0.002948506
0.0028597786
0.0027755754
0.0026981057
0.0026310761
0.0025768998
0.0025388398
0.0025236805
0.0025412395
0.0025932505
0.0027135301
0.00025024265
0.00052048194
0.0005645216
0.00061149423
0.00060199654
0.00056172585
0.00050365327
0.00043480344
0.00035985277
0.00028185326
0.00020262628
0.00012320193
4.4006074e-05
0.0032734989
0.0030610626
0.0029439973
0.0028507366
0.0027602135
0.0026739851
0.002593194
0.0025162194
0.0024394405
0.0023560203
0.0022513195
0.0020777219
0.0017312155
0.00095130454
0.0010336198
0.00093489073
0.00079345741
0.00059427502
0.0006227229
0.00062447696
0.00060940061
0.00057692349
0.00053026982
0.00047357249
0.00040941368
0.0003398582
0.00026684996
0.00019188576
0.00011597181
3.9639016e-05
0.0030354733
0.0029840944
0.002908612
0.0028266324
0.0027434546
0.0026622576
0.0025855334
0.0025131099
0.0024432593
0.0023699004
0.0022753323
0.0021041248
0.001686458
0.00071572498
0.00091679448
0.00087799875
0.00073672876
0.00052922302
0.00058104746
0.00060680674
0.0006051495
0.00058053161
0.00053800059
0.0004815
0.00041549032
0.00034380592
0.00026911755
0.00019308556
0.00011667355
4.0295505e-05
0.003069615
0.0030197121
0.0029394647
0.0028528393
0.0027661503
0.0026816888
0.0026010487
0.0025246329
0.0024504935
0.0023725525
0.0022740003
0.0020999148
0.0016687868
0.0006947268
0.00091790528
0.00088801787
0.00074236262
0.00053781048
0.0005914022
0.00061787195
0.000614353
0.00058672284
0.0005411507
0.00048288923
0.00041597621
0.00034384096
0.00026895277
0.00019286569
0.00011647647
4.0188578e-05
0.0030354733
0.0029840944
0.002908612
0.0028266324
0.0027434546
0.0026622576
0.0025855335
0.00251311
0.0024432593
0.0023699004
0.0022753323
0.0021041248
0.001686458
0.00071572496
0.00091679447
0.00087799874
0.00073672875
0.000529223
0.0005810474
0.00060680669
0.00060514947
0.0005805316
0.00053800059
0.00048149999
0.00041549031
0.0003438059
0.00026911752
0.00019308553
0.00011667353
4.0295502e-05
0.0032734989
0.0030610626
0.0029439973
0.0028507366
0.0027602135
0.0026739851
0.002593194
0.0025162194
0.0024394405
0.0023560203
0.0022513195
0.0020777219
0.0017312155
0.00095130449
0.0010336198
0.00093489071
0.00079345738
0.000594275
0.00062272284
0.00062447691
0.00060940058
0.00057692347
0.00053026982
0.00047357249
0.00040941367
0.00033985817
0.00026684992
0.00019188572
0.00011597179
3.9639016e-05
0.0033120259
0.003091296
0.0029650507
0.0028632677
0.0027643926
0.0026690749
0.002577561
0.0024883666
0.0023982597
0.002301989
0.0021919548
0.0020542845
0.0018722159
0.0015593455
0.0013197183
0.001128394
0.00096178445
0.00081601469
0.0007434025
0.00069457306
0.00064707583
0.00059473216
0.00053663279
0.00047358988
0.00040638016
0.00033578627
0.00026281268
0.00018835226
0.00011301825
3.7245938e-05
0.0030731067
0.0030141805
0.0029290255
0.0028382506
0.0027468111
0.0026569258
0.0025691981
0.0024831351
0.0023970249
0.002306247
0.0022019774
0.0020683106
0.0018814243
0.0015516612
0.0012996256
0.0011032128
0.00093370846
0.00078775135
0.00072108825
0.00068304041
0.00064337556
0.00059606295
0.00054070292
0.00047803938
0.00040972759
0.00033778489
0.00026372114
0.00018850336
0.00011255572
3.5927252e-05
0.0031080084
0.0030505243
0.0029604293
0.0028649356
0.0027698866
0.0026763969
0.00258531
0.0024955353
0.0024059319
0.0023118851
0.0022050295
0.0020707428
0.0018844667
0.0015564267
0.0013056032
0.0011076336
0.00093762432
0.00079198597
0.0007267116
0.00068971135
0.00064960247
0.00060080341
0.00054364341
0.00047959816
0.00041052828
0.00033811388
0.00026376618
0.0001883802
0.00011226993
3.5342077e-05
0.0030731067
0.0030141805
0.0029290255
0.0028382506
0.0027468111
0.0026569258
0.0025691981
0.0024831351
0.0023970249
0.002306247
0.0022019774
0.0020683106
0.0018814243
0.0015516612
0.0012996256
0.0011032128
0.00093370845
0.00078775133
0.00072108822
0.00068304039
0.00064337555
0.00059606293
0.00054070291
0.00047803938
0.00040972758
0.00033778487
0.00026372111
0.00018850333
0.00011255569
3.5927263e-05
0.0033120259
0.003091296
0.0029650507
0.0028632677
0.0027643927
0.0026690749
0.0025775611
0.0024883666
0.0023982597
0.002301989
0.0021919548
0.0020542845
0.0018722159
0.0015593455
0.0013197183
0.001128394
0.00096178443
0.00081601467
0.00074340247
0.00069457303
0.00064707581
0.00059473216
0.0005366328
0.00047358988
0.00040638015
0.00033578623
0.00026281263
0.00018835221
0.00011301822
3.7245946e-05
0.0033222862
0.0030920383
0.0029584228
0.0028491305
0.0027422636
0.0026386003
0.0025387896
0.0024397208
0.0023360892
0.0022225566
0.0020926605
0.0019382124
0.0017514138
0.0015208713
0.0013343976
0.0011809775
0.0010424571
0.00091817752
0.00081936655
0.0007390206
0.0006668956
0.00059767583
0.000529214
0.00046065995
0.00039140748
0.00032121046
0.0002501521
0.00017847739
0.00010636499
3.4100411e-05
0.0030842384
0.0030163388
0.002923016
0.0028244386
0.002724477
0.0026252008
0.0025278346
0.0024315678
0.0023315929
0.0022217379
0.002095477
0.0019431971
0.0017538275
0.0015151537
0.0013241014
0.0011713011
0.0010357281
0.00091279986
0.00081467745
0.00073634376
0.0006660754
0.00059774807
0.00052946994
0.00046044868
0.00039057353
0.00031996685
0.00024876624
0.00017704239
0.00010476912
3.1964022e-05
0.0031183326
0.0030518607
0.0029535361
0.0028501831
0.002746488
0.0026435842
0.0025424138
0.0024426697
0.0023395497
0.0022266223
0.002097491
0.0019431556
0.0017526813
0.0015141702
0.0013248972
0.0011738454
0.001038769
0.00091688251
0.00081944015
0.00074137669
0.00067072962
0.00060136675
0.00053180666
0.00046182445
0.00039130531
0.00032024606
0.00024873251
0.00017681104
0.00010438701
3.1306455e-05
0.0030842384
0.0030163388
0.002923016
0.0028244387
0.002724477
0.0026252008
0.0025278346
0.0024315678
0.002331593
0.0022217379
0.002095477
0.0019431971
0.0017538275
0.0015151537
0.0013241014
0.0011713011
0.0010357281
0.00091279984
0.00081467742
0.00073634373
0.00066607538
0.0005977481
0.00052946994
0.00046044868
0.00039057352
0.00031996684
0.00024876623
0.00017704236
0.00010476909
3.196403e-05
0.0033222862
0.0030920383
0.0029584228
0.0028491305
0.0027422636
0.0026386003
0.0025387896
0.0024397208
0.0023360892
0.0022225566
0.0020926606
0.0019382124
0.0017514138
0.0015208713
0.0013343976
0.0011809775
0.0010424571
0.0009181775
0.00081936652
0.00073902057
0.00066689557
0.00059767578
0.00052921399
0.00046065995
0.00039140746
0.00032121042
0.00025015205
0.00017847735
0.00010636498
3.4100429e-05
0.003531026
0.0031817064
0.0030175234
0.0028877026
0.0027657569
0.0026511814
0.0025418513
0.0024339962
0.0023243377
0.0022088125
0.0020828866
0.0019420933
0.001783
0.0016031727
0.0014230417
0.0012543313
0.001103049
0.00097110472
0.00085975236
0.00076562589
0.00068272884
0.00060625854
0.00053322307
0.00046181937
0.00039095381
0.00032003947
0.0002488756
0.00017742564
0.00010575041
3.405567e-05
0.0032874412
0.0030982991
0.0029636403
0.0028502793
0.0027401341
0.0026329174
0.0025284275
0.002424074
0.0023170236
0.0022044784
0.0020818998
0.0019445587
0.001788033
0.0016087839
0.0014272793
0.0012565141
0.0011018984
0.00096804069
0.00085607534
0.00076215116
0.00067976994
0.00060366953
0.00053074007
0.0004592926
0.00038841378
0.00031764773
0.00024668055
0.00017545923
0.00010395533
3.2275014e-05
0.003323369
0.0031348735
0.00299476
0.0028765134
0.002762064
0.002650618
0.0025420568
0.0024339142
0.0023234289
0.0022081381
0.0020835064
0.001944939
0.0017883393
0.0016101412
0.0014299563
0.0012605433
0.001106786
0.00097295895
0.00086092188
0.00076674508
0.00068382961
0.00060694485
0.00053314972
0.0004609272
0.00038942623
0.00031809446
0.00024678044
0.00017537073
0.00010373267
3.1850656e-05
0.0032874412
0.0030982991
0.0029636403
0.0028502793
0.0027401341
0.0026329174
0.0025284275
0.002424074
0.0023170236
0.0022044784
0.0020818998
0.0019445587
0.001788033
0.0016087839
0.0014272793
0.0012565141
0.0011018984
0.00096804067
0.00085607532
0.00076215114
0.00067976993
0.00060366953
0.00053074006
0.00045929259
0.00038841375
0.0003176477
0.00024668053
0.0001754592
0.00010395532
3.2275023e-05
0.003531026
0.0031817064
0.0030175234
0.0028877026
0.0027657569
0.0026511814
0.0025418513
0.0024339962
0.0023243377
0.0022088125
0.0020828866
0.0019420933
0.001783
0.0016031727
0.0014230417
0.0012543313
0.0011030489
0.00097110471
0.00085975234
0.00076562588
0.00068272884
0.00060625855
0.00053322308
0.00046181938
0.00039095381
0.00032003946
0.00024887559
0.00017742562
0.00010575041
3.4055695e-05
)
;

boundaryField
{
    minX
    {
        type            zeroGradient;
    }
    maxX
    {
        type            fixedValue;
        value           uniform 0;
    }
    minY
    {
        type            fixedFluxPressure;
        gradient        uniform 0;
        value           nonuniform List<scalar> 
292
(
0.0035310261
0.0033222863
0.0033120259
0.0032734989
0.0032728078
0.0032728078
0.0032734989
0.0033120259
0.0033222862
0.003531026
0.0031817064
0.0030920384
0.0030912961
0.0030610626
0.0030621717
0.0030621717
0.0030610626
0.003091296
0.0030920383
0.0031817064
0.0030175234
0.0029584229
0.0029650507
0.0029439973
0.002948506
0.002948506
0.0029439973
0.0029650507
0.0029584228
0.0030175234
0.0028877026
0.0028491306
0.0028632677
0.0028507366
0.0028597786
0.0028597786
0.0028507366
0.0028632677
0.0028491305
0.0028877026
0.0027657569
0.0027422637
0.0027643927
0.0027602135
0.0027755754
0.0027755754
0.0027602135
0.0027643926
0.0027422636
0.0027657569
0.0026511815
0.0026386003
0.0026690749
0.0026739851
0.0026981057
0.0026981057
0.0026739851
0.0026690749
0.0026386003
0.0026511814
0.0025418514
0.0025387897
0.0025775611
0.002593194
0.0026310761
0.0026310761
0.002593194
0.002577561
0.0025387896
0.0025418513
0.0024339963
0.0024397208
0.0024883666
0.0025162194
0.0025768998
0.0025768998
0.0025162194
0.0024883666
0.0024397208
0.0024339962
0.0023243378
0.0023360892
0.0023982597
0.0024394405
0.0025388397
0.0025388397
0.0024394405
0.0023982597
0.0023360892
0.0023243377
0.0022088126
0.0022225567
0.002301989
0.0023560203
0.0025236805
0.0025236805
0.0023560203
0.002301989
0.0022225566
0.0022088125
0.0020828866
0.0020926606
0.0021919548
0.0022513195
0.0025412395
0.0025412395
0.0022513195
0.0021919548
0.0020926605
0.0020828866
0.0019420934
0.0019382124
0.0020542845
0.0020777218
0.0025932504
0.0025932505
0.0020777219
0.0020542845
0.0019382124
0.0019420933
0.001783
0.0017514139
0.0018722158
0.0017312154
0.00271353
0.0027135301
0.0017312155
0.0018722159
0.0017514138
0.001783
0.0016031727
0.0015208713
0.0015593455
0.00095130431
0.00095130454
0.0015593455
0.0015208713
0.0016031727
0.0014230417
0.0013343976
0.0013197183
0.0010336197
0.0010336198
0.0013197183
0.0013343976
0.0014230417
0.0012543313
0.0011809775
0.001128394
0.00093489065
0.00093489073
0.001128394
0.0011809775
0.0012543313
0.0011030489
0.0010424571
0.00096178443
0.00079345735
0.00079345741
0.00096178445
0.0010424571
0.001103049
0.00097110471
0.00091817749
0.00081601469
0.00059427496
0.00025024285
0.00025024265
0.00059427502
0.00081601469
0.00091817752
0.00097110472
0.00085975235
0.00081936652
0.00074340253
0.00062272288
0.00052048216
0.00052048195
0.0006227229
0.0007434025
0.00081936655
0.00085975236
0.00076562589
0.0007390206
0.0006945731
0.00062447697
0.00056452178
0.00056452161
0.00062447696
0.00069457306
0.0007390206
0.00076562589
0.00068272886
0.00066689565
0.00064707588
0.00060940065
0.00061149438
0.00061149424
0.00060940061
0.00064707583
0.0006668956
0.00068272884
0.0006062586
0.00059767604
0.00059473224
0.00057692354
0.00060199664
0.00060199653
0.00057692349
0.00059473216
0.00059767583
0.00060625854
0.00053322311
0.00052921407
0.00053663286
0.00053026988
0.00056172593
0.00056172584
0.00053026982
0.00053663279
0.000529214
0.00053322307
0.00046181939
0.00046065999
0.00047358994
0.00047357256
0.00050365334
0.00050365327
0.00047357249
0.00047358988
0.00046065995
0.00046181937
0.00039095382
0.00039140748
0.00040638021
0.00040941373
0.0004348035
0.00043480345
0.00040941368
0.00040638016
0.00039140748
0.00039095381
0.00032003948
0.00032121044
0.0003357863
0.00033985824
0.00035985283
0.00035985279
0.0003398582
0.00033578627
0.00032121046
0.00032003947
0.00024887562
0.00025015209
0.00026281271
0.00026684998
0.00028185332
0.00028185329
0.00026684996
0.00026281268
0.0002501521
0.0002488756
0.00017742567
0.00017847739
0.00018835229
0.00019188578
0.00020262634
0.00020262631
0.00019188576
0.00018835226
0.00017847739
0.00017742564
0.00010575047
0.00010636503
0.00011301831
0.00011597184
0.00012320198
0.00012320196
0.00011597181
0.00011301825
0.00010636499
0.00010575041
3.4055771e-05
3.4100507e-05
3.7246029e-05
3.9639066e-05
4.4006111e-05
4.4006081e-05
3.9639016e-05
3.7245938e-05
3.4100411e-05
3.405567e-05
)
;
    }
    minZ
    {
        type            fixedFluxPressure;
        gradient        uniform 0;
        value           nonuniform List<scalar> 
150
(
0.0035310261
0.0032874412
0.003323369
0.0032874412
0.0035310261
0.0031817064
0.0030982991
0.0031348735
0.0030982991
0.0031817064
0.0030175234
0.0029636403
0.00299476
0.0029636403
0.0030175234
0.0028877026
0.0028502794
0.0028765134
0.0028502794
0.0028877026
0.0027657569
0.0027401341
0.002762064
0.0027401341
0.0027657569
0.0026511815
0.0026329175
0.0026506181
0.0026329175
0.0026511815
0.0025418514
0.0025284276
0.0025420568
0.0025284276
0.0025418514
0.0024339963
0.0024240741
0.0024339143
0.0024240741
0.0024339963
0.0023243378
0.0023170237
0.002323429
0.0023170237
0.0023243378
0.0022088126
0.0022044785
0.0022081381
0.0022044785
0.0022088126
0.0020828866
0.0020818999
0.0020835064
0.0020818999
0.0020828866
0.0019420934
0.0019445588
0.0019449391
0.0019445588
0.0019420934
0.001783
0.0017880331
0.0017883394
0.0017880331
0.001783
0.0016031727
0.0016087839
0.0016101412
0.0016087839
0.0016031727
0.0014230417
0.0014272793
0.0014299564
0.0014272793
0.0014230417
0.0012543313
0.0012565141
0.0012605433
0.0012565141
0.0012543313
0.0011030489
0.0011018984
0.001106786
0.0011018984
0.001103049
0.00097110471
0.00096804067
0.00097295895
0.00096804068
0.00097110472
0.00085975235
0.00085607532
0.00086092188
0.00085607532
0.00085975234
0.00076562589
0.00076215114
0.00076674507
0.00076215113
0.00076562584
0.00068272886
0.00067976991
0.00068382959
0.00067976991
0.00068272876
0.0006062586
0.0006036695
0.00060694484
0.00060366952
0.00060625842
0.00053322311
0.00053074005
0.0005331497
0.00053074002
0.00053322298
0.00046181939
0.0004592926
0.00046092718
0.00045929254
0.0004618193
0.00039095382
0.00038841378
0.00038942621
0.00038841371
0.00039095376
0.00032003948
0.00031764773
0.00031809445
0.00031764768
0.00032003944
0.00024887562
0.00024668056
0.00024678045
0.00024668053
0.00024887559
0.00017742567
0.00017545925
0.00017537075
0.00017545924
0.00017742565
0.00010575047
0.00010395539
0.00010373272
0.00010395538
0.00010575046
3.4055771e-05
3.2275128e-05
3.185076e-05
3.227512e-05
3.4055763e-05
)
;
    }
    maxZ
    {
        type            fixedFluxPressure;
        gradient        uniform 0;
        value           nonuniform List<scalar> 
150
(
0.003531026
0.0032874412
0.003323369
0.0032874412
0.003531026
0.0031817064
0.0030982991
0.0031348735
0.0030982991
0.0031817064
0.0030175234
0.0029636403
0.00299476
0.0029636403
0.0030175234
0.0028877026
0.0028502793
0.0028765134
0.0028502793
0.0028877026
0.0027657569
0.0027401341
0.002762064
0.0027401341
0.0027657569
0.0026511814
0.0026329174
0.002650618
0.0026329174
0.0026511814
0.0025418513
0.0025284275
0.0025420568
0.0025284275
0.0025418513
0.0024339962
0.002424074
0.0024339142
0.002424074
0.0024339962
0.0023243377
0.0023170236
0.0023234289
0.0023170236
0.0023243377
0.0022088125
0.0022044784
0.0022081381
0.0022044784
0.0022088125
0.0020828866
0.0020818998
0.0020835064
0.0020818998
0.0020828866
0.0019420933
0.0019445587
0.001944939
0.0019445587
0.0019420933
0.001783
0.001788033
0.0017883393
0.001788033
0.001783
0.0016031727
0.0016087839
0.0016101412
0.0016087839
0.0016031727
0.0014230417
0.0014272793
0.0014299563
0.0014272793
0.0014230417
0.0012543313
0.0012565141
0.0012605433
0.0012565141
0.0012543313
0.001103049
0.0011018984
0.001106786
0.0011018984
0.0011030489
0.00097110472
0.00096804069
0.00097295895
0.00096804067
0.00097110471
0.00085975236
0.00085607534
0.00086092188
0.00085607532
0.00085975234
0.00076562589
0.00076215116
0.00076674508
0.00076215114
0.00076562588
0.00068272884
0.00067976994
0.00068382961
0.00067976993
0.00068272884
0.00060625854
0.00060366953
0.00060694485
0.00060366953
0.00060625855
0.00053322307
0.00053074007
0.00053314972
0.00053074006
0.00053322308
0.00046181937
0.0004592926
0.0004609272
0.00045929259
0.00046181938
0.00039095381
0.00038841378
0.00038942623
0.00038841375
0.00039095381
0.00032003947
0.00031764773
0.00031809446
0.0003176477
0.00032003946
0.0002488756
0.00024668055
0.00024678044
0.00024668053
0.00024887559
0.00017742564
0.00017545923
0.00017537073
0.0001754592
0.00017742562
0.00010575041
0.00010395533
0.00010373267
0.00010395532
0.00010575041
3.405567e-05
3.2275014e-05
3.1850656e-05
3.2275023e-05
3.4055695e-05
)
;
    }
    bottomWater_to_rightSolid
    {
        type            fixedFluxPressure;
        gradient        uniform 0;
        value           nonuniform List<scalar> 
130
(
0.00097110472
0.00085975234
0.00076562584
0.00068272876
0.00060625842
0.00053322298
0.0004618193
0.00039095376
0.00032003944
0.00024887559
0.00017742565
0.00010575046
3.4055763e-05
0.00091817751
0.00081936652
0.00073902053
0.00066689543
0.00059767531
0.00052921378
0.00046065982
0.00039140737
0.00032121036
0.00025015203
0.00017847736
0.00010636501
3.4100492e-05
0.00081601472
0.00074340254
0.00069457306
0.00064707578
0.00059473208
0.00053663272
0.0004735898
0.00040638009
0.00033578621
0.00026281264
0.00018835225
0.00011301828
3.7246006e-05
0.00059427513
0.00062272301
0.00062447702
0.00060940063
0.00057692347
0.00053026979
0.00047357245
0.00040941363
0.00033985816
0.00026684992
0.00019188574
0.00011597182
3.9639048e-05
0.00025024316
0.00052048224
0.00056452178
0.00061149433
0.00060199659
0.00056172588
0.00050365329
0.00043480346
0.00035985279
0.00028185329
0.00020262631
0.00012320197