/*--------------------------------*- C++ -*----------------------------------*\
| =========                 |                                                 |
| \\      /  F ield         | OpenFOAM: The Open Source CFD Toolbox           |
|  \\    /   O peration     | Version:  2412                                  |
|   \\  /    A nd           | Website:  www.openfoam.com                      |
|    \\/     M anipulation  |                                                 |
\*---------------------------------------------------------------------------*/
FoamFile
{
    version     2.0;
    format      ascii;
    arch        "LSB;label=32;scalar=64";
    class       surfaceScalarField;
    location    "30/bottomWater";
    object      phi;
}
// * * * * * * * * * * * * * * * * * * * * * * * * * * * * * * * * * * * * * //

dimensions      [1 0 -1 0 0 0 0];

oriented        oriented;

internalField   nonuniform List<scalar> 
3858
(
7.3306541e-05
4.128677e-06
2.5647818e-06
6.6075274e-05
4.2148352e-06
3.0164316e-06
5.9606871e-05
3.6424392e-06
2.8259641e-06
5.4442286e-05
2.871276e-06
2.2933093e-06
5.0774057e-05
2.0818464e-06
1.5863828e-06
4.8532261e-05
1.4154181e-06
8.2637752e-07
4.7552291e-05
9.253508e-07
5.461871e-08
4.7618202e-05
5.9608018e-07
-6.6199119e-07
4.8611444e-05
3.8379939e-07
-1.3770413e-06
5.0462306e-05
2.3014039e-07
-2.0810025e-06
5.3106252e-05
9.8982359e-08
-2.7429277e-06
5.6354254e-05
-2.6424357e-08
-3.2215779e-06
5.9659372e-05
-1.4791023e-07
-3.1572074e-06
6.1554062e-05
-2.2874189e-07
-1.6659483e-06
6.2010531e-05
-2.6844448e-07
-1.8802468e-07
6.1198383e-05
-2.6701767e-07
1.0791653e-06
5.9339013e-05
-2.1894604e-07
2.0783164e-06
5.6610817e-05
-1.6653008e-07
2.8947263e-06
5.3511474e-05
-1.3018164e-07
3.2295241e-06
5.0521456e-05
-1.1062322e-07
3.1006415e-06
4.7933072e-05
-9.8764087e-08
2.6871482e-06
4.5857665e-05
-8.1974213e-08
2.1573809e-06
4.4287209e-05
-5.4930573e-08
1.6253873e-06
4.3153488e-05
-2.1915567e-08
1.1556364e-06
4.236433e-05
9.8211838e-09
7.7933662e-07
4.1826854e-05
3.5566668e-08
5.0190965e-07
4.1464241e-05
5.0249408e-08
3.1236334e-07
4.121589e-05
5.5880432e-08
1.924705e-07
4.1035232e-05
5.6067936e-08
1.2458981e-07
6.1083308e-08
9.8589478e-08
7.96504e-05
1.6531081e-06
2.8251685e-06
7.8490967e-05
1.81283e-06
3.5614385e-06
7.7029919e-05
1.6304851e-06
3.4730022e-06
7.5548191e-05
1.309764e-06
3.0432405e-06
7.4304445e-05
9.4767181e-07
2.3779204e-06
7.3531239e-05
6.2663239e-07
1.561992e-06
7.341816e-05
3.8531792e-07
6.5311152e-07
7.410063e-05
2.2490077e-07
-3.1129063e-07
7.5650985e-05
1.2728404e-07
-1.2938394e-06
7.8126472e-05
6.2995213e-08
-2.3083422e-06
8.1537917e-05
1.2314941e-08
-3.3247772e-06
8.5764631e-05
-3.644739e-08
-4.2166912e-06
9.0278905e-05
-8.124218e-08
-4.5809425e-06
9.3497095e-05
-1.1365673e-07
-3.3332745e-06
9.5094956e-05
-1.3362603e-07
-1.73268e-06
9.5216393e-05
-1.3670986e-07
-2.517445e-07
9.3957523e-05
-1.1784514e-07
1.1577689e-06
9.1478355e-05
-9.1338779e-08
2.403977e-06
8.8156116e-05
-7.1503123e-08
3.2635605e-06
8.4474905e-05
-6.1456113e-08
3.6320442e-06
8.0844835e-05
-5.684214e-08
3.5881476e-06
7.7544712e-05
-4.9684052e-08
3.2678324e-06
7.4733218e-05
-3.5887092e-08
2.7924506e-06
7.24644e-05
-1.7075098e-08
2.2639783e-06
7.0716527e-05
2.1705261e-09
1.7555237e-06
6.9425946e-05
1.5343929e-08
1.3108036e-06
6.8503235e-05
2.4197278e-08
9.4876241e-07
6.7858212e-05
2.8381219e-08
6.7252302e-07
6.7408979e-05
2.9967069e-08
4.7533379e-07
3.2656711e-08
3.5696422e-07
8.046469e-05
-1.6531076e-06
2.8415257e-06
8.0478537e-05
-1.8128281e-06
3.6118114e-06
8.0183374e-05
-1.6304813e-06
3.5561291e-06
7.9645591e-05
-1.3097589e-06
3.1573058e-06
7.9030755e-05
-9.4766694e-07
2.5101748e-06
7.8588311e-05
-6.2662923e-07
1.6957058e-06
7.8582838e-05
-3.8531686e-07
7.7610778e-07
7.9247698e-05
-2.2490117e-07
-2.1505797e-07
8.0724607e-05
-1.2728483e-07
-1.2223404e-06
8.31113e-05
-6.2995521e-08
-2.2607022e-06
8.6437965e-05
-1.2314337e-08
-3.3020356e-06
9.0601753e-05
3.6449043e-08
-4.2366848e-06
9.5115925e-05
8.1244665e-08
-4.676659e-06
9.8441458e-05
1.1365983e-07
-3.5528493e-06
0.00010021728
1.3362942e-07
-2.0430802e-06
0.00010052962
1.3671303e-07
-5.8575989e-07
9.9475169e-05
1.1784748e-07
8.1875788e-07
9.7184584e-05
9.1339717e-08
2.1079068e-06
9.4005946e-05
7.1502569e-08
3.0356321e-06
9.0385635e-05
6.1454684e-08
3.4974005e-06
8.6715147e-05
5.6841143e-08
3.5568046e-06
8.3279312e-05
4.968488e-08
3.3364665e-06
8.0266943e-05
3.5890458e-08
2.9405906e-06
7.7774229e-05
1.7080811e-08
2.4585588e-06
7.581527e-05
-2.165023e-09
1.9632946e-06
7.433985e-05
-1.5337714e-08
1.5061014e-06
7.3270778e-05
-2.4191856e-08
1.1174611e-06
7.251819e-05
-2.8377223e-08
8.0934639e-07
7.1997185e-05
-2.9964878e-08
5.809368e-07
-3.2656309e-08
4.3709983e-07
7.9650401e-05
-4.1286768e-06
2.8251685e-06
7.8490968e-05
-4.2148342e-06
3.5614384e-06
7.7029922e-05
-3.6424372e-06
3.4730021e-06
7.5548196e-05
-2.8712732e-06
3.0432404e-06
7.4304453e-05
-2.0818438e-06
2.3779204e-06
7.3531247e-05
-1.4154164e-06
1.5619923e-06
7.3418169e-05
-9.2535021e-07
6.5311207e-07
7.4100638e-05
-5.9608034e-07
-3.1128986e-07
7.5650991e-05
-3.8379972e-07
-1.2938384e-06
7.8126477e-05
-2.3014041e-07
-2.3083409e-06
8.153792e-05
-9.8981727e-08
-3.3247758e-06
8.5764633e-05
2.6425755e-08
-4.2166898e-06
9.0278907e-05
1.479122e-07
-4.5809413e-06
9.3497096e-05
2.2874425e-07
-3.3332734e-06
9.5094957e-05
2.6844699e-07
-1.7326791e-06
9.5216394e-05
2.6701991e-07
-2.5174388e-07
9.3957525e-05
2.1894755e-07
1.1577694e-06
9.1478357e-05
1.6653046e-07
2.4039773e-06
8.8156118e-05
1.3018082e-07
3.2635609e-06
8.4474906e-05
1.1062163e-07
3.6320449e-06
8.0844835e-05
9.8762576e-08
3.5881492e-06
7.7544711e-05
8.1973771e-08
3.2678354e-06
7.4733216e-05
5.4931678e-08
2.7924541e-06
7.2464397e-05
2.1917935e-08
2.2639818e-06
7.0716523e-05
-9.817767e-09
1.7555268e-06
6.9425942e-05
-3.5563286e-08
1.3108064e-06
6.8503232e-05
-5.0246358e-08
9.4876486e-07
6.7858207e-05
-5.5878065e-08
6.7252513e-07
6.7408973e-05
-5.6066533e-08
4.7533554e-07
-6.1083036e-08
3.5696567e-07
7.3306541e-05
2.5647818e-06
6.6075276e-05
3.0164316e-06
5.9606874e-05
2.8259641e-06
5.4442292e-05
2.2933095e-06
5.0774065e-05
1.5863831e-06
4.853227e-05
8.2637813e-07
4.75523e-05
5.461964e-08
4.761821e-05
-6.6199012e-07
4.8611451e-05
-1.37704e-06
5.0462311e-05
-2.0810011e-06
5.3106256e-05
-2.7429261e-06
5.6354258e-05
-3.2215762e-06
5.9659375e-05
-3.1572057e-06
6.1554066e-05
-1.6659468e-06
6.2010537e-05
-1.8802338e-07
6.119839e-05
1.0791666e-06
5.933902e-05
2.0783177e-06
5.6610823e-05
2.8947275e-06
5.3511479e-05
3.2295253e-06
5.0521457e-05
3.1006429e-06
4.793307e-05
2.6871499e-06
4.5857661e-05
2.157383e-06
4.4287202e-05
1.6253901e-06
4.3153481e-05
1.1556398e-06
4.2364323e-05
7.7934024e-07
4.1826846e-05
5.0191308e-07
4.1464233e-05
3.1236637e-07
4.1215882e-05
1.9247301e-07
4.1035224e-05
1.2459176e-07
9.8590979e-08
7.6681844e-05
4.3649574e-06
1.5179808e-06
7.2944383e-05
4.6728035e-06
2.0810883e-06
6.9616371e-05
4.0718791e-06
2.0820976e-06
6.6890688e-05
3.3419843e-06
1.6770073e-06
6.4901604e-05
2.5798191e-06
9.9564828e-07
6.3691078e-05
1.8777814e-06
1.5912185e-07
6.3282846e-05
1.2995431e-06
-8.3669243e-07
6.3719301e-05
8.4098778e-07
-1.9394335e-06
6.5064037e-05
4.799678e-07
-3.2017451e-06
6.7473611e-05
1.9700138e-07
-4.6875787e-06
7.1177145e-05
-3.1725053e-08
-6.4147358e-06
7.6282091e-05
-2.0219413e-07
-8.1243297e-06
8.2054358e-05
-2.5556875e-07
-8.6739064e-06
8.4229665e-05
-5.4961105e-08
-3.7862938e-06
8.4509931e-05
1.4021926e-07
-6.0850974e-07
8.361924e-05
2.5872353e-07
1.7111323e-06
8.1588353e-05
2.908106e-07
3.8183927e-06
7.8116131e-05
2.9276928e-07
6.0741796e-06
7.4150791e-05
2.5830409e-07
6.9365601e-06
7.0352699e-05
1.7795082e-07
6.7207827e-06
6.7087133e-05
8.0493633e-08
5.8722199e-06
6.4492524e-05
7.7225167e-11
4.7519127e-06
6.2546641e-05
-3.8902429e-08
3.6101726e-06
6.1154053e-05
-4.33162e-08
2.5915413e-06
6.0191193e-05
-2.5246703e-08
1.7674433e-06
5.9541222e-05
-1.7668889e-09
1.153647e-06
5.9105087e-05
2.0206391e-08
7.2829195e-07
5.8809246e-05
3.5040383e-08
4.532715e-07
5.8598272e-05
4.5577686e-08
2.8998566e-07
6.3240058e-08
2.1130038e-07
8.3709364e-05
1.7696575e-06
1.7111047e-06
8.7440472e-05
2.0193157e-06
2.483818e-06
9.0565124e-05
1.821437e-06
2.5987926e-06
9.3139205e-05
1.5199621e-06
2.2911814e-06
9.526748e-05
1.1782177e-06
1.6512466e-06
9.7103903e-05
8.4980371e-07
7.5354648e-07
9.8848498e-05
5.7343268e-07
-3.6537291e-07
0.00010075605
3.5438562e-07
-1.732243e-06
0.0001031009
1.8625552e-07
-3.3449784e-06
0.00010622623
6.1126195e-08
-5.2977957e-06
0.00011056363
-3.8595368e-08
-7.6553048e-06
0.0001165278
-1.103579e-07
-1.0272697e-05
0.0001238064
-1.3427526e-07
-1.1980835e-05
0.00012807556
-7.0028358e-08
-7.5873676e-06
0.00013061192
2.20077e-08
-4.1508272e-06
0.00013166014
7.7834707e-08
-1.119073e-06
0.00013114456
9.9606996e-08
1.8645475e-06
0.00012864453
9.9048192e-08
5.0977248e-06
0.00012488952
8.412704e-08
7.1927473e-06
0.00012056404
5.0487729e-08
8.0849867e-06
0.00011613684
9.8873911e-09
8.0859608e-06
0.0001119606
-2.7346312e-08
7.4714901e-06
0.00010828357
-4.5314698e-08
6.475892e-06
0.00010523502
-4.3858866e-08
5.3130746e-06
0.00010284136
-3.006327e-08
4.1539975e-06
0.00010104857
-1.2152435e-08
3.1139841e-06
9.9760291e-05
3.4760527e-09
2.2537699e-06
9.8864866e-05
1.4256305e-08
1.5887327e-06
9.8257923e-05
2.2552498e-08
1.1053019e-06
3.2327685e-08
7.8959884e-07
8.4648464e-05
-1.7696569e-06
1.7323757e-06
8.9766958e-05
-2.0193133e-06
2.5319462e-06
9.4294345e-05
-1.8214323e-06
2.6716116e-06
9.8100153e-05
-1.5199557e-06
2.3914157e-06
0.00010119231
-1.1782115e-06
1.7744486e-06
0.00010369922
-8.4979958e-07
8.8839326e-07
0.00010584261
-5.7343167e-07
-2.2041769e-07
0.00010793509
-3.5438752e-07
-1.5987638e-06
0.00011030575
-1.8625927e-07
-3.22048e-06
0.00011334849
-6.1130503e-08
-5.1811895e-06
0.00011752779
3.8591066e-08
-7.558523e-06
0.00012331042
1.1035455e-07
-1.0240024e-05
0.00013046494
1.3427262e-07
-1.2099727e-05
0.00013481921
7.0026076e-08
-8.04717e-06
0.00013768198
-2.2009905e-08
-4.8618367e-06
0.00013921492
-7.783799e-08
-1.9630318e-06
0.00013916492
-9.9612358e-08
1.0679795e-06
0.0001371072
-9.9056677e-08
4.3637381e-06
0.00013368361
-8.4139202e-08
6.6274891e-06
0.00012953358
-5.0503085e-08
7.7484176e-06
0.00012510524
-9.9033725e-09
8.0049338e-06
0.00012075629
2.7327778e-08
7.6307465e-06
0.00011678246
4.5300611e-08
6.8237999e-06
0.00011338145
4.3849507e-08
5.7718619e-06
0.00011064054
3.0058217e-08
4.6440866e-06
0.00010854824
1.2150423e-08
3.5740957e-06
0.00010702467
-3.4764518e-09
2.6479881e-06
0.00010595841
-1.4256476e-08
1.9041187e-06
0.00010523978
-2.2553367e-08
1.3446695e-06
-3.2329755e-08
9.6585663e-07
8.3709364e-05
-4.3649571e-06
1.7111047e-06
8.7440474e-05
-4.6728023e-06
2.4838179e-06
9.0565128e-05
-4.0718766e-06
2.5987925e-06
9.3139212e-05
-3.3419808e-06
2.2911814e-06
9.526749e-05
-2.5798158e-06
1.6512467e-06
9.7103915e-05
-1.8777793e-06
7.5354684e-07
9.884851e-05
-1.2995427e-06
-3.6537221e-07
0.00010075606
-8.4098885e-07
-1.732242e-06
0.00010310091
-4.7996987e-07
-3.3449771e-06
0.00010622624
-1.9700377e-07
-5.2977943e-06
0.00011056364
3.1722911e-08
-7.6553034e-06
0.0001165278
2.0219267e-07
-1.0272695e-05
0.0001238064
2.5556791e-07
-1.1980834e-05
0.00012807556
5.4960714e-08
-7.5873669e-06
0.00013061192
-1.4021955e-07
-4.150827e-06
0.00013166013
-2.5872421e-07
-1.1190732e-06
0.00013114456
-2.9081232e-07
1.8645468e-06
0.00012864453
-2.9277282e-07
5.0977227e-06
0.00012488951
-2.5831011e-07
7.1927443e-06
0.00012056403
-1.7795947e-07
8.0849827e-06
0.00011613683
-8.0504343e-08
8.0859565e-06
0.00011196059
-8.7951383e-11
7.471486e-06
0.00010828356
3.8893867e-08
6.4758891e-06
0.00010523501
4.3310876e-08
5.3130729e-06
0.00010284135
2.5244244e-08
4.1539969e-06
0.00010104856
1.7663047e-09
3.1139845e-06
9.9760283e-05
-2.020616e-08
2.253771e-06
9.8864858e-05
-3.504e-08
1.5887342e-06
9.8257914e-05
-4.5577704e-08
1.1053035e-06
-6.3240918e-08
7.8960032e-07
7.6681844e-05
1.5179807e-06
7.2944385e-05
2.0810883e-06
6.9616375e-05
2.0820975e-06
6.6890696e-05
1.6770073e-06
6.4901615e-05
9.9564853e-07
6.3691092e-05
1.5912244e-07
6.328286e-05
-8.3669144e-07
6.3719313e-05
-1.9394323e-06
6.5064047e-05
-3.2017436e-06
6.7473619e-05
-4.687577e-06
7.117715e-05
-6.414734e-06
7.6282094e-05
-8.1243278e-06
8.2054361e-05
-8.6739047e-06
8.4229668e-05
-3.7862924e-06
8.4509934e-05
-6.0850894e-07
8.3619244e-05
1.7111324e-06
8.1588357e-05
3.818392e-06
7.8116135e-05
6.074177e-06
7.4150794e-05
6.9365561e-06
7.0352699e-05
6.7207782e-06
6.7087129e-05
5.8722156e-06
6.4492515e-05
4.751909e-06
6.2546629e-05
3.6101702e-06
6.1154039e-05
2.5915408e-06
6.0191179e-05
1.7674444e-06
5.9541209e-05
1.1536492e-06
5.9105075e-05
7.2829459e-07
5.8809233e-05
4.5327415e-07
5.8598259e-05
2.8998802e-07
2.1130236e-07
7.6489111e-05
4.3791916e-06
6.4967845e-07
7.2822412e-05
4.7205786e-06
1.0272084e-06
6.970514e-05
4.1241162e-06
1.0752535e-06
6.7168971e-05
3.3899441e-06
8.2323226e-07
6.5244016e-05
2.6114848e-06
3.0911837e-07
6.3936241e-05
1.8749512e-06
-4.0805433e-07
6.3181252e-05
1.2489218e-06
-1.3306253e-06
6.3029535e-05
7.499233e-07
-2.5376396e-06
6.3644101e-05
3.4290994e-07
-4.1592211e-06
6.5386279e-05
-2.0565083e-08
-6.4091915e-06
6.8922583e-05
-3.7595516e-07
-9.5750848e-06
7.5244196e-05
-7.0753885e-07
-1.3738404e-05
8.4764991e-05
-7.9859405e-07
-1.7396107e-05
8.8359269e-05
-1.3887372e-07
-7.2416986e-06
8.9378672e-05
4.0912035e-07
-2.0370334e-06
8.8933346e-05
7.9188899e-07
1.3645699e-06
8.6936701e-05
1.0448824e-06
4.7701554e-06
8.1526643e-05
1.2165787e-06
1.0267658e-05
7.6086629e-05
1.1385178e-06
1.1238057e-05
7.1357775e-05
8.3818799e-07
1.0611449e-05
6.7732248e-05
4.6199076e-07
9.035756e-06
6.5191373e-05
1.2207407e-07
7.1707139e-06
6.3517025e-05
-1.1244952e-07
5.3969698e-06
6.2457529e-05
-2.2065414e-07
3.8716917e-06
6.1798929e-05
-2.2855433e-07
2.6545981e-06
6.1389677e-05
-1.836393e-07
1.7465383e-06
6.1132529e-05
-1.2409216e-07
1.1095314e-06
6.0968832e-05
-7.0717048e-08
6.8768545e-07
6.0863479e-05
-2.8729624e-08
4.2406835e-07
5.3793219e-09
2.7721005e-07
8.3572006e-05
1.7764486e-06
7.4184184e-07
8.7493883e-05
2.042534e-06
1.2399853e-06
9.0989062e-05
1.8466848e-06
1.3810452e-06
9.3932946e-05
1.5427873e-06
1.1944537e-06
9.629808e-05
1.1928562e-06
7.0474169e-07
9.8160391e-05
8.4773277e-07
-8.154605e-08
9.9618553e-05
5.4873977e-07
-1.1233526e-06
0.00010087414
3.1173763e-07
-2.5496414e-06
0.00010225915
1.2557346e-07
-4.5126586e-06
0.00010425868
-3.5489578e-08
-7.2823981e-06
0.00010768883
-1.9106307e-07
-1.1270348e-05
0.00011391557
-3.5230084e-07
-1.6854676e-05
0.00012441281
-4.125575e-07
-2.2864106e-05
0.00012991717
-1.3376988e-07
-1.3096831e-05
0.00013328862
1.4166126e-07
-7.2548164e-06
0.00013557454
3.3550314e-07
-2.9486096e-06
0.00013613637
4.6886267e-07
1.8787366e-06
0.00013271542
5.4730816e-07
9.1879459e-06
0.00012830463
5.2798029e-07
1.2214075e-05
0.00012360573
4.0342442e-07
1.321865e-05
0.00011906115
2.334574e-07
1.2859072e-05
0.00011494743
7.1701799e-08
1.163558e-05
0.00011140016
-5.1227557e-08
9.96194e-06
0.00010848347
-1.128333e-07
8.1219515e-06
0.00010620936
-1.2442032e-07
6.3239701e-06
0.00010452891
-1.0542719e-07
4.7162204e-06
0.00010335078
-7.4685896e-08
3.382498e-06
0.00010256845
-4.4796958e-08
2.3451372e-06
0.00010208496
-2.031872e-08
1.5803861e-06
-1.0854734e-10
1.057303e-06
8.4529372e-05
-1.776448e-06
7.5590007e-07
8.9874966e-05
-2.0425316e-06
1.2714185e-06
9.4810966e-05
-1.8466801e-06
1.4289765e-06
9.9026379e-05
-1.542781e-06
1.2615708e-06
0.00010239453
-1.1928501e-06
7.9200537e-07
0.00010496563
-8.4772903e-07
1.2751387e-08
0.00010685245
-5.4873942e-07
-1.0097555e-06
0.00010829983
-3.1174046e-07
-2.4226653e-06
0.0001096968
-1.2557832e-07
-4.3663e-06
0.00011155877
3.5483281e-08
-7.114132e-06
0.00011471531
1.9105741e-07
-1.1097181e-05
0.0001205181
3.5229573e-07
-1.6747414e-05
0.00013063099
4.1255295e-07
-2.3037725e-05
0.00013611203
1.3376546e-07
-1.3795751e-05
0.00013983324
-1.4166557e-07
-8.2997146e-06
0.00014269269
-3.3550873e-07
-4.151476e-06
0.000144031
-4.6887076e-07
6.6741242e-07
0.00014137394
-5.4732034e-07
8.1154257e-06
0.00013758237
-5.2799726e-07
1.1475033e-05
0.00013325303
-4.034457e-07
1.2884629e-05
0.00012878064
-2.3348112e-07
1.2944262e-05
0.00012448867
-7.1724928e-08
1.2066144e-05
0.00012057945
5.1206006e-08
1.0630591e-05
0.00011721895
1.128173e-07
8.9067108e-06
0.00011449975
1.2440905e-07
7.1144522e-06
0.00011243163
1.054198e-07
5.431367e-06
0.00011095221
7.4681058e-08
3.978048e-06
0.00010995772
4.4793394e-08
2.809016e-06
0.00010934023
2.031536e-08
1.9215241e-06
1.0539051e-10
1.2965391e-06
8.3572006e-05
-4.3791913e-06
7.418418e-07
8.7493885e-05
-4.7205773e-06
1.2399851e-06
9.0989066e-05
-4.1241137e-06
1.3810449e-06
9.3932953e-05
-3.3899407e-06
1.1944535e-06
9.629809e-05
-2.6114816e-06
7.0474165e-07
9.8160403e-05
-1.8749492e-06
-8.1545826e-08
9.9618565e-05
-1.2489216e-06
-1.123352e-06
0.00010087415
-7.4992495e-07
-2.5496406e-06
0.00010225916
-3.4291282e-07
-4.5126576e-06
0.00010425869
2.0561699e-08
-7.2823971e-06
0.00010768884
3.7595217e-07
-1.1270347e-05
0.00011391558
7.075364e-07
-1.6854676e-05
0.00012441281
7.9859207e-07
-2.2864106e-05
0.00012991717
1.3887213e-07
-1.3096831e-05
0.00013328861
-4.0912196e-07
-7.2548167e-06
0.00013557453
-7.91891e-07
-2.9486105e-06
0.00013613636
-1.0448855e-06
1.8787342e-06
0.00013271541
-1.2165838e-06
9.1879396e-06
0.00012830461
-1.1385256e-06
1.2214065e-05
0.00012360571
-8.3819894e-07
1.3218637e-05
0.00011906114
-4.6200436e-07
1.2859057e-05
0.00011494742
-1.2208868e-07
1.1635564e-05
0.00011140015
1.1243647e-07
9.9619263e-06
0.00010848346
2.2064485e-07
8.1219406e-06
0.00010620935
2.2854857e-07
6.3239624e-06
0.00010452891
1.8363601e-07
4.7162158e-06
0.00010335077
1.2409031e-07
3.3824958e-06
0.00010256845
7.0715854e-08
2.3451367e-06
0.00010208495
2.8728533e-08
1.5803868e-06
-5.3810539e-09
1.0573043e-06
7.6489111e-05
6.4967841e-07
7.2822414e-05
1.0272082e-06
6.9705144e-05
1.0752533e-06
6.7168979e-05
8.2323204e-07
6.5244028e-05
3.0911838e-07
6.3936255e-05
-4.0805398e-07
6.3181266e-05
-1.3306246e-06
6.3029548e-05
-2.5376387e-06
6.3644111e-05
-4.15922e-06
6.5386286e-05
-6.4091902e-06
6.8922588e-05
-9.5750834e-06
7.5244199e-05
-1.3738403e-05
8.4764992e-05
-1.7396106e-05
8.835927e-05
-7.2416981e-06
8.9378673e-05
-2.0370336e-06
8.8933345e-05
1.3645685e-06
8.69367e-05
4.770152e-06
8.1526644e-05
1.0267649e-05
7.608663e-05
1.1238044e-05
7.1357776e-05
1.0611434e-05
6.7732246e-05
9.0357409e-06
6.5191366e-05
7.1707002e-06
6.3517015e-05
5.3969585e-06
6.2457516e-05
3.8716839e-06
6.1798915e-05
2.6545938e-06
6.1389664e-05
1.746537e-06
6.1132516e-05
1.1095321e-06
6.0968819e-05
6.876871e-07
6.0863466e-05
4.2407028e-07
2.772119e-07
7.6017744e-05
4.3852305e-06
2.4670351e-07
7.190129e-05
4.7400561e-06
4.0360719e-07
6.8440111e-05
4.1333671e-06
4.0306536e-07
6.5639275e-05
3.3809185e-06
2.4314936e-07
6.3437843e-05
2.5875921e-06
-7.7041294e-08
6.1779801e-05
1.8447747e-06
-5.9478786e-07
6.0585787e-05
1.2050532e-06
-1.3416643e-06
5.9825177e-05
6.684048e-07
-2.4454338e-06
5.963793e-05
1.7373924e-07
-4.145714e-06
6.0463304e-05
-3.3770411e-07
-6.8968614e-06
6.335124e-05
-9.4692914e-07
-1.1516091e-05
7.0290894e-05
-1.6103114e-06
-1.9067747e-05
8.1017092e-05
-1.179202e-06
-2.6943102e-05
7.1017342e-05
2.7580513e-06
6.5595026e-05
3.3852824e-06
6.3922108e-05
3.0374879e-06
6.5734301e-05
2.957963e-06
6.0615771e-05
3.2673573e-06
1.2118831e-05
5.7366053e-05
2.6895673e-06
1.1798207e-05
5.5557505e-05
1.7714041e-06
1.0648592e-05
5.5377249e-05
8.9289439e-07
8.323118e-06
5.6070531e-05
2.1721304e-07
6.2602188e-06
5.7122956e-05
-1.8914779e-07
4.5336919e-06
5.8192993e-05
-3.625392e-07
3.1641943e-06
5.9091503e-05
-3.7159067e-07
2.1276782e-06
5.9760154e-05
-3.0193662e-07
1.3798245e-06
6.0216439e-05
-2.1333911e-07
8.6658499e-07
6.0509529e-05
-1.3705025e-07
5.3164616e-07
6.0693362e-05
-8.386844e-08
3.2410401e-07
-5.7670312e-08
2.0837697e-07
8.3064715e-05
1.7780482e-06
2.8430882e-07
8.6500848e-05
2.051936e-06
4.9197223e-07
8.9629271e-05
1.8524759e-06
5.3351388e-07
9.2264238e-05
1.5405127e-06
3.9989262e-07
9.4285252e-05
1.1833468e-06
8.7972991e-08
9.5669891e-05
8.3444147e-07
-4.5585235e-07
9.6503616e-05
5.2838967e-07
-1.2804135e-06
9.6878802e-05
2.7459194e-07
-2.5310151e-06
9.6975813e-05
5.4114166e-08
-4.4900443e-06
9.7223374e-05
-1.7383916e-07
-7.6938239e-06
9.8671495e-05
-4.4801993e-07
-1.3217378e-05
0.00010380556
-7.9954646e-07
-2.2799511e-05
0.00011542202
-7.5662499e-07
-3.4903137e-05
0.0001039744
1.108834e-06
9.8473418e-05
1.6314521e-06
9.7043214e-05
1.519082e-06
0.00010042338
1.4565334e-06
9.7613999e-05
1.5664242e-06
1.369826e-05
9.6647978e-05
1.3429569e-06
1.4526706e-05
9.6221571e-05
9.1789503e-07
1.4498566e-05
9.6599262e-05
4.8871364e-07
1.2885561e-05
9.7320377e-05
1.4680134e-07
1.0984877e-05
9.8127172e-05
-7.8516919e-08
9.0445143e-06
9.8888072e-05
-1.8156083e-07
7.1800732e-06
9.9554944e-05
-2.0054488e-07
5.4860521e-06
0.00010010604
-1.7155483e-07
4.0347468e-06
0.00010053966
-1.2610681e-07
2.8616366e-06
0.00010086779
-8.3426798e-08
1.9633876e-06
0.00010110971
-5.1992605e-08
1.3065887e-06
-3.4277172e-08
8.5641531e-07
8.4020977e-05
-1.7780477e-06
2.9101857e-07
8.8889522e-05
-2.0519338e-06
5.0674394e-07
9.3467207e-05
-1.8524714e-06
5.5623898e-07
9.7377622e-05
-1.5405067e-06
4.3217471e-07
0.00010040619
-1.183341e-06
1.3012773e-07
0.00010248679
-8.3443787e-07
-3.989735e-07
0.00010374515
-5.2838926e-07
-1.2113372e-06
0.00010431717
-2.7459453e-07
-2.4454978e-06
0.00010443863
-5.4118649e-08
-4.3795292e-06
0.0001045344
1.7383366e-07
-7.5575679e-06
0.00010561633
4.4801443e-07
-1.3075149e-05
0.00011003479
7.9954118e-07
-2.2764965e-05
0.00012095615
7.5662038e-07
-3.5472325e-05
0.00010937807
-1.1088383e-06
0.00010434126
-1.6314568e-06
0.00010322796
-1.5190877e-06
0.00010680845
-1.456542e-06
0.00010468401
-1.5664403e-06
1.337273e-05
0.00010441305
-1.3429786e-06
1.4431921e-05
0.00010439763
-9.1791923e-07
1.4735868e-05
0.00010488367
-4.8873714e-07
1.3435669e-05
0.00010549822
-1.4682149e-07
1.1745216e-05
0.00010606321
7.8500793e-08
9.9085897e-06
0.00010655322
1.8154949e-07
8.053588e-06
0.00010697418
2.0053722e-07
6.2924083e-06
0.00010733788
1.7154972e-07
4.7245581e-06
0.00010764927
1.2610323e-07
3.4144539e-06
0.00010790958
8.3424004e-08
2.3818493e-06
0.00010812029
5.1989985e-08
1.6068339e-06
3.4274274e-08
1.0609042e-06
8.3064716e-05
-4.3852302e-06
2.8430877e-07
8.650085e-05
-4.7400549e-06
4.9197205e-07
8.9629274e-05
-4.1333647e-06
5.3351356e-07
9.2264244e-05
-3.3809152e-06
3.9989226e-07
9.4285261e-05
-2.587589e-06
8.7972771e-08
9.5669902e-05
-1.8447728e-06
-4.558523e-07
9.6503627e-05
-1.205053e-06
-1.2804131e-06
9.6878813e-05
-6.6840629e-07
-2.5310144e-06
9.6975822e-05
-1.7374182e-07
-4.4900435e-06
9.722338e-05
3.3770105e-07
-7.6938232e-06
9.8671499e-05
9.4692627e-07
-1.3217378e-05
0.00010380557
1.6103088e-06
-2.279951e-05
0.00011542202
1.1791998e-06
-3.4903137e-05
0.0001039744
-2.7580533e-06
9.8473412e-05
-3.3852843e-06
9.7043204e-05
-3.0374899e-06
0.00010042336
-2.9579657e-06
9.7613978e-05
-3.2673628e-06
1.3698246e-05
9.6647959e-05
-2.6895753e-06
1.4526681e-05
9.6221554e-05
-1.771414e-06
1.4498536e-05
9.659925e-05
-8.9290529e-07
1.2885529e-05
9.7320369e-05
-2.1722357e-07
1.0984848e-05
9.8127167e-05
1.8913885e-07
9.0444902e-06
9.8888069e-05
3.6253315e-07
7.1800552e-06
9.9554942e-05
3.7158693e-07
5.48604e-06
0.00010010603
3.0193434e-07
4.0347396e-06
0.00010053966
2.1333765e-07
2.8616331e-06
0.00010086779
1.3704916e-07
1.9633866e-06
0.00010110971
8.3867372e-08
1.3065892e-06
5.7668878e-08
8.5641656e-07
7.6017745e-05
2.4670346e-07
7.1901291e-05
4.0360699e-07
6.8440115e-05
4.0306499e-07
6.5639283e-05
2.4314894e-07
6.3437853e-05
-7.7041567e-08
6.1779815e-05
-5.9478778e-07
6.0585801e-05
-1.3416639e-06
5.9825189e-05
-2.4454331e-06
5.963794e-05
-4.1457131e-06
6.0463312e-05
-6.8968604e-06
6.3351245e-05
-1.151609e-05
7.0290897e-05
-1.9067746e-05
8.1017093e-05
-2.6943102e-05
7.1017341e-05
6.5595023e-05
6.3922102e-05
6.5734288e-05
6.061576e-05
1.2118815e-05
5.7366048e-05
1.179818e-05
5.5557506e-05
1.0648562e-05
5.537725e-05
8.323091e-06
5.6070531e-05
6.2601964e-06
5.7122953e-05
4.533675e-06
5.8192987e-05
3.1641832e-06
5.9091495e-05
2.1276722e-06
5.9760144e-05
1.3798225e-06
6.0216428e-05
8.6658559e-07
6.0509516e-05
5.3164809e-07
6.0693348e-05
3.2410635e-07
2.0837922e-07
7.5855765e-05
4.3909379e-06
6.2151356e-13
7.1507225e-05
4.7521437e-06
2.9803703e-12
6.7762992e-05
4.1472924e-06
6.5150892e-12
6.4615555e-05
3.3905769e-06
9.1918506e-12
6.195061e-05
2.5878942e-06
9.2264117e-12
5.9529662e-05
1.8261545e-06
6.4928745e-12
5.702925e-05
1.1587449e-06
2.6821114e-12
5.4024833e-05
5.5898395e-07
-6.3976489e-13
4.9955402e-05
-7.6280706e-08
-2.8597638e-12
4.3981441e-05
-9.2289657e-07
-3.9721597e-12
3.47673e-05
-2.3019451e-06
-4.3531207e-12
2.0218211e-05
-4.5186534e-06
-4.3060569e-12
-6.7248885e-06
-3.4117968e-12
7.1068105e-06
5.0120145e-06
5.9224407e-12
1.6548314e-05
2.3566965e-06
7.9007737e-12
2.6369595e-05
8.2730436e-07
6.6466079e-12
3.5044224e-05
-3.5151644e-07
4.7518669e-12
4.2347746e-05
-1.0433059e-06
2.634732e-12
4.8138539e-05
-1.2571009e-06
5.2117654e-13
5.2478166e-05
-1.1754317e-06
-1.5058902e-12
5.5560722e-05
-9.5487431e-07
-3.5989297e-12
5.7640866e-05
-7.0031309e-07
-5.6763496e-12
5.8981236e-05
-4.7377733e-07
-7.6941029e-12
5.9816968e-05
-3.0407679e-07
-9.7229252e-12
6.0339579e-05
-1.9849438e-07
-1.1863209e-11
-1.6761075e-07
-1.3862009e-11
8.2894927e-05
1.7803192e-06
9.8234333e-13
8.6081075e-05
2.0579633e-06
4.3200451e-12
8.8902013e-05
1.8598589e-06
9.1677617e-12
9.1146542e-05
1.5459272e-06
1.3213217e-11
9.2638586e-05
1.1838091e-06
1.4175514e-11
9.3183148e-05
8.257288e-07
1.1409671e-11
9.2553902e-05
5.075718e-07
5.9102447e-12
9.0354206e-05
2.2766523e-07
-1.3056554e-13
8.5848721e-05
-6.0835241e-08
-5.1156449e-12
7.7667726e-05
-4.3571724e-07
-8.1023315e-12
6.3218727e-05
-1.0703153e-06
-9.0594005e-12
3.809933e-05
-2.1987592e-06
-8.3482825e-12
-3.5286894e-06
-5.8903594e-12
1.6155688e-05
2.5545816e-06
5.0461482e-12
3.1772359e-05
1.2667273e-06
4.0107757e-12
4.6652094e-05
4.4613492e-07
1.3324514e-12
5.9320211e-05
-1.340713e-07
-9.3824926e-13
6.9757223e-05
-4.9543918e-07
-2.5517164e-12
7.8178487e-05
-6.3384684e-07
-3.9777328e-12
8.4801505e-05
-6.1837068e-07
-5.5693119e-12
8.9854038e-05
-5.2134742e-07
-7.5403665e-12
9.3584093e-05
-3.9561188e-07
-1.0013325e-11
9.6247828e-05
-2.758629e-07
-1.3023424e-11
9.8088257e-05
-1.8110076e-07
-1.6559506e-11
9.9315676e-05
-1.1930499e-07
-2.0561208e-11
-9.5087163e-08
-2.4505216e-11
8.3851655e-05
-1.7803187e-06
1.0345487e-12
8.8474319e-05
-2.0579613e-06
4.4880783e-12
9.2750263e-05
-1.859855e-06
9.4451042e-12
9.6274273e-05
-1.5459218e-06
1.3644021e-11
9.8771999e-05
-1.1838038e-06
1.4846601e-11
0.00010002447
-8.257255e-07
1.2166948e-11
9.9828267e-05
-5.0757144e-07
6.4671272e-12
9.7838102e-05
-2.2766768e-07
-1.0493221e-13
9.3336913e-05
6.0830406e-08
-5.7332075e-12
8.4907925e-05
4.357118e-07
-9.2596819e-12
6.9692162e-05
1.0703096e-06
-1.045346e-11
4.2529694e-05
2.1987538e-06
-9.6038566e-12
3.5286863e-06
-6.6395924e-12
1.84819e-05
-2.554589e-06
-1.5874647e-13
3.5447273e-05
-1.2667161e-06
-8.3547046e-12
5.1075408e-05
-4.4611851e-07
-1.4037991e-11
6.4242933e-05
1.3408943e-07
-1.6716316e-11
7.4997272e-05
4.9545521e-07
-1.7027024e-11
8.3638171e-05
6.3385968e-07
-1.6008976e-11
9.0455024e-05
6.1837962e-07
-1.4752766e-11
9.5704746e-05
5.2135257e-07
-1.4097775e-11
9.9638093e-05
3.9561399e-07
-1.4515941e-11
0.00010250084
2.7586306e-07
-1.6148526e-11
0.0001045205
1.8109998e-07
-1.8920732e-11
0.00010588875
1.1930387e-07
-2.2623905e-11
9.508592e-08
-2.6585115e-11
8.2894927e-05
-4.3909377e-06
9.2014109e-13
8.6081076e-05
-4.7521427e-06
4.0925325e-12
8.8902016e-05
-4.1472903e-06
8.7443991e-12
9.1146548e-05
-3.390574e-06
1.2697846e-11
9.2638595e-05
-2.5878913e-06
1.3754773e-11
9.3183158e-05
-1.8261527e-06
1.1230913e-11
9.2553912e-05
-1.1587447e-06
6.0052495e-12
9.0354216e-05
-5.5898545e-07
1.7752597e-13
8.5848729e-05
7.6278012e-08
-4.7454785e-12
7.7667732e-05
9.2289356e-07
-7.7524419e-12
6.3218731e-05
2.3019421e-06
-8.7558161e-12
3.8099332e-05
4.5186505e-06
-8.0438405e-12
6.7248866e-06
-5.5469997e-12
1.6155674e-05
-5.0120136e-06
-3.441763e-12
3.1772344e-05
-2.3566877e-06
-1.7539568e-11
4.6652081e-05
-8.2729429e-07
-2.5114102e-11
5.9320201e-05
3.5152555e-07
-2.7396067e-11
6.9757218e-05
1.0433126e-06
-2.6004368e-11
7.8178485e-05
1.2571055e-06
-2.2634968e-11
8.4801504e-05
1.1754344e-06
-1.8874632e-11
8.9854037e-05
9.5487529e-07
-1.5925736e-11
9.3584092e-05
7.0031294e-07
-1.4435673e-11
9.6247826e-05
4.7377666e-07
-1.4586561e-11
9.8088253e-05
3.0407608e-07
-1.6262453e-11
9.9315672e-05
1.984938e-07
-1.9176325e-11
1.6761014e-07
-2.260428e-11
7.5855765e-05
5.544132e-13
7.1507227e-05
2.7191012e-12
6.7762996e-05
6.0013758e-12
6.4615562e-05
8.5539471e-12
6.195062e-05
8.7045311e-12
5.9529674e-05
6.2552989e-12
5.7029262e-05
2.7265959e-12
5.4024844e-05
-4.0779144e-13
4.9955412e-05
-2.5471921e-12
4.3981448e-05
-3.6342215e-12
3.4767304e-05
-3.9614757e-12
2.0218213e-05
-3.7649155e-12
-2.7978062e-12
7.1068043e-06
-2.9992213e-12
1.654831e-05
-1.3480662e-11
2.6369595e-05
-1.6804368e-11
3.5044228e-05
-1.6180799e-11
4.2347751e-05
-1.354817e-11
4.8138541e-05
-1.0368188e-11
5.2478166e-05
-7.5188416e-12
5.5560719e-05
-5.5085821e-12
5.764086e-05
-4.6095346e-12
5.8981227e-05
-4.8764621e-12
5.9816957e-05
-6.2092177e-12
6.0339566e-05
-8.3928217e-12
-1.0859603e-11
7.5855765e-05
4.3909378e-06
-2.4670231e-07
7.1507226e-05
4.7521435e-06
-4.0360158e-07
6.7762994e-05
4.1472921e-06
-4.0305325e-07
6.4615559e-05
3.3905766e-06
-2.4313254e-07
6.1950615e-05
2.5878938e-06
7.7059671e-08
5.9529666e-05
1.8261547e-06
5.9480041e-07
5.7029254e-05
1.1587454e-06
1.3416697e-06
5.4024836e-05
5.5898453e-07
2.445433e-06
4.9955404e-05
-7.6280204e-08
4.1457092e-06
4.3981441e-05
-9.2289645e-07
6.8968547e-06
3.4767299e-05
-2.3019457e-06
1.1516084e-05
2.0218209e-05
-4.518655e-06
1.906774e-05
-6.7248908e-06
2.6943097e-05
7.1068045e-06
5.0120272e-06
-1.2118826e-05
1.6548306e-05
2.3567082e-06
-1.1798202e-05
2.6369587e-05
8.2731378e-07
-1.0648588e-05
3.5044217e-05
-3.5150934e-07
-8.3231158e-06
4.234774e-05
-1.0433016e-06
-6.2602186e-06
4.8138533e-05
-1.2570989e-06