/*--------------------------------*- C++ -*----------------------------------*\
| =========                 |                                                 |
| \\      /  F ield         | OpenFOAM: The Open Source CFD Toolbox           |
|  \\    /   O peration     | Version:  2412                                  |
|   \\  /    A nd           | Website:  www.openfoam.com                      |
|    \\/     M anipulation  |                                                 |
\*---------------------------------------------------------------------------*/
FoamFile
{
    version     2.0;
    format      ascii;
    arch        "LSB;label=32;scalar=64";
    class       volScalarField;
    location    "30/bottomWater";
    object      T;
}
// * * * * * * * * * * * * * * * * * * * * * * * * * * * * * * * * * * * * * //

dimensions      [0 0 0 1 0 0 0];

internalField   nonuniform List<scalar> 
1460
(
300
300
300
300
300
299.99999
299.99999
299.99999
300
300
300
300.00009
300.0016
300.00193
300.00124
300.00071
300.00039
300.00021
300.0001
300.00005
300.00002
300.00001
300
300
300
300
300
300
300
300
300
300
300
300
300
300
300
300
300
300
300
300.00004
300.00111
300.00198
300.00192
300.00124
300.00073
300.0004
300.00021
300.00011
300.00005
300.00002
300.00001
300
300
300
300
300
300
300
300
300
300
300
300
300
300
300
300
300
300
300.00002
300.00061
300.00116
300.00119
300.00082
300.00047
300.00026
300.00014
300.00007
300.00003
300.00002
300.00001
300
300
300
300
300
300
300
300
300
300
300
300
300
300
300
300
300
300
300.00001
300.00038
300.00125
300.00168
300.00167
300.00152
300.0013
300.00104
300.00078
300.00055
300.00036
300.00022
300.00013
300.00007
300.00004
300.00002
300.00001
300
300
300
300
300
300
300
300
300
300.00001
300.00001
300.00002
300.00003
300.00006
300.00125
300.08738
300.11847
300.12248
300.11251
300.09541
300.07547
300.05593
300.03902
300.02579
300.01625
300.00982
300.00572
300.00323
300.00178
300.00097
300.00054
300.00034
300
300
300
300
300
299.99999
299.99999
299.99999
300
300
300.00005
300.00219
300.04625
300.05826
300.04411
300.02916
300.01846
300.01121
300.00652
300.00361
300.00188
300.00092
300.00041
300.00017
300.00006
300.00002
300.00001
300
300
300
300
300
300
300
300
300
300
300
300
300
300.00002
300.00102
300.02791
300.04897
300.05376
300.04247
300.0289
300.01865
300.0114
300.00661
300.00363
300.00189
300.00093
300.00043
300.00019
300.00008
300.00003
300.00001
300
300
300
300
300
300
300
300
300
300
300
300
300.00001
300.00053
300.01618
300.02971
300.03425
300.02865
300.01927
300.01225
300.00737
300.0042
300.00226
300.00116
300.00056
300.00026
300.00011
300.00004
300.00002
300.00001
300
300
300
300
300
300
300
300
300
300
300
300
300
300.00034
300.01064
300.01888
300.02073
300.01663
300.01183
300.00822
300.00553
300.00357
300.00219
300.00129
300.00073
300.0004
300.00021
300.00011
300.00005
300.00002
300.00001
300.00001
300
300
300
300
300
300
300.00001
300.00001
300.00002
300.00004
300.00007
300.00032
300.00744
300.13586
300.19392
300.20938
300.19813
300.17057
300.13542
300.09992
300.06898
300.04488
300.02773
300.0164
300.00934
300.00516
300.00278
300.00148
300.0008
300.00049
300
300
300
300
300
299.99999
299.99999
299.99999
300
300
300.00055
300.02403
300.59768
300.8304
300.7957
300.6215
300.47709
300.34197
300.22635
300.1376
300.0764
300.03864
300.01783
300.00752
300.00291
300.00104
300.00034
300.00011
300.00003
300.00001
300
300
300
300
300
300
300
300
300
300
300.00019
300.01055
300.33953
300.58203
300.70671
300.67956
300.53333
300.39352
300.27235
300.17707
300.10814
300.06193
300.03317
300.01657
300.00772
300.00335
300.00136
300.00052
300.00018
300.00006
300
300
300
300
300
300
300
300
300
300
300.0001
300.00586
300.20783
300.36842
300.46078
300.46035
300.35688
300.25982
300.17717
300.1133
300.06796
300.03819
300.02007
300.00985
300.00452
300.00193
300.00077
300.00029
300.0001
300.00003
300
300
300
300
300
300
300
300
300
300
300.00006
300.00392
300.14281
300.24245
300.28659
300.26554
300.19901
300.14064
300.09313
300.05767
300.03334
300.01799
300.0091
300.00432
300.00194
300.00082
300.00033
300.00013
300.00005
300.00002
300
300
300
300
300
300.00001
300.00001
300.00002
300.00004
300.00008
300.00018
300.00313
300.0965
300.38212
300.49697
300.50406
300.46364
300.38609
300.29404
300.20688
300.13578
300.08401
300.04947
300.028
300.01534
300.00819
300.00428
300.00222
300.00118
300.0007
300
300
300
300
300
299.99999
299.99999
299.99999
300
300.00005
300.00294
300.13457
303.87305
306.0937
308.24046
309.88625
310.5958
307.46919
304.72206
302.72576
301.4452
300.709
300.32318
300.13702
300.05399
300.01976
300.00672
300.00213
300.00063
300.00017
300
300
300
300
300
300
300
300
300
300.00001
300.00103
300.05883
302.20827
303.70917
305.19333
306.46946
307.26548
305.65123
304.00432
302.63732
301.62613
300.94253
300.51337
300.26247
300.12585
300.05656
300.02382
300.00941
300.00349
300.00122
300
300
300
300
300
300
300
300
300
300
300.00055
300.03448
301.4308
302.46825
303.45532
304.28114
304.81944
303.68138
302.56781
301.66631
301.01162
300.57659
300.3088
300.15535
300.07338
300.03253
300.01355
300.0053
300.00195
300.00068
300
300
300
300
300
300
300
300
300
300
300.00037
300.02384
301.01439
301.73543
302.38945
302.89819
303.16839
302.25511
301.46027
300.87967
300.49653
300.26377
300.13204
300.06228
300.02766
300.01156
300.00455
300.00169
300.00059
300.0002
300
300
300
300
300.00001
300.00001
300.00002
300.00004
300.00007
300.00014
300.00058
300.02014
300.7474
301.77291
302.50104
302.85071
302.83245
301.82836
301.07372
300.59488
300.31842
300.16787
300.08793
300.04577
300.02363
300.01207
300.00611
300.00309
300.00161
300.00094
300
300
300
300
299.99999
299.99999
299.99999
299.99999
300
300.00015
300.0092
300.4422
315.92441
321.60658
305.59445
302.17116
300.94995
300.42334
300.1848
300.07747
300.03082
300.01155
300.00406
300.00134
300.00041
300.00012
300
300
300
300
300
300
300
300
300
300.00004
300.00327
300.19716
309.29964
315.53268
305.259
302.37509
301.18622
300.60396
300.30269
300.14672
300.06811
300.03011
300.01263
300.00502
300.00189
300.00067
300
300
300
300
300
300
300
300
300
300.00002
300.00182
300.12067
306.32906
310.22692
303.41271
301.50294
300.73082
300.36346
300.17833
300.08474
300.03862
300.01679
300.00694
300.00272
300.00101
300.00036
300
300
300
300
300
300
300
300
300
300.00001
300.00124
300.08554
304.60794
306.47174
301.84989
300.73741
300.3327
300.15531
300.07194
300.0324
300.01404
300.00583
300.00231
300.00087
300.00032
300.00011
300
300
300
300
300.00001
300.00001
300.00002
300.00005
300.0001
300.00021
300.00158
300.07633
303.67191
304.87867
301.22465
300.53619
300.28016
300.1541
300.08552
300.04703
300.0254
300.01342
300.00696
300.00358
300.00188
300.00111
300
300
300
300
299.99999
299.99999
299.99999
299.99999
300
300.00015
300.0092
300.4422
315.92438
321.60659
305.59445
302.17116
300.94995
300.42334
300.1848
300.07747
300.03082
300.01155
300.00406
300.00134
300.00041
300.00012
300
300
300
300
300
300
300
300
300
300.00004
300.00327
300.19716
309.29962
315.5327
305.25901
302.3751
301.18622
300.60397
300.3027
300.14672
300.06811
300.03011
300.01263
300.00502
300.00189
300.00067
300
300
300
300
300
300
300
300
300
300.00002
300.00182
300.12067
306.32905
310.22696
303.41274
301.50295
300.73084
300.36347
300.17833
300.08475
300.03862
300.01679
300.00694
300.00272
300.00101
300.00036
300
300
300
300
300
300
300
300
300
300.00001
300.00124
300.08554
304.60793
306.47179
301.84991
300.73743
300.33271
300.15531
300.07194
300.0324
300.01404
300.00583
300.00231
300.00087
300.00032
300.00011
300
300
300
300
300.00001
300.00001
300.00002
300.00005
300.0001
300.00021
300.00158
300.07633
303.6719
304.87873
301.22468
300.53621
300.28017
300.15411
300.08553
300.04703
300.0254
300.01342
300.00696
300.00358
300.00188
300.00111
300
300
300
300
299.99999
299.99999
299.99999
299.99999
300
300.00005
300.00294
300.13457
303.87304
306.09369
308.24044
309.88624
310.59579
307.46918
304.72206
302.72575
301.4452
300.709
300.32318
300.13702
300.05399
300.01976
300.00672
300.00213
300.00063
300.00017
300
300
300
300
300
300
300
300
300
300.00001
300.00103
300.05883
302.20826
303.70916
305.19331
306.46944
307.26547
305.65122
304.00432
302.63732
301.62613
300.94253
300.51338
300.26247
300.12585
300.05656
300.02382
300.00941
300.00349
300.00122
300
300
300
300
300
300
300
300
300
300
300.00055
300.03448
301.43079
302.46825
303.45531
304.28113
304.81944
303.68138
302.56781
301.66632
301.01163
300.5766
300.30881
300.15535
300.07338
300.03253
300.01355
300.0053
300.00195
300.00068
300
300
300
300
300
300
300
300
300
300
300.00037
300.02384
301.01439
301.73543
302.38944
302.89819
303.1684
302.25512
301.46029
300.87968
300.49653
300.26377
300.13204
300.06228
300.02766
300.01156
300.00455
300.00169
300.00059
300.0002
300
300
300
300
300
300.00001
300.00002
300.00004
300.00007
300.00014
300.00058
300.02014
300.7474
301.7729
302.50104
302.85073
302.83247
301.82839
301.07374
300.59489
300.31844
300.16788
300.08793
300.04578
300.02363
300.01207
300.00611
300.00309
300.00161
300.00094
300
300
300
300
299.99999
299.99999
299.99999
299.99999
299.99999
300
300.00055
300.02403
300.59768
300.8304
300.79569
300.6215
300.47708
300.34197
300.22635
300.1376
300.0764
300.03864
300.01783
300.00752
300.00291
300.00104
300.00034
300.00011
300.00003
300.00001
300
300
300
300
300
300
300
300
300
300
300.00019
300.01055
300.33953
300.58203
300.7067
300.67956
300.53333
300.39352
300.27235
300.17707
300.10814
300.06193
300.03317
300.01657
300.00772
300.00335
300.00136
300.00052
300.00018
300.00006
300
300
300
300
300
300
300
300
300
300
300.0001
300.00586
300.20783
300.36842
300.46078
300.46035
300.35687
300.25982
300.17717
300.1133
300.06796
300.03819
300.02007
300.00985
300.00452
300.00193
300.00077
300.00029
300.0001
300.00003
300
300
300
300
300
300
300
300
300
300
300.00006
300.00392
300.14281
300.24245
300.28659
300.26554
300.19901
300.14064
300.09313
300.05767
300.03334
300.01799
300.0091
300.00432
300.00194
300.00082
300.00033
300.00013
300.00005
300.00002
300
300
300
300
300
300.00001
300.00001
300.00002
300.00004
300.00008
300.00018
300.00313
300.0965
300.38212
300.49697
300.50406
300.46364
300.3861
300.29405
300.20689
300.13579
300.08401
300.04948
300.028
300.01534
300.00819
300.00428
300.00222
300.00118
300.0007
300
300
300
300
299.99999
299.99999
299.99999
299.99999
299.99999
300
300.00005
300.00219
300.04625
300.05826
300.0441
300.02916
300.01846
300.01121
300.00652
300.00361
300.00188
300.00092
300.00041
300.00017
300.00006
300.00002
300.00001
300
300
300
300
300
300
300
300
300
300
299.99999
300
300
300.00002
300.00102
300.02791
300.04897
300.05376
300.04247
300.0289
300.01865
300.0114
300.00661
300.00363
300.00189
300.00093
300.00043
300.00019
300.00008
300.00003
300.00001
300
300
300
300
300
300
300
300
300
300
300
300
300.00001
300.00053
300.01618
300.02971
300.03425
300.02865
300.01927
300.01225
300.00737
300.0042
300.00226
300.00116
300.00056
300.00026
300.00011
300.00004
300.00002
300.00001
300
300
300
300
300
300
300
300
300
300
300
300
300
300.00034
300.01064
300.01888
300.02073
300.01663
300.01183
300.00822
300.00553
300.00357
300.00219
300.00129
300.00073
300.0004
300.00021
300.00011
300.00005
300.00002
300.00001
300.00001
300
300
300
300
300
300
300.00001
300.00001
300.00002
300.00004
300.00007
300.00032
300.00744
300.13586
300.19391
300.20938
300.19814
300.17058
300.13543
300.09992
300.06898
300.04488
300.02774
300.0164
300.00935
300.00516
300.00278
300.00148
300.0008
300.00049
300
300
300
300
299.99999
299.99999
299.99999
299.99999
299.99999
300
300
300.00009
300.0016
300.00193
300.00124
300.00071
300.00039
300.00021
300.0001
300.00005
300.00002
300.00001
300
300
300
300
300
300
300
300
300
300
300
300
300
300
300
300
300
300
300
300.00004
300.00111
300.00198
300.00192
300.00124
300.00073
300.0004
300.00021
300.00011
300.00005
300.00002
300.00001
300
300
300
300
300
300
300
300
300
300
300
300
300
300
300
300
300
300
300.00002
300.00061
300.00116
300.00119
300.00082
300.00047
300.00026
300.00014
300.00007
300.00003
300.00002
300.00001
300
300
300
300
300
300
300
300
300
300
300
300
300
300
300
300
300
300
300.00001
300.00038
300.00125
300.00168
300.00167
300.00152
300.0013
300.00104
300.00078
300.00055
300.00036
300.00022
300.00013
300.00007
300.00004
300.00002
300.00001
300
300
300
300
300
300
300
300
300
300.00001
300.00001
300.00002
300.00003
300.00006
300.00125
300.08738
300.11847
300.12248
300.11251
300.09542
300.07547
300.05593
300.03903
300.02579
300.01625
300.00982
300.00572
300.00323
300.00178
300.00097
300.00054
300.00034
)
;

boundaryField
{
    minX
    {
        type            fixedValue;
        value           uniform 300;
    }
    maxX
    {
        type            inletOutlet;
        inletValue      uniform 300;
        value           nonuniform List<scalar> 
50
(
300
300
300
300
300.00034
300
300
300
300.00001
300.00048
300.00001
300.00006
300.00003
300.00002
300.00069
300.00017
300.00121
300.00067
300.0002
300.00094
300.00012
300.00067
300.00035
300.00011
300.0011
300.00012
300.00067
300.00035
300.00011
300.0011
300.00017
300.00121
300.00067
300.0002
300.00094
300.00001
300.00006
300.00003
300.00002
300.00069
300
300
300
300.00001
300.00048
300
300
300
300
300.00034
)
;
    }
    minY
    {
        type            zeroGradient;
    }
    minZ
    {
        type            zeroGradient;
    }
    maxZ
    {
        type            zeroGradient;
    }
    bottomWater_to_rightSolid
    {
        type            compressible::turbulentTemperatureRadCoupledMixed;
        refValue        nonuniform List<scalar> 
130
(
302.92709
302.28801
301.70352
301.21263
300.82828
300.54464
300.34577
300.21257
300.127
300.07424
300.04321
300.02633
300.01897
304.35576
303.32058
302.4062
301.66776
301.11117
300.71439
300.44458
300.26858
300.15805
300.0912
300.0525
300.0317
300.0227
307.52005
305.5011
303.82414
302.5506
301.6422
301.02471
300.62142
300.36715
300.212
300.12039
300.06839
300.04086
300.02906
312.85645
308.81491
305.79892
303.69775
302.296
301.39127
300.82382
300.47735
300.27128
300.1521
300.08555
300.05075
300.03595
319.88941
312.30368
307.58716
304.6351
302.79367
301.65686
300.9655
300.55267
300.31118
300.17327
300.097
300.05739
300.04062
319.88945
312.30369
307.5872
304.63509
302.79367
301.65686
300.96551
300.55267
300.31118
300.17327
300.097
300.05739
300.04062
312.8565
308.81494
305.79895
303.69778
302.29601
301.39127
300.82384
300.47735
300.27128
300.1521
300.08555
300.05075
300.03595
307.52015
305.50117
303.8242
302.55064
301.64222
301.02472
300.62144
300.36716
300.212
300.12039
300.06839
300.04086
300.02907
304.35586
303.32066
302.40626
301.6678
301.11119
300.71441
300.44461
300.26859
300.15805
300.0912
300.0525
300.0317
300.0227
302.9272
302.2881
301.70359
301.21268
300.82831
300.54466
300.34579
300.21258
300.12701
300.07425
300.04322
300.02633
300.01897
)
;
        refGradient     uniform 0;
        valueFraction   uniform 0.99248593;
        source          uniform 0;
        logInterval     -1;
        writePrecision  8;
        updateHeader    1;
        writeToFile     0;
        useUserTime     1;
        kappaMethod     fluidThermo;
        value           nonuniform List<scalar> 
130
(
302.90581
302.27139
301.69114
301.20381
300.82225
300.54066
300.34325
300.21102
300.12607
300.0737
300.0429
300.02614
300.01883
304.3243
303.29664
302.38887
301.65574
301.10315
300.70923
300.44137
300.26663
300.1569
300.09054
300.05212
300.03147
300.02254
307.46644
305.46197
303.79696
302.53245
301.63048
301.01738
300.61696
300.36451
300.21047
300.11951
300.06789
300.04056
300.02885
312.77355
308.75672
305.7598
303.67235
302.28
301.38147
300.81798
300.47394
300.26933
300.151
300.08493
300.05038
300.03569
319.77655
312.22041
307.53417
304.60237
302.77384
301.64505
300.9586
300.5487
300.30895
300.17202
300.0963
300.05698
300.04033
319.77659
312.22042
307.5342
304.60236
302.77384
301.64505
300.95861
300.5487
300.30895
300.17202
300.0963
300.05698
300.04033
312.7736
308.75675
305.75983
303.67238
302.28002
301.38148
300.818
300.47394
300.26934
300.151
300.08493
300.05038
300.03569
307.46654
305.46204
303.79701
302.53249
301.63051
301.01739
300.61698
300.36452
300.21047
300.11952
300.06789
300.04056
300.02885
304.32441
303.29672
302.38893
301.65579
301.10318
300.70925
300.44139
300.26664
300.15691
300.09054
300.05212
300.03147
300.02254
302.90592
302.27147
301.69121
301.20386
300.82228
300.54068
300.34327
300.21102
300.12608
300.0737
300.0429
300.02614
300.01883
)
;
    }
    bottomWater_to_leftSolid
    {
        type            compressible::turbulentTemperatureRadCoupledMixed;
        refValue        nonuniform List<scalar> 
130
(
300.00002
300.00002
300.00004
300.00007
300.00013
300.00022
300.00037
300.00059
300.00091
300.00132
300.00182
300.00233
300.00276
300.00002
300.00003
300.00005
300.00009
300.00017
300.00031
300.00053
300.00087
300.00139
300.00212
300.00305
300.0041
300.00502
300.00003
300.00004
300.00007
300.00013
300.00025
300.00046
300.00082
300.00142
300.00239
300.00385
300.00592
300.00857
300.01129
300.00003
300.00005
300.00009
300.00018
300.00034
300.00065
300.00119
300.00214
300.00376
300.00645
300.01072
300.01715
300.02563
300.00004
300.00006
300.00011
300.00021
300.00041
300.00078
300.00147
300.00271
300.00494
300.00888
300.01587
300.02825
300.04976
300.00004
300.00006
300.00011
300.00021
300.00041
300.00078
300.00147
300.00271
300.00494
300.00888
300.01587
300.02825
300.04976
300.00003
300.00005
300.00009
300.00018
300.00034
300.00065
300.00119
300.00214
300.00376
300.00645
300.01073
300.01715
300.02563
300.00003
300.00004
300.00007
300.00013
300.00025
300.00046
300.00082
300.00142
300.00239
300.00385
300.00592
300.00857
300.01129
300.00002
300.00003
300.00005
300.00009
300.00017
300.00031
300.00053
300.00087
300.00139
300.00212
300.00305
300.0041
300.00502
300.00002
300.00002
300.00004
300.00007
300.00013
300.00022
300.00037
300.00059
300.00091
300.00132
300.00182
300.00233
300.00276
)
;
        refGradient     uniform 0;
        valueFraction   uniform 0.99248593;
        source          uniform 0;
        logInterval     -1;
        writePrecision  8;
        updateHeader    1;
        writeToFile     0;
        useUserTime     1;
        kappaMethod     fluidThermo;
        value           nonuniform List<scalar> 
130
(
300.00002
300.00002
300.00004
300.00007
300.00013
300.00022
300.00037
300.00059
300.0009
300.00131
300.00181
300.00232
300.00275
300.00002
300.00003
300.00005
300.00009
300.00017
300.0003
300.00052
300.00087
300.00138
300.0021
300.00303
300.00407
300.00503
300.00003
300.00004
300.00007
300.00013
300.00025
300.00046
300.00082
300.00141
300.00237
300.00382
300.00588
300.00853
300.01193
300.00003
300.00005
300.00009
300.00018
300.00034
300.00064
300.00118
300.00213
300.00374
300.0064
300.01065
300.01717
300.03104
300.00004
300.00006
300.00011
300.00021
300.00041
300.00078
300.00146
300.00269
300.0049
300.00882
300.01576
300.02861
300.07694
300.00004
300.00006
300.00011
300.00021
300.00041
300.00078
300.00146
300.00269
300.0049
300.00882
300.01576
300.02861
300.07694
300.00003
300.00005
300.00009
300.00018
300.00034
300.00064
300.00118
300.00213
300.00374
300.0064
300.01065
300.01717
300.03104
300.00003
300.00004
300.00007
300.00013
300.00025
300.00046
300.00082
300.00141
300.00237
300.00382
300.00588
300.00853
300.01193
300.00002
300.00003
300.00005
300.00009
300.00017
300.0003
300.00052
300.00087
300.00138
300.0021
300.00303
300.00407
300.00503
300.00002
300.00002
300.00004
300.00007
300.00013
300.00022
300.00037
300.00059
300.0009
300.00131
300.00181
300.00232
300.00275
)
;
    }
    bottomWater_to_heater
    {
        type            compressible::turbulentTemperatureRadCoupledMixed;
        refValue        nonuniform List<scalar> 
92
(
304.71211
304.50409
304.10541
303.55573
307.24771
306.92299
306.28861
305.39397
313.1108
312.53666
311.36793
309.62845
478.66694
479.41177
479.4101
478.68157
440.80604
441.65398
441.60542
440.7126
407.85347
408.47303
408.28661
407.41345
380.15861
380.4101
379.88866
378.85224
323.87143
358.00202
322.95653
357.71716
320.93648
356.4355
317.55254
354.49795
478.66694
478.68157
440.80604
440.7126
407.85347
407.41345
380.15861
378.85224
358.00202
354.49795
478.66686
478.66686
479.41171
479.41005
478.68155
478.68155
440.80589
440.80589
441.65388
441.60536
440.71259
440.71259
407.8533
407.8533
408.47295
408.28659
407.4135
407.4135
380.15846
380.15846
380.41005
379.88868
378.85234
378.85234
358.00193
358.00193
357.71716
356.43557
354.4981
354.4981
323.87141
322.95658
320.93658
317.55266
313.11076
312.53669
311.36803
309.62858
307.24767
306.92302
306.2887
305.3941
304.71205
304.50411
304.10549
303.55587
)
;
        refGradient     uniform 0;
        valueFraction   uniform 0.99248593;
        source          uniform 0;
        logInterval     -1;
        writePrecision  8;
        updateHeader    1;
        writeToFile     0;
        useUserTime     1;
        kappaMethod     fluidThermo;
        value           nonuniform List<scalar> 
92
(
304.67736
304.47113
304.07547
303.52985
307.19426
306.87243
306.24292
305.35493
313.01515
312.44618
311.28629
309.55957
477.37018
478.12553
478.13623
477.41851
439.77586
440.62858
440.58997
439.70982
407.06158
407.6839
407.50508
406.64251
379.56931
379.82383
379.31012
378.28351
323.70536
357.57949
322.80279
357.30223
320.80054
356.03282
317.44189
354.10969
477.44401
477.50117
439.81786
439.77186
407.09058
406.68309
379.59088
378.30829
357.59374
354.12504
477.44394
477.37011
478.12548
478.13619
477.50115
477.41848
439.81771
439.77571
440.62848
440.58991
439.77186
439.70981
407.09041
407.06141
407.68382
407.50505
406.68314
406.64256
379.59073
379.56917
379.82378
379.31014
378.3084
378.28362
357.59365
357.5794
357.30223
356.03289
354.12519
354.10984
323.70534
322.80285
320.80064
317.44201
313.01511
312.44622
311.28638
309.5597
307.19423
306.87246
306.24301
305.35505
304.6773
304.47115
304.07556
303.52999
)
;
    }
}


// ************************************************************************* //
