/*--------------------------------*- C++ -*----------------------------------*\
| =========                 |                                                 |
| \\      /  F ield         | OpenFOAM: The Open Source CFD Toolbox           |
|  \\    /   O peration     | Version:  2412                                  |
|   \\  /    A nd           | Website:  www.openfoam.com                      |
|    \\/     M anipulation  |                                                 |
\*---------------------------------------------------------------------------*/
FoamFile
{
    version     2.0;
    format      ascii;
    arch        "LSB;label=32;scalar=64";
    class       volVectorField;
    location    "30/bottomWater";
    object      U;
}
// * * * * * * * * * * * * * * * * * * * * * * * * * * * * * * * * * * * * * //

dimensions      [0 1 -1 0 0 0 0];

internalField   nonuniform List<vector> 
1460
(
(0.00091076398 5.857167e-05 4.1618796e-05)
(0.00088253813 6.1567623e-05 4.8358971e-05)
(0.00078737128 5.2095965e-05 4.3685401e-05)
(0.00070829699 4.0462249e-05 3.512264e-05)
(0.00065300084 2.9313379e-05 2.5279146e-05)
(0.0006170821 2.0291071e-05 1.5751866e-05)
(0.0005974528 1.385836e-05 7.0560063e-06)
(0.00059237977 9.5582635e-06 -8.0965995e-07)
(0.00059934287 6.6693397e-06 -7.4420126e-06)
(0.00061726782 4.433302e-06 -1.2515773e-05)
(0.00064555679 2.4192094e-06 -1.5380321e-05)
(0.00068306185 4.3029444e-07 -1.4309743e-05)
(0.0007263925 -1.6101119e-06 -6.2940319e-06)
(0.0007605244 -3.0467469e-06 1.3529709e-05)
(0.00077541448 -3.9371871e-06 2.9212295e-05)
(0.00077323563 -4.1791202e-06 3.6539352e-05)
(0.0007561944 -3.6017033e-06 3.9030255e-05)
(0.00072690521 -2.8352583e-06 3.9409037e-05)
(0.00068942736 -2.2931431e-06 3.6524878e-05)
(0.00065009422 -1.95566e-06 3.0866873e-05)
(0.00061435832 -1.6849447e-06 2.4113636e-05)
(0.00058487921 -1.3287001e-06 1.7633241e-05)
(0.00056211541 -8.4510142e-07 1.2138789e-05)
(0.00054539282 -3.1166758e-07 7.8543962e-06)
(0.00053360997 1.480678e-07 4.7578278e-06)
(0.00052555539 4.5653384e-07 2.6829143e-06)
(0.00052012255 6.2265268e-07 1.4035959e-06)
(0.00051646462 6.75987e-07 6.8769413e-07)
(0.00051386472 6.4927102e-07 3.4179698e-07)
(0.00051095218 7.3063147e-07 3.3413392e-07)
(0.00097311737 5.4993005e-05 4.5903368e-05)
(0.00099261996 5.8530851e-05 5.8440293e-05)
(0.00097627517 5.2333756e-05 5.6143031e-05)
(0.00095362101 4.2012742e-05 4.8821377e-05)
(0.0009352669 3.0486232e-05 3.8864736e-05)
(0.00092250881 2.0280892e-05 2.7737055e-05)
(0.00091653162 1.2576848e-05 1.6423473e-05)
(0.00091973431 7.411234e-06 5.3603925e-06)
(0.00093371946 4.2286533e-06 -4.9066982e-06)
(0.00095878108 2.1087028e-06 -1.3680775e-05)
(0.00099560889 4.285436e-07 -2.0241014e-05)
(0.0010439435 -1.1427466e-06 -2.2728146e-05)
(0.0011009678 -2.5626921e-06 -1.7314695e-05)
(0.0011514917 -3.4922553e-06 2.6713773e-06)
(0.0011829408 -3.8590485e-06 2.2702025e-05)
(0.0011931519 -3.8486053e-06 3.6343805e-05)
(0.0011861269 -3.2339351e-06 4.3657314e-05)
(0.0011625997 -2.4561495e-06 4.7440961e-05)
(0.0011253967 -1.8896438e-06 4.7200614e-05)
(0.0010801689 -1.6126596e-06 4.2995708e-05)
(0.0010330951 -1.497264e-06 3.6334083e-05)
(0.00098885449 -1.3146067e-06 2.8825464e-05)
(0.00095020443 -9.4432036e-07 2.1624779e-05)
(0.0009183578 -4.3202111e-07 1.5433894e-05)
(0.00089337539 9.0577762e-08 1.0533705e-05)
(0.0008746101 5.1409056e-07 6.9105803e-06)
(0.00086105191 7.8003676e-07 4.3828311e-06)
(0.00085153768 8.9903421e-07 2.731299e-06)
(0.00084488097 9.3820197e-07 1.7289927e-06)
(0.0008385208 1.0066173e-06 1.3940252e-06)
(0.00097759951 4.8071776e-12 4.5810022e-05)
(0.0010088238 1.7996224e-11 5.89375e-05)
(0.00100872 3.5626289e-11 5.7300923e-05)
(0.00099999411 4.6954745e-11 5.0509884e-05)
(0.00099144317 4.3625214e-11 4.0783558e-05)
(0.00098444161 2.7335552e-11 2.956498e-05)
(0.00098095394 7.6403413e-12 1.794997e-05)
(0.00098438228 -6.0555851e-12 6.4677632e-06)
(0.00099767075 -9.9482015e-12 -4.2652936e-06)
(0.0010216404 -5.9493295e-12 -1.3433936e-05)
(0.0010573092 1.6450668e-12 -2.0317049e-05)
(0.0011046499 9.2723033e-12 -2.3218552e-05)
(0.0011612012 1.5400549e-11 -1.838759e-05)
(0.0012123894 1.9179663e-11 8.2654335e-07)
(0.0012457561 1.9767914e-11 2.0513567e-05)
(0.0012585067 1.6801298e-11 3.4481279e-05)
(0.0012537182 9.7078686e-12 4.2650794e-05)
(0.0012328043 -7.4372209e-13 4.7123047e-05)
(0.0011978304 -1.088618e-11 4.7494042e-05)
(0.0011539576 -1.5476216e-11 4.3836487e-05)
(0.0011070178 -9.7257926e-12 3.7621311e-05)
(0.001061616 6.2540097e-12 3.0437377e-05)
(0.0010207573 2.5732659e-11 2.3389402e-05)
(0.00098613672 4.2576896e-11 1.7146156e-05)
(0.0009583504 5.3929129e-11 1.2038642e-05)
(0.00093708027 5.3034459e-11 8.1275851e-06)
(0.00092144746 4.4077291e-11 5.3166599e-06)
(0.00091035552 3.086804e-11 3.4235249e-06)
(0.00090259307 1.5168914e-11 2.2266937e-06)
(0.00089533501 3.4697716e-13 1.7666919e-06)
(0.00097311737 -5.4992999e-05 4.5903367e-05)
(0.00099261997 -5.8530827e-05 5.8440293e-05)
(0.0009762752 -5.2333708e-05 5.614303e-05)
(0.00095362107 -4.2012677e-05 4.8821376e-05)
(0.00093526698 -3.0486168e-05 3.8864737e-05)
(0.00092250892 -2.0280849e-05 2.7737058e-05)
(0.00091653173 -1.2576831e-05 1.6423479e-05)
(0.00091973442 -7.4112344e-06 5.3604025e-06)
(0.00093371955 -4.2286583e-06 -4.9066846e-06)
(0.00095878115 -2.1087007e-06 -1.3680758e-05)
(0.00099560894 -4.2852736e-07 -2.0240994e-05)
(0.0010439436 1.1427786e-06 -2.2728125e-05)
(0.0011009678 2.5627375e-06 -1.7314674e-05)
(0.0011514917 3.4923106e-06 2.6713956e-06)
(0.0011829408 3.8591089e-06 2.2702041e-05)
(0.0011931519 3.848664e-06 3.6343817e-05)
(0.0011861269 3.2339828e-06 4.3657325e-05)
(0.0011625997 2.4561777e-06 4.7440973e-05)
(0.0011253967 1.8896499e-06 4.7200633e-05)
(0.001080169 1.6126504e-06 4.2995739e-05)
(0.0010330951 1.4972554e-06 3.6334133e-05)
(0.00098885449 1.3146183e-06 2.8825536e-05)
(0.0009502044 9.443638e-07 2.1624857e-05)
(0.00091835777 4.3209387e-07 1.5433964e-05)
(0.00089337535 -9.0488868e-08 1.053376e-05)
(0.00087461005 -5.1400001e-07 6.9106245e-06)
(0.00086105187 -7.7995672e-07 4.3828664e-06)
(0.00085153763 -8.9897306e-07 2.7313268e-06)
(0.00084488091 -9.3816538e-07 1.7290131e-06)
(0.00083852072 -1.006606e-06 1.3940409e-06)
(0.00091076398 -5.8571669e-05 4.1618796e-05)
(0.00088253814 -6.1567617e-05 4.8358971e-05)
(0.00078737131 -5.2095953e-05 4.3685402e-05)
(0.00070829705 -4.0462233e-05 3.5122644e-05)
(0.00065300093 -2.9313366e-05 2.5279152e-05)
(0.00061708221 -2.0291065e-05 1.5751874e-05)
(0.00059745292 -1.385836e-05 7.0560164e-06)
(0.00059237987 -9.5582677e-06 -8.0964671e-07)
(0.00059934296 -6.6693443e-06 -7.4419963e-06)
(0.00061726789 -4.4333042e-06 -1.2515753e-05)
(0.00064555684 -2.4192068e-06 -1.5380298e-05)
(0.00068306189 -4.3028638e-07 -1.4309718e-05)
(0.00072639255 1.610124e-06 -6.2940061e-06)
(0.00076052445 3.0467612e-06 1.3529733e-05)
(0.00077541455 3.9372011e-06 2.9212318e-05)
(0.00077323571 4.1791295e-06 3.6539374e-05)
(0.00075619448 3.601702e-06 3.903028e-05)
(0.00072690529 2.835242e-06 3.9409067e-05)
(0.00068942742 2.2931117e-06 3.6524914e-05)
(0.00065009426 1.9556197e-06 3.0866915e-05)
(0.00061435831 1.6849059e-06 2.4113682e-05)
(0.00058487916 1.3286735e-06 1.7633291e-05)
(0.00056211534 8.4509228e-07 1.2138845e-05)
(0.00054539274 3.1167055e-07 7.8544561e-06)
(0.00053360988 -1.480633e-07 4.7578843e-06)
(0.0005255553 -4.5652688e-07 2.6829627e-06)
(0.00052012246 -6.2264402e-07 1.4036346e-06)
(0.00051646452 -6.7597906e-07 6.8772306e-07)
(0.00051386462 -6.4926654e-07 3.4181663e-07)
(0.00051095207 -7.3063468e-07 3.3414761e-07)
(0.00094596995 6.1925223e-05 4.7441709e-05)
(0.0009410152 6.901866e-05 5.9768971e-05)
(0.00089407555 5.9910265e-05 5.8288762e-05)
(0.00085115613 4.862744e-05 4.7802829e-05)
(0.0008209619 3.7330708e-05 3.197575e-05)
(0.00080148705 2.7240709e-05 1.376939e-05)
(0.00079181722 1.9108067e-05 -5.3563736e-06)
(0.00079177888 1.2745251e-05 -2.5091824e-05)
(0.00080265604 7.7072072e-06 -4.5731013e-05)
(0.00082566988 3.6303881e-06 -6.7691874e-05)
(0.00086328952 2.0926956e-07 -9.0583169e-05)
(0.00091811075 -2.2841835e-06 -0.00011073372)
(0.00099152814 -3.1934645e-06 -0.00011728545)
(0.0010464975 1.9106357e-07 -8.0052169e-05)
(0.0010618521 3.0422692e-06 -3.7521918e-05)
(0.0010550314 4.6485918e-06 1.7316601e-06)
(0.0010356842 4.9881836e-06 3.7036732e-05)
(0.0010012876 5.0744809e-06 6.8614011e-05)
(0.00095350073 4.5359828e-06 8.3920293e-05)
(0.00090284575 3.3210959e-06 8.4481093e-05)
(0.00085738583 1.8781243e-06 7.5603849e-05)
(0.00082037087 6.9345824e-07 6.2199352e-05)
(0.00079217291 1.3388081e-08 4.781845e-05)
(0.00077162856 -1.3774634e-07 3.4629485e-05)
(0.00075725363 2.5169379e-08 2.3782894e-05)
(0.00074748243 2.6071534e-07 1.5618749e-05)
(0.00074096986 4.3468222e-07 9.9324238e-06)
(0.00073660429 5.355687e-07 6.2676844e-06)
(0.00073354254 5.9312434e-07 4.1536533e-06)
(0.00073028773 8.0925543e-07 3.2461536e-06)
(0.0010169202 5.8580992e-05 5.2694797e-05)
(0.0010678852 6.4808761e-05 7.0021788e-05)
(0.0011136222 5.7965099e-05 7.0517614e-05)
(0.0011494935 4.8309481e-05 6.2430499e-05)
(0.0011785114 3.7510771e-05 4.800956e-05)
(0.0012029495 2.7159542e-05 2.906877e-05)
(0.0012250825 1.8427818e-05 6.9520431e-06)
(0.0012473666 1.1471851e-05 -1.7785369e-05)
(0.0012729269 6.0928051e-06 -4.503077e-05)
(0.0013061521 2.0481291e-06 -7.5059321e-05)
(0.0013516764 -1.0815944e-06 -0.00010773554)
(0.0014147672 -3.4726729e-06 -0.00014016059)
(0.0015009193 -4.2158256e-06 -0.00016071168)
(0.001579684 -2.0083247e-06 -0.00013347162)
(0.0016241925 7.7999149e-07 -9.1510697e-05)
(0.0016452122 2.5934005e-06 -4.69136e-05)
(0.0016474127 3.2653153e-06 -1.4449736e-06)
(0.0016286139 3.2631226e-06 4.3712074e-05)
(0.0015887021 2.8039934e-06 7.6045952e-05)
(0.0015360231 1.7263701e-06 9.312368e-05)
(0.0014793899 3.8339171e-07 9.7559772e-05)
(0.0014244544 -6.9733111e-07 9.2732832e-05)
(0.0013746881 -1.2375059e-06 8.1981736e-05)
(0.0013323937 -1.2210809e-06 6.8382671e-05)
(0.0012984419 -8.364809e-07 5.4341372e-05)
(0.0012725535 -3.2962966e-07 4.1455171e-05)
(0.0012536426 1.1940203e-07 3.058374e-05)
(0.0012403649 4.495348e-07 2.2034662e-05)
(0.0012312405 6.9708398e-07 1.5767308e-05)
(0.0012232215 9.8480104e-07 1.1744962e-05)
(0.0010223593 6.0192775e-12 5.333551e-05)
(0.0010870417 2.2465278e-11 7.1331865e-05)
(0.0011514711 4.3813148e-11 7.239763e-05)
(0.0012046898 5.8161009e-11 6.4934716e-05)
(0.0012475656 5.545342e-11 5.0982859e-05)
(0.0012820786 3.5218334e-11 3.2199146e-05)
(0.0013107016 6.1594393e-12 9.9560434e-06)
(0.00133655 -2.0729503e-11 -1.5155651e-05)
(0.0013632189 -3.7997622e-11 -4.2905864e-05)
(0.0013959072 -4.3783832e-11 -7.3450205e-05)
(0.0014397863 -4.1228724e-11 -0.00010678941)
(0.0015007065 -3.6292698e-11 -0.00014047863)
(0.0015844277 -3.1791888e-11 -0.00016338697)
(0.0016626971 -2.9618422e-11 -0.0001401615)
(0.0017100136 -3.3282662e-11 -0.00010136083)
(0.0017362546 -4.4932136e-11 -5.817709e-05)
(0.0017448485 -6.6137289e-11 -1.3063643e-05)
(0.0017318953 -9.6650899e-11 3.2792274e-05)
(0.0016969669 -1.3096745e-10 6.710523e-05)
(0.0016475737 -1.5945687e-10 8.7157802e-05)
(0.0015920252 -1.6904262e-10 9.5080759e-05)
(0.0015358839 -1.4824817e-10 9.3671751e-05)
(0.0014830585 -1.1554766e-10 8.5729497e-05)
(0.0014365115 -8.0849894e-11 7.3914478e-05)
(0.0013980139 -4.8826615e-11 6.05709e-05)
(0.0013679788 -2.5717859e-11 4.7511215e-05)
(0.0013457139 -1.3749142e-11 3.5928695e-05)
(0.0013299199 -1.1265886e-11 2.6429658e-05)
(0.0013190581 -1.6230561e-11 1.919196e-05)
(0.0013097184 -2.490609e-11 1.434133e-05)
(0.0010169202 -5.8580985e-05 5.2694796e-05)
(0.0010678852 -6.4808732e-05 7.0021787e-05)
(0.0011136223 -5.796504e-05 7.0517613e-05)
(0.0011494936 -4.8309399e-05 6.2430498e-05)
(0.0011785115 -3.7510689e-05 4.8009562e-05)
(0.0012029496 -2.7159485e-05 2.9068778e-05)
(0.0012250826 -1.8427798e-05 6.952057e-06)
(0.0012473667 -1.1471868e-05 -1.7785349e-05)
(0.0012729271 -6.0928465e-06 -4.5030744e-05)
(0.0013061522 -2.0481782e-06 -7.505929e-05)
(0.0013516765 1.0815512e-06 -0.0001077355)
(0.0014147672 3.4726426e-06 -0.00014016055)
(0.0015009193 4.2158082e-06 -0.00016071165)
(0.001579684 2.0083169e-06 -0.00013347159)
(0.0016241925 -7.7999689e-07 -9.151068e-05)
(0.0016452122 -2.5934143e-06 -4.6913587e-05)
(0.0016474127 -3.2653507e-06 -1.4449658e-06)
(0.0016286138 -3.2631955e-06 4.3712075e-05)
(0.001588702 -2.8041154e-06 7.604595e-05)
(0.0015360229 -1.7265427e-06 9.3123682e-05)
(0.0014793897 -3.8360067e-07 9.7559786e-05)
(0.0014244542 6.9712009e-07 9.2732866e-05)
(0.001374688 1.2373333e-06 8.1981789e-05)
(0.0013323936 1.220971e-06 6.8382732e-05)
(0.0012984418 8.3643167e-07 5.4341432e-05)
(0.0012725534 3.296232e-07 4.1455229e-05)
(0.0012536425 -1.1938745e-07 3.0583796e-05)
(0.0012403648 -4.4951767e-07 2.2034713e-05)
(0.0012312404 -6.97078e-07 1.5767353e-05)
(0.0012232214 -9.8481375e-07 1.1744999e-05)
(0.00094596995 -6.1925221e-05 4.7441709e-05)
(0.00094101521 -6.9018652e-05 5.9768969e-05)
(0.00089407558 -5.991025e-05 5.8288761e-05)
(0.0008511562 -4.8627421e-05 4.780283e-05)
(0.00082096202 -3.7330691e-05 3.1975758e-05)
(0.00080148721 -2.7240703e-05 1.3769405e-05)
(0.00079181739 -1.9108072e-05 -5.3563519e-06)
(0.00079177905 -1.2745266e-05 -2.5091796e-05)
(0.00080265619 -7.7072267e-06 -4.5730981e-05)
(0.00082567 -3.630409e-06 -6.7691839e-05)
(0.0008632896 -2.0928799e-07 -9.058313e-05)
(0.00091811081 2.2841708e-06 -0.00011073368)
(0.00099152818 3.1934569e-06 -0.00011728541)
(0.0010464976 -1.9106805e-07 -8.0052134e-05)
(0.0010618522 -3.0422725e-06 -3.7521888e-05)
(0.0010550314 -4.6485983e-06 1.7316855e-06)
(0.0010356843 -4.9881992e-06 3.7036753e-05)
(0.0010012877 -5.0745129e-06 6.8614024e-05)
(0.00095350078 -4.5360382e-06 8.3920303e-05)
(0.00090284577 -3.3211773e-06 8.4481105e-05)
(0.00085738582 -1.8782291e-06 7.5603867e-05)
(0.00082037078 -6.9357423e-07 6.2199377e-05)
(0.00079217276 -1.3479037e-08 4.7818493e-05)
(0.00077162839 1.376932e-07 3.4629548e-05)
(0.00075725345 -2.519631e-08 2.3782969e-05)
(0.00074748226 -2.6072904e-07 1.5618827e-05)
(0.0007409697 -4.346901e-07 9.9324965e-06)
(0.00073660413 -5.3557465e-07 6.2677479e-06)
(0.00073354238 -5.9313092e-07 4.1537055e-06)
(0.00073028755 -8.0926801e-07 3.2461953e-06)
(0.00094464153 6.2062232e-05 1.3565088e-05)
(0.00093815893 6.958262e-05 2.1639946e-05)
(0.00089366052 6.0576233e-05 2.2757157e-05)
(0.00085374819 4.9257332e-05 1.7547327e-05)
(0.00082535867 3.7756896e-05 7.1945717e-06)
(0.000805733 2.7217908e-05 -7.0632955e-06)
(0.00079313503 1.8437398e-05 -2.440477e-05)
(0.00078739599 1.1475473e-05 -4.5290802e-05)
(0.00078978671 5.694019e-06 -7.121308e-05)
(0.00080333497 3.5350953e-07 -0.00010386946)
(0.00083461683 -4.9113776e-06 -0.00014408819)
(0.00089219762 -9.4434326e-06 -0.00018535942)
(0.0010015954 -1.0807585e-05 -0.00019530342)
(0.0010943968 -8.9409607e-07 -4.9974889e-05)
(0.0011197065 6.5488134e-06 1.7974799e-05)
(0.0011197873 1.1485758e-05 6.605885e-05)
(0.0011045784 1.465381e-05 0.00010937477)
(0.0010595924 1.723874e-05 0.00016319478)
(0.00098740296 1.5747465e-05 0.00017751506)
(0.00091951535 1.1241323e-05 0.0001687551)
(0.00086597443 5.8550317e-06 0.00014618328)
(0.00082748471 1.2264047e-06 0.00011782046)
(0.00080195637 -1.7725574e-06 8.939876e-05)
(0.00078563319 -2.9411822e-06 6.4214088e-05)
(0.00077544717 -2.8115237e-06 4.3884429e-05)
(0.00076918132 -2.1127233e-06 2.8728468e-05)
(0.00076529868 -1.3405171e-06 1.8178673e-05)
(0.00076285311 -7.141153e-07 1.1284685e-05)
(0.00076126707 -2.6124019e-07 7.0764535e-06)
(0.00075990512 1.4243741e-07 4.8645458e-06)
(0.0010161851 5.8823892e-05 1.5714227e-05)
(0.0010665965 6.5577395e-05 2.6581666e-05)
(0.0011161539 5.8790341e-05 2.9777474e-05)
(0.0011573033 4.905795e-05 2.5998952e-05)
(0.0011905264 3.8004445e-05 1.6048372e-05)
(0.0012168445 2.7127536e-05 7.0043424e-07)
(0.0012372962 1.7685393e-05 -1.9542924e-05)
(0.0012536888 1.0152153e-05 -4.4945013e-05)
(0.0012693276 4.1819068e-06 -7.7339021e-05)
(0.0012891864 -9.1189562e-07 -0.00011937604)
(0.0013206185 -5.8232086e-06 -0.00017329573)
(0.0013762736 -1.0883297e-05 -0.00023578741)
(0.0014849758 -1.2442298e-05 -0.0002729657)
(0.0015994927 -3.6381338e-06 -0.00013218592)
(0.001652578 4.7686246e-06 -5.5021263e-05)
(0.0016850941 1.0848294e-05 7.9643977e-06)
(0.0017049273 1.499703e-05 7.3512726e-05)
(0.0016890954 1.7432582e-05 0.00015086232)
(0.0016374584 1.6811286e-05 0.00019363643)
(0.0015757039 1.2865028e-05 0.00021011205)
(0.0015156786 7.4940115e-06 0.00020675006)
(0.0014608672 2.3589066e-06 0.00018929876)
(0.0014125214 -1.4289402e-06 0.00016307999)
(0.0013719405 -3.4055859e-06 0.00013309677)
(0.0013396365 -3.8017653e-06 0.00010345761)
(0.001315238 -3.2277134e-06 7.7009203e-05)
(0.001297768 -2.2881351e-06 5.5250075e-05)
(0.0012859126 -1.3741291e-06 3.8502738e-05)
(0.0012782936 -6.2758246e-07 2.6312974e-05)
(0.0012727945 -4.7462581e-09 1.8170115e-05)
(0.0010217332 5.9478607e-12 1.5940418e-05)
(0.0010862256 2.227748e-11 2.7165667e-05)
(0.0011549059 4.3258076e-11 3.0721521e-05)
(0.0012138987 5.690425e-11 2.7356114e-05)
(0.0012614943 5.3136554e-11 1.7807205e-05)
(0.0012983946 3.1270508e-11 2.7747041e-06)
(0.0013258068 -1.2787336e-13 -1.7325379e-05)
(0.0013459332 -2.9331728e-11 -4.2614478e-05)
(0.0013626839 -4.7978883e-11 -7.4812541e-05)
(0.0013815728 -5.4417473e-11 -0.00011659119)
(0.0014105036 -5.4618341e-11 -0.00017051506)
(0.0014620528 -5.1839975e-11 -0.00023401714)
(0.0015642104 -4.791523e-11 -0.00027420551)
(0.0016758156 -4.6414356e-11 -0.00014186267)
(0.0017313492 -5.1589365e-11 -7.0975839e-05)
(0.0017692426 -6.4794399e-11 -1.153897e-05)
(0.0017987361 -9.0004638e-11 5.4826002e-05)
(0.0017927784 -1.2983813e-10 0.00013394616)
(0.0017502785 -1.7488338e-10 0.00018107348)
(0.0016948666 -2.1165745e-10 0.00020328312)
(0.0016375431 -2.2720341e-10 0.00020612932)
(0.001581828 -2.1465642e-10 0.00019433541)
(0.0015299369 -1.8118231e-10 0.00017242595)
(0.0014840779 -1.4360057e-10 0.00014483796)
(0.0014459588 -1.0658198e-10 0.00011569328)
(0.0014162087 -7.5688658e-11 8.8296755e-05)
(0.0013943908 -5.4302726e-11 6.4773813e-05)
(0.0013793506 -4.2518172e-11 4.6008089e-05)
(0.0013696119 -3.928262e-11 3.1914735e-05)
(0.00136263 -4.2340597e-11 2.2196247e-05)
(0.0010161851 -5.8823884e-05 1.5714227e-05)
(0.0010665965 -6.5577366e-05 2.6581664e-05)
(0.001116154 -5.8790282e-05 2.9777471e-05)
(0.0011573034 -4.9057869e-05 2.599895e-05)
(0.0011905265 -3.8004365e-05 1.6048372e-05)
(0.0012168446 -2.7127482e-05 7.0044004e-07)
(0.0012372964 -1.7685381e-05 -1.9542913e-05)
(0.001253689 -1.0152182e-05 -4.4944997e-05)
(0.0012693277 -4.1819644e-06 -7.7339001e-05)
(0.0012891865 9.1182834e-07 -0.00011937601)
(0.0013206186 5.8231463e-06 -0.00017329571)
(0.0013762736 1.0883246e-05 -0.00023578739)
(0.0014849758 1.2442257e-05 -0.00027296569)
(0.0015994927 3.6381e-06 -0.00013218592)
(0.0016525779 -4.768658e-06 -5.5021271e-05)
(0.001685094 -1.0848338e-05 7.9643778e-06)
(0.0017049272 -1.49971e-05 7.3512688e-05)
(0.0016890952 -1.7432697e-05 0.00015086224)
(0.0016374582 -1.6811459e-05 0.0001936363)
(0.0015757037 -1.2865261e-05 0.00021011189)
(0.0015156784 -7.4942924e-06 0.00020674987)
(0.001460867 -2.3592036e-06 0.00018929857)
(0.0014125212 1.4286744e-06 0.00016307982)
(0.0013719404 3.4053861e-06 0.00013309664)
(0.0013396364 3.8016362e-06 0.00010345753)
(0.0013152379 3.2276401e-06 7.7009157e-05)
(0.0012977679 2.2880966e-06 5.525006e-05)
(0.0012859125 1.374106e-06 3.8502744e-05)
(0.0012782935 6.2755953e-07 2.6312992e-05)
(0.0012727944 4.7133138e-09 1.8170138e-05)
(0.00094464153 -6.206223e-05 1.3565088e-05)
(0.00093815894 -6.9582613e-05 2.1639944e-05)
(0.00089366055 -6.0576217e-05 2.2757154e-05)
(0.00085374826 -4.9257312e-05 1.7547325e-05)
(0.00082535879 -3.775688e-05 7.1945742e-06)
(0.00080573316 -2.7217903e-05 -7.0632867e-06)
(0.00079313521 -1.8437406e-05 -2.4404756e-05)
(0.00078739616 -1.1475492e-05 -4.5290783e-05)
(0.00078978686 -5.694046e-06 -7.1213058e-05)
(0.00080333507 -3.5353911e-07 -0.00010386943)
(0.00083461691 4.9113521e-06 -0.00014408816)
(0.00089219767 9.4434116e-06 -0.00018535939)
(0.0010015955 1.0807567e-05 -0.0001953034)
(0.0010943968 8.9408014e-07 -4.9974876e-05)
(0.0011197065 -6.5488269e-06 1.7974797e-05)
(0.0011197873 -1.1485773e-05 6.6058829e-05)
(0.0011045784 -1.4653832e-05 0.00010937473)
(0.0010595924 -1.7238777e-05 0.00016319467)
(0.00098740297 -1.5747525e-05 0.0001775149)
(0.00091951537 -1.1241414e-05 0.00016875491)
(0.00086597443 -5.8551523e-06 0.0001461831)
(0.00082748466 -1.2265378e-06 0.00011782029)
(0.00080195625 1.7724435e-06 8.9398627e-05)
(0.00078563303 2.9411097e-06 6.4214005e-05)
(0.00077544701 2.811483e-06 4.3884395e-05)
(0.00076918116 2.1126994e-06 2.8728471e-05)
(0.00076529852 1.3405009e-06 1.81787e-05)
(0.00076285295 7.1410261e-07 1.1284723e-05)
(0.0007612669 2.6122871e-07 7.0764909e-06)
(0.00075990493 -1.4245288e-07 4.8645793e-06)
(0.00094213756 6.2235526e-05 9.3712319e-06)
(0.00092931854 6.9901582e-05 1.5180136e-05)
(0.00087964852 6.0735435e-05 1.5946567e-05)
(0.00083606952 4.9142421e-05 1.1966527e-05)
(0.00080450853 3.7419854e-05 3.5663138e-06)
(0.00078117887 2.6789156e-05 -9.1871009e-06)
(0.00076386522 1.7851745e-05 -2.7142476e-05)
(0.000751861 1.0389621e-05 -5.2280269e-05)
(0.0007456424 3.436384e-06 -8.8480839e-05)
(0.00074884128 -4.0523618e-06 -0.00014263384)
(0.00077105457 -1.2722051e-05 -0.00022558471)
(0.00082667485 -2.1111389e-05 -0.00034876734)
(0.00095569086 -1.4178717e-05 -0.00049049182)
(0.0010022232 3.8577138e-05 -0.00024266966)
(0.00083014342 4.3426234e-05 -0.00010190184)
(0.00079273352 3.8915791e-05 -1.9663637e-05)
(0.00080905347 3.8805219e-05 6.2034e-05)
(0.00080766374 4.3905831e-05 0.00022168854)
(0.00073186733 3.49198e-05 0.00023900272)
(0.00069948788 2.2263278e-05 0.00022578386)
(0.00068928269 1.0483631e-05 0.00018835588)
(0.00069397733 1.9035287e-06 0.00014714366)
(0.00070647929 -3.0389628e-06 0.0001097109)
(0.00072069283 -4.7636863e-06 7.8411833e-05)
(0.0007333845 -4.4936297e-06 5.3750728e-05)
(0.00074329269 -3.4255961e-06 3.5392631e-05)
(0.0007502854 -2.2920405e-06 2.2477857e-05)
(0.00075485978 -1.4076454e-06 1.3877354e-05)
(0.00075775045 -8.2957274e-07 8.4498472e-06)
(0.000760242 -6.0517491e-07 5.3578896e-06)
(0.0010136494 5.8849086e-05 1.0621878e-05)
(0.001057287 6.584319e-05 1.8106406e-05)
(0.0011011645 5.8940172e-05 2.026023e-05)
(0.0011381918 4.8956537e-05 1.7252654e-05)
(0.0011676126 3.7682064e-05 9.1963521e-06)
(0.0011890088 2.6695216e-05 -4.2015903e-06)
(0.0012028363 1.7022388e-05 -2.4114063e-05)
(0.0012102459 8.9448146e-06 -5.3034562e-05)
(0.0012132512 1.8411809e-06 -9.5616201e-05)
(0.0012149992 -5.4361111e-06 -0.00016007106)
(0.0012251698 -1.4207048e-05 -0.00026082638)
(0.0012625485 -2.5173562e-05 -0.0004179162)
(0.0013631922 -2.3161251e-05 -0.00062720278)
(0.0014319147 3.6328167e-05 -0.00039135691)
(0.0012453974 5.1986129e-05 -0.00023280809)
(0.0011980168 4.8050572e-05 -0.00012581507)
(0.0012219457 4.5917208e-05 -8.2191603e-06)
(0.0012557949 4.9555382e-05 0.00019668294)
(0.0012143887 4.2402687e-05 0.00025824073)
(0.0012014409 2.8994531e-05 0.00028125607)
(0.0012027437 1.5503987e-05 0.000270042)
(0.0012108801 4.7211207e-06 0.0002417395)
(0.001220924 -2.2946397e-06 0.00020599957)
(0.0012310211 -5.619768e-06 0.0001678533)
(0.0012402279 -6.2147556e-06 0.00013087492)
(0.0012480235 -5.3125408e-06 9.7739214e-05)
(0.0012542627 -3.9031521e-06 7.0076804e-05)
(0.00125903 -2.582708e-06 4.8406829e-05)
(0.0012625877 -1.6125067e-06 3.2321776e-05)
(0.0012660811 -1.0657917e-06 2.1219888e-05)
(0.0010192028 5.4151943e-12 1.0879213e-05)
(0.0010769566 2.0666115e-11 1.8641199e-05)
(0.0011400627 4.0561418e-11 2.1049133e-05)
(0.0011950287 5.3696508e-11 1.8338595e-05)
(0.0012388747 5.034675e-11 1.0612193e-05)
(0.0012708005 2.9814982e-11 -2.4564278e-06)
(0.0012914825 2.3486346e-13 -2.2056349e-05)
(0.0013026269 -2.7410749e-11 -5.0633297e-05)
(0.001306767 -4.5487716e-11 -9.2727924e-05)
(0.0013078119 -5.3230623e-11 -0.00015670052)
(0.0013150173 -5.5358083e-11 -0.0002573978)
(0.0013474302 -5.4599995e-11 -0.00041618483)
(0.001432972 -4.8009252e-11 -0.00063385521)
(0.0014986018 -4.7550758e-11 -0.00040919293)
(0.0013163997 -5.1373504e-11 -0.00025717432)
(0.0012735483 -6.3278177e-11 -0.00015253086)
(0.0012981842 -9.3673938e-11 -3.295814e-05)
(0.0013391915 -1.7092022e-10 0.0001740757)
(0.0013082474 -2.2844216e-10 0.00024358584)
(0.0013019399 -2.5036192e-10 0.0002761359)
(0.0013063522 -2.3694571e-10 0.00027425392)
(0.0013141845 -1.9737926e-10 0.0002530023)
(0.0013219033 -1.5010073e-10 0.00022170858)
(0.0013286054 -1.0950866e-10 0.00018545734)
(0.0013343932 -7.8429404e-11 0.00014817421)
(0.0013394049 -5.6847532e-11 0.00011316418)
(0.0013437153 -4.307963e-11 8.2796143e-05)
(0.0013473393 -3.5097818e-11 5.8228371e-05)
(0.0013503267 -3.1859418e-11 3.9471404e-05)
(0.0013535834 -3.2261962e-11 2.615824e-05)
(0.0010136494 -5.884908e-05 1.0621878e-05)
(0.001057287 -6.5843163e-05 1.8106403e-05)
(0.0011011645 -5.8940116e-05 2.0260225e-05)
(0.0011381918 -4.895646e-05 1.7252648e-05)
(0.0011676127 -3.7681987e-05 9.1963497e-06)
(0.0011890089 -2.6695164e-05 -4.2015871e-06)
(0.0012028364 -1.7022375e-05 -2.4114053e-05)
(0.001210246 -8.9448406e-06 -5.3034547e-05)
(0.0012132513 -1.8412333e-06 -9.5616183e-05)
(0.0012149993 5.4360494e-06 -0.00016007104)
(0.0012251699 1.4206989e-05 -0.00026082636)
(0.0012625486 2.5173509e-05 -0.00041791619)
(0.0013631922 2.3161208e-05 -0.00062720278)
(0.0014319146 -3.6328205e-05 -0.00039135691)
(0.0012453973 -5.1986168e-05 -0.0002328081)
(0.0011980167 -4.805062e-05 -0.00012581508)
(0.0012219455 -4.5917282e-05 -8.2192078e-06)
(0.0012557946 -4.955553e-05 0.00019668279)
(0.0012143884 -4.2402893e-05 0.00025824051)
(0.0012014407 -2.8994771e-05 0.00028125577)
(0.0012027436 -1.5504235e-05 0.00027004164)
(0.00121088 -4.7213516e-06 0.00024173912)
(0.001220924 2.2944544e-06 0.00020599923)
(0.001231021 5.6196407e-06 0.00016785302)
(0.0012402278 6.2146784e-06 0.00013087472)
(0.0012480235 5.312498e-06 9.7739087e-05)
(0.0012542627 3.9031288e-06 7.0076738e-05)
(0.00125903 2.5826928e-06 4.8406806e-05)
(0.0012625876 1.6124904e-06 3.232178e-05)
(0.001266081 1.0657678e-06 2.1219908e-05)
(0.00094213756 -6.2235525e-05 9.3712311e-06)
(0.00092931855 -6.9901575e-05 1.5180132e-05)
(0.00087964855 -6.073542e-05 1.594656e-05)
(0.00083606959 -4.9142402e-05 1.196652e-05)
(0.00080450865 -3.7419838e-05 3.5663116e-06)
(0.00078117902 -2.6789151e-05 -9.1870963e-06)
(0.00076386539 -1.7851753e-05 -2.7142465e-05)
(0.00075186117 -1.038964e-05 -5.2280253e-05)
(0.00074564254 -3.4364097e-06 -8.8480819e-05)
(0.00074884138 4.0523344e-06 -0.00014263382)
(0.00077105464 1.2722026e-05 -0.00022558469)
(0.0008266749 2.1111364e-05 -0.00034876732)
(0.00095569087 1.4178693e-05 -0.00049049181)
(0.0010022232 -3.8577157e-05 -0.00024266966)
(0.0008301434 -4.3426251e-05 -0.00010190185)
(0.00079273347 -3.8915803e-05 -1.9663667e-05)
(0.00080905335 -3.8805228e-05 6.2033926e-05)
(0.00080766357 -4.3905849e-05 0.00022168834)
(0.00073186723 -3.4919833e-05 0.00023900243)
(0.00069948787 -2.2263335e-05 0.0002257835)
(0.00068928272 -1.0483709e-05 0.00018835551)
(0.00069397735 -1.9036157e-06 0.00014714331)
(0.00070647926 3.0388886e-06 0.00010971062)
(0.00072069277 4.7636364e-06 7.8411625e-05)
(0.00073338441 4.493597e-06 5.3750603e-05)
(0.00074329258 3.4255718e-06 3.5392578e-05)
(0.00075028526 2.2920207e-06 2.2477854e-05)
(0.00075485963 1.4076286e-06 1.3877378e-05)
(0.00075775029 8.2955743e-07 8.4498816e-06)
(0.0007602418 6.0515628e-07 5.3579251e-06)
(0.00094133336 6.2313992e-05 5.4685915e-07)
(0.00092608522 7.0033633e-05 7.4234525e-07)
(0.00087308902 6.0865914e-05 -7.5315536e-08)
(0.00082560234 4.9205866e-05 -2.246845e-06)
(0.00078915999 3.735707e-05 -6.0813272e-06)
(0.00075857004 2.646914e-05 -1.2006381e-05)
(0.00072895668 1.7109436e-05 -2.1238411e-05)
(0.0006957225 8.6834145e-06 -3.6191588e-05)
(0.00065298709 -4.7134236e-07 -6.1517479e-05)
(0.00059329387 -1.262818e-05 -0.0001065521)
(0.00050563731 -3.2025521e-05 -0.00018960661)
(0.00035747005 -6.0314344e-05 -0.00033630758)
(0.00016109945 -7.9480547e-05 -0.00046789069)
(7.3384912e-05 6.0557203e-05 0.00021653373)
(0.00011775523 2.7856874e-05 0.00019732657)
(0.00028240671 9.8262135e-06 0.00016924357)
(0.00038473738 -5.9813005e-06 0.00012736462)
(0.00048617486 -1.4352102e-05 9.1791115e-05)
(0.00056902761 -1.6368809e-05 6.3942261e-05)
(0.0006322967 -1.4670044e-05 4.3099301e-05)
(0.0006782329 -1.1437567e-05 2.8132093e-05)
(0.00070989234 -8.0499848e-06 1.7820877e-05)
(0.00073063562 -5.2333597e-06 1.1014446e-05)
(0.00074364979 -3.2473138e-06 6.7101877e-06)
(0.00075171567 -2.0659895e-06 4.1114074e-06)
(0.00075892585 -1.8800958e-06 2.6983776e-06)
(0.0010128062 5.8925914e-05 7.3752749e-07)
(0.0010538542 6.6041342e-05 1.1857497e-06)
(0.0010941657 5.9183684e-05 5.7127842e-07)
(0.0011268764 4.9140447e-05 -1.5321784e-06)
(0.0011507452 3.7715588e-05 -5.5195606e-06)
(0.001164059 2.6443269e-05 -1.1928606e-05)
(0.0011642904 1.6393033e-05 -2.2042555e-05)
(0.0011478887 7.4836802e-06 -3.8626567e-05)
(0.001108646 -1.601708e-06 -6.7059653e-05)
(0.0010339971 -1.353244e-05 -0.00011831093)
(0.00090539158 -3.3473574e-05 -0.00021630058)
(0.00066222579 -6.8479667e-05 -0.00040228985)
(0.00031585347 -0.00011021535 -0.00061494584)
(0.00016376732 8.1032601e-05 0.000297372)
(0.00026429432 3.9990788e-05 0.00028259814)
(0.0005083745 1.4214877e-05 0.00026050051)
(0.00066767583 -3.8912095e-06 0.00021923217)
(0.00081002232 -1.539737e-05 0.00017690557)
(0.00092876873 -1.9699834e-05 0.0001389133)
(0.0010229568 -1.9193089e-05 0.00010593538)
(0.0010955809 -1.6155993e-05 7.8270691e-05)
(0.0011499333 -1.2241159e-05 5.6040203e-05)
(0.0011892649 -8.5258152e-06 3.8967136e-05)
(0.0012167441 -5.5936873e-06 2.639711e-05)
(0.0012353939 -3.6855137e-06 1.7461197e-05)
(0.0012512085 -2.9284048e-06 1.1450049e-05)
(0.0010183541 4.7006089e-12 7.4918562e-07)
(0.0010735406 1.8104122e-11 1.2293964e-06)
(0.0011331539 3.5931785e-11 6.6183291e-07)
(0.0011838737 4.8065145e-11 -1.3713734e-06)
(0.0012221813 4.5444134e-11 -5.2697817e-06)
(0.0012460773 2.6974872e-11 -1.158568e-05)
(0.0012533006 -2.3300543e-13 -2.1532006e-05)
(0.0012407681 -2.5880738e-11 -3.783803e-05)
(0.0012026375 -4.3146407e-11 -6.5810555e-05)
(0.0011268617 -5.2926242e-11 -0.00011651632)