/*--------------------------------*- C++ -*----------------------------------*\
| =========                 |                                                 |
| \\      /  F ield         | OpenFOAM: The Open Source CFD Toolbox           |
|  \\    /   O peration     | Version:  2412                                  |
|   \\  /    A nd           | Website:  www.openfoam.com                      |
|    \\/     M anipulation  |                                                 |
\*---------------------------------------------------------------------------*/
FoamFile
{
    version     2.0;
    format      ascii;
    arch        "LSB;label=32;scalar=64";
    class       volVectorField;
    location    "1.4";
    object      flux;
}
// * * * * * * * * * * * * * * * * * * * * * * * * * * * * * * * * * * * * * //

dimensions      [0 1 -1 1 0 0 0];

internalField   nonuniform List<vector> 
5712
(
(-0.339194 0.544807 0.315134)
(-0.415153 0.299431 0.955759)
(-0.77271 0.946063 0.239661)
(-1.21073 0.621035 1.04383)
(-1.17103 0.912178 0.130917)
(-2.28413 0.777794 1.1022)
(-0.806477 1.337 0.221531)
(-2.42597 1.66447 1.7364)
(-0.830383 2.03882 0.361099)
(-1.94349 2.59182 2.17813)
(-1.02163 1.08338 0.371379)
(-1.68277 0.954372 1.55122)
(-0.780286 0.666425 0.397279)
(-1.03545 0.460482 1.38134)
(-0.420075 0.441132 0.392126)
(-0.427611 0.251306 1.18915)
(-0.561897 0.896379 0.183524)
(-0.642287 0.794507 0.102506)
(-0.763018 0.814188 0.555148)
(-0.694656 0.797877 0.266504)
(-0.527733 1.02735 0.170884)
(-0.794416 0.974539 0.0796452)
(-0.784158 1.19424 0.594709)
(-0.784806 1.01724 0.240872)
(-0.224891 0.318169 0.242635)
(-0.165643 0.219639 0.18163)
(-0.304446 0.166263 0.715091)
(-0.220032 0.114873 0.529394)
(-0.512232 0.46079 0.162704)
(-0.338993 0.294018 0.130538)
(-0.942533 0.256278 0.718922)
(-0.66341 0.166258 0.551051)
(-0.783734 0.92691 0.367091)
(-0.799493 0.974125 0.134523)
(-0.803989 0.822321 0.28284)
(-0.826169 0.655254 0.105421)
(-0.193038 0.658333 0.130534)
(-0.167418 0.521209 0.344455)
(-1.81168 0.562612 1.70735)
(-2.23949 0.538734 0.52009)
(-0.967564 0.747229 0.515242)
(-1.28862 0.737372 0.23484)
(-2.32225 1.53801 2.06115)
(-2.85925 1.69741 0.643291)
(-1.07688 1.09102 0.475836)
(-1.32509 1.15823 0.219339)
(-1.36399 0.804811 1.13906)
(-1.78202 0.63396 0.378868)
(-1.09163 0.812798 0.582119)
(-1.50767 0.569033 0.263584)
(-0.630812 0.345648 0.934603)
(-0.795559 0.29992 0.296267)
(-0.13186 0.263297 0.238945)
(-0.0421004 0.408437 0.128925)
(-0.170232 0.131449 0.394417)
(-0.0593888 0.183596 0.161378)
(-0.295762 0.348343 0.216952)
(-0.122153 0.541862 0.134575)
(-0.506619 0.220378 0.413165)
(-0.186955 0.307916 0.158151)
(-0.338916 0.352617 0.286062)
(-0.112537 0.646119 0.181075)
(-0.335189 0.270747 0.262316)
(-0.0953643 0.454866 0.112251)
(-0.654598 0.0834681 0.454056)
(-0.191471 0.303632 0.165595)
(-0.856114 0.0137761 0.177807)
(-0.269629 0.216517 0.0662782)
(-1.09004 0.751819 0.566528)
(-0.627883 0.907666 0.434992)
(-0.918547 0.799337 0.338225)
(-0.634994 0.904505 0.308438)
(-1.10423 0.944914 0.610897)
(-0.712876 0.956524 0.538589)
(-0.874492 0.974047 0.328758)
(-0.703348 0.941135 0.351849)
(-0.720975 0.721627 0.321325)
(-0.521318 0.874234 0.283054)
(-0.79607 0.713776 0.433228)
(-0.507282 0.858661 0.378167)
(-0.891223 0.805594 0.247408)
(-0.654224 0.901354 0.215754)
(-0.921136 0.79284 0.139835)
(-0.669884 0.897645 0.121163)
(-0.85656 0.987594 0.240114)
(-0.715271 0.9325 0.240236)
(-0.890211 0.99156 0.133004)
(-0.728279 0.927777 0.133694)
(-0.741366 0.680268 0.241541)
(-0.548428 0.87736 0.194406)
(-0.798087 0.621278 0.137808)
(-0.567431 0.874575 0.0992555)
(-0.796798 0.764134 0.280355)
(-0.330727 0.832918 0.158882)
(-0.460087 0.961898 0.287324)
(-0.529568 1.37328 0.311342)
(-0.860451 0.802219 0.383965)
(-0.384333 0.971316 0.290955)
(-0.461211 0.958869 0.419551)
(-0.560202 1.51561 0.54021)
(-0.796864 0.721957 0.199917)
(-0.306806 0.73349 0.0867817)
(-0.478551 0.954994 0.181391)
(-0.518298 1.29632 0.184463)
(-0.823276 0.693677 0.110752)
(-0.308104 0.671751 0.0394122)
(-0.501462 0.953009 0.0817107)
(-0.521059 1.25913 0.0703217)
(-0.127783 0.20753 0.28735)
(-0.144773 0.266809 0.568695)
(-0.0452955 0.569019 0.205439)
(-0.0924146 0.947148 0.64064)
(-0.367687 0.246368 0.31116)
(-0.433559 0.279871 0.573046)
(-0.153798 0.697652 0.244101)
(-0.298755 1.05241 0.678238)
(-0.598606 0.289379 0.401664)
(-0.711574 0.30278 0.56237)
(-0.278323 0.845768 0.334681)
(-0.503756 1.16969 0.68361)
(-0.725679 1.03678 0.417343)
(-0.378138 1.12221 0.47295)
(-0.757031 0.896103 0.345561)
(-0.929714 0.837489 0.351789)
(-0.478433 1.18115 0.414778)
(-0.269757 1.14003 0.312471)
(-0.433138 1.0034 0.366901)
(-0.52639 0.892575 0.51909)
(-0.945186 0.768012 0.61566)
(-0.629407 1.35292 0.89108)
(-0.432155 1.04399 0.425644)
(-0.574529 0.977422 0.365444)
(-0.647481 0.836665 0.362718)
(-0.63961 0.888427 0.458656)
(-0.806483 1.73422 0.711115)
(-0.139829 0.0721752 0.709979)
(-0.142329 0.0954108 0.690114)
(-0.0880249 0.20084 0.829093)
(-0.0934451 0.42561 0.841063)
(-0.413949 0.1015 0.688995)
(-0.388231 0.143046 0.691561)
(-0.273586 0.26178 0.827846)
(-0.275519 0.487594 0.829551)
(-0.619436 0.15072 0.62859)
(-0.555846 0.145503 0.654403)
(-0.406387 0.345944 0.787788)
(-0.404232 0.568389 0.800776)
(-0.394541 1.10098 0.392818)
(-0.438518 1.07866 0.419049)
(-0.622286 0.926191 0.407324)
(-0.660844 0.869715 0.433737)
(-0.721436 0.800168 0.500319)
(-0.676917 0.695706 0.51119)
(-0.871895 0.592223 0.594895)
(-0.7934 0.515304 0.58884)
(-0.625069 0.478262 0.75952)
(-0.621021 0.723751 0.776833)
(-0.540692 0.975346 0.356319)
(-0.572987 0.866258 0.396763)
(-0.700008 0.913008 0.41773)
(-0.620779 0.842519 0.460943)
(-0.668637 0.784175 0.479058)
(-0.541906 0.71213 0.534782)
(-0.609292 0.692687 0.561871)
(-0.471859 0.602046 0.633056)
(-0.696057 0.564097 0.744189)
(-0.543736 0.780731 0.826731)
(-0.582377 0.946813 0.418781)
(-0.291823 1.00328 0.286804)
(-0.460212 0.983736 0.336929)
(-0.436306 1.07602 0.333957)
(-0.640786 0.941778 0.45617)
(-0.730027 0.864654 0.508104)
(-0.654924 0.960009 0.369663)
(-0.8416 0.915836 0.478709)
(-0.391296 0.871728 0.317482)
(-0.374858 0.877785 0.317058)
(-0.531482 0.857862 0.406688)
(-0.216582 0.847661 0.293974)
(-0.448346 1.002 0.146121)
(-0.694921 1.10295 0.239747)
(-0.466527 0.996117 0.0575768)
(-0.746725 1.09385 0.0879349)
(-0.666464 0.975067 0.227958)
(-1.03631 0.955918 0.352293)
(-0.691335 0.965779 0.0863678)
(-1.06604 0.950466 0.129642)
(-0.384425 0.863233 0.127847)
(-0.617554 0.870559 0.215702)
(-0.401016 0.874974 0.0468691)
(-0.674062 0.877803 0.0779778)
(-0.47628 0.760647 0.307846)
(-0.342844 0.748436 0.261026)
(-0.621768 0.528061 0.318858)
(-0.269181 0.631983 0.202688)
(-0.510689 0.768461 0.43635)
(-0.164613 0.737419 0.314676)
(-0.586747 0.546957 0.501642)
(-0.115653 0.660492 0.340871)
(-0.498927 0.738113 0.147575)
(-0.502357 0.736326 0.165717)
(-0.653474 0.520057 0.181902)
(-0.330685 0.62946 0.105747)
(-0.453107 0.744215 0.109166)
(-0.583472 0.72768 0.116541)
(-0.602527 0.514198 0.120972)
(-0.423767 0.613041 0.0914654)
(-0.130841 0.0794297 0.605107)
(-0.119624 0.0626204 0.401476)
(-0.0996318 0.0449632 0.133025)
(-0.0849933 0.0425149 0.655124)
(-0.0819351 0.0352562 0.415692)
(-0.0699524 0.0346707 0.144367)
(-0.349547 0.120515 0.593094)
(-0.292539 0.0811576 0.391605)
(-0.247208 0.0612529 0.135139)
(-0.233064 0.100021 0.650504)
(-0.188844 0.0870376 0.413511)
(-0.154344 0.0730713 0.141244)
(-0.451564 0.124164 0.562042)
(-0.3691 0.113847 0.36599)
(-0.328336 0.117614 0.1233)
(-0.336779 0.180838 0.63425)
(-0.260414 0.151877 0.405283)
(-0.227895 0.135252 0.140025)
(-0.384728 0.999285 0.307444)
(-0.296569 0.856706 0.181117)
(-0.272949 0.763614 0.0501369)
(-0.608333 0.844142 0.381661)
(-0.43012 0.76518 0.261885)
(-0.336327 0.706312 0.0857809)
(-0.563629 0.583236 0.450288)
(-0.392995 0.54064 0.316584)
(-0.291482 0.516791 0.107313)
(-0.635826 0.42524 0.506116)
(-0.476712 0.389145 0.333349)
(-0.38638 0.370433 0.110365)
(-0.516279 0.295181 0.608889)
(-0.336853 0.207708 0.388506)
(-0.239528 0.163222 0.13753)
(-0.719903 0.790761 0.332024)
(-0.560966 0.702226 0.187061)
(-0.480631 0.643003 0.0629286)
(-0.539733 0.800966 0.34871)
(-0.407563 0.718936 0.229644)
(-0.322423 0.671558 0.0815333)
(-0.489803 0.60419 0.403056)
(-0.349983 0.516436 0.26906)
(-0.261052 0.469979 0.0939717)
(-0.450346 0.443914 0.480122)
(-0.319793 0.376314 0.311155)
(-0.239702 0.344708 0.10778)
(-0.506157 0.305417 0.579311)
(-0.290913 0.214716 0.344147)
(-0.169971 0.169192 0.120569)
(-0.475165 1.17508 -0.0210112)
(-0.769845 1.2083 0.0391493)
(-0.406325 1.25742 0.0157174)
(-0.5773 1.14639 0.105555)
(-0.39377 1.15636 0.0755416)
(-0.804735 1.14555 0.0752454)
(-0.332188 1.38804 0.193771)
(-0.661824 1.18461 0.168439)
(-0.00596507 0.743439 0.0242714)
(-0.0683304 0.808727 0.0379179)
(0.0110892 0.743397 0.0257021)
(-0.040905 0.726642 0.0397528)
(-0.142687 0.98781 0.0133069)
(-0.26873 0.859435 0.0365022)
(-0.0910098 0.970709 0.0245199)
(-0.165457 0.760377 0.0535554)
(-0.0772121 1.07039 0.0717144)
(-0.158992 1.11009 0.044148)
(-0.449041 0.912016 0.150005)
(-0.663675 1.01607 0.107523)
(-0.35083 1.18322 0.0672875)
(-0.267383 1.04801 0.108828)
(-0.485119 1.19761 0.116882)
(-0.424836 1.24738 0.0252313)
(-0.659677 1.27687 0.246539)
(-0.70739 1.37358 0.0725318)
(0.0219422 1.02793 -0.180713)
(0.228379 1.05708 -0.0383014)
(-0.344308 0.890509 0.0190508)
(-0.240316 0.879519 0.0179083)
(-0.270185 1.01457 -0.009769)
(-0.15498 0.981893 -0.00667641)
(-0.0629249 0.672822 0.401569)
(-0.0401252 0.387102 0.166721)
(-0.0519949 0.632817 0.105788)
(-0.0324739 0.427705 0.0595311)
(-0.155436 0.653906 0.394998)
(-0.0484432 0.379472 0.168188)
(-0.0798984 0.61062 0.114863)
(-0.0116915 0.41474 0.069895)
(-0.400401 0.597714 0.379071)
(-0.116209 0.350963 0.181534)
(-0.30634 0.567818 0.150962)
(-0.094594 0.394002 0.100749)
(-0.348472 0.559005 0.114924)
(-0.104662 0.408986 0.0700705)
(-0.393656 0.537516 0.0572932)
(-0.128083 0.408252 0.0503831)
(-0.507788 0.919021 0.533034)
(-0.494867 0.714412 0.46413)
(-0.394101 0.906996 0.230587)
(-0.488216 0.724393 0.29531)
(-0.782328 1.03258 0.617993)
(-0.697939 0.914297 0.576193)
(-0.638558 1.04352 0.299149)
(-0.660732 0.905491 0.358178)
(-0.285741 0.833457 0.201586)
(-0.366362 0.56591 0.243708)
(-0.333864 0.859832 0.438163)
(-0.339587 0.54336 0.357713)
(-0.36846 0.928833 0.143483)
(-0.483337 0.73015 0.190025)
(-0.386957 0.956414 0.0779724)
(-0.486853 0.730466 0.106519)
(-0.609073 1.07381 0.197156)
(-0.645562 0.90393 0.230669)
(-0.63107 1.09548 0.109216)
(-0.649262 0.902337 0.127905)
(-0.252155 0.814461 0.110406)
(-0.370081 0.575347 0.158315)
(-0.243447 0.810322 0.0571106)
(-0.373692 0.576521 0.093049)
(-0.024523 0.493748 0.173579)
(-0.0475136 0.343124 0.115413)
(-0.283734 0.429091 0.195664)
(-0.145585 0.28147 0.121744)
(-0.0241559 0.453145 0.304211)
(-0.0380531 0.307139 0.167807)
(-0.248707 0.399199 0.264869)
(-0.122369 0.258177 0.160255)
(-0.0246169 0.506645 0.0992435)
(-0.0426895 0.363443 0.0771397)
(-0.298759 0.442675 0.134016)
(-0.160482 0.294719 0.0823167)
(-0.0362958 0.510488 0.0510272)
(-0.0470184 0.376388 0.0459779)
(-0.300945 0.446487 0.0826044)
(-0.169079 0.302368 0.0497025)
(0.00804389 0.109526 0.460573)
(0.0141212 0.0594741 0.288261)
(-0.0181802 0.208098 0.212764)
(-0.0110356 0.123272 0.209022)
(0.0364959 0.112834 0.45629)
(0.0575898 0.067809 0.288415)
(-0.0278988 0.210861 0.20893)
(-0.0151901 0.134623 0.204313)
(-0.0404266 0.121819 0.460644)
(0.00184476 0.0891007 0.279378)
(-0.0924753 0.20861 0.210672)
(-0.0762208 0.152569 0.189591)
(0.298803 0.532032 0.536323)
(0.151167 0.900475 0.536772)
(0.17689 0.346379 0.483796)
(0.122282 0.314976 0.358811)
(0.00642051 0.232659 0.191245)
(0.281768 0.918802 0.325531)
(0.407219 0.583227 0.375706)
(0.1913 0.325695 0.380653)
(0.196782 0.290174 0.342181)
(0.00792838 0.183442 0.220272)
(-0.39046 0.887863 0.465235)
(-0.279465 0.635336 0.400704)
(-0.219647 0.462787 0.319076)
(-0.216504 0.339582 0.246059)
(-0.115253 0.221499 0.147119)
(0.0212303 0.0411335 0.229083)
(0.0172569 0.0376116 0.212941)
(-0.00545956 0.087563 0.219632)
(-0.0078627 0.0790444 0.250784)
(0.0601014 0.050605 0.230782)
(0.0633634 0.0387731 0.209582)
(-0.0143196 0.103559 0.215549)
(-0.018526 0.0919403 0.247065)
(0.0535447 0.0705091 0.225025)
(0.0721259 0.0588922 0.204419)
(-0.045218 0.123156 0.206422)
(-0.0505646 0.109012 0.238952)
(0.115563 0.924947 0.36526)
(0.0501639 0.862404 0.346603)
(0.308568 0.579379 0.323548)
(0.20767 0.51258 0.276176)
(0.163977 0.359497 0.228894)
(0.11152 0.330988 0.224386)
(0.152534 0.275193 0.207548)
(0.122091 0.251008 0.209039)
(-9.59794e-05 0.169088 0.180913)
(-0.0227682 0.150654 0.227701)
(-0.20892 0.806527 0.271153)
(-0.147194 0.676296 0.307308)
(0.0114178 0.579044 0.216776)
(0.0739369 0.482322 0.244565)
(0.0257541 0.427955 0.181381)
(0.0696689 0.373498 0.204153)
(-0.00773425 0.303744 0.164999)
(0.0310584 0.276664 0.19244)
(-0.0172254 0.203867 0.135482)
(-0.0269957 0.213269 0.209743)
(-0.16473 0.55059 0.194035)
(-0.178694 0.420002 0.156087)
(-0.383056 0.558996 0.132916)
(-0.241727 0.397597 0.0759765)
(-0.352879 0.714773 0.307288)
(-0.335775 0.517309 0.233013)
(-0.524405 0.730472 0.247373)
(-0.404544 0.512694 0.159738)
(-0.28222 0.449018 0.0946444)
(-0.170312 0.345403 0.0562475)
(-0.094915 0.442978 0.14049)
(-0.120452 0.367108 0.125826)
(-0.452133 0.580461 0.167355)
(-0.192517 0.380678 0.0756263)
(-0.484978 0.587077 0.0746846)
(-0.179058 0.386419 0.0413241)
(-0.601432 0.7701 0.225919)
(-0.391763 0.52931 0.131595)
(-0.641292 0.770293 0.0894273)
(-0.379332 0.535088 0.0617269)
(-0.340001 0.453309 0.129682)
(-0.12369 0.325726 0.0558385)
(-0.3692 0.461846 0.0635229)
(-0.107092 0.340125 0.031555)
(-0.198246 0.321427 0.0716415)
(-0.154283 0.278319 0.0837237)
(-0.133642 0.223274 0.0817058)
(-0.23773 0.274551 0.135568)
(-0.0928828 0.324873 0.109399)
(-0.123218 0.290409 0.130034)
(-0.0828851 0.226732 0.0970175)
(-0.197401 0.269628 0.174576)
(-0.218708 0.32054 0.0887188)
(-0.141467 0.271179 0.0615726)
(-0.164535 0.21805 0.0604481)
(-0.273506 0.286079 0.0982556)
(-0.267322 0.337265 0.0371177)
(-0.131456 0.274684 0.0132762)
(-0.199546 0.226459 0.00861437)
(-0.268015 0.283338 0.021642)
(0.0198586 0.0736992 0.164284)
(0.0234951 0.0572509 0.0758094)
(0.0265366 0.0439766 0.0219742)
(-0.00498088 0.265527 0.170114)
(0.00458182 0.129806 0.0460281)
(0.00596674 0.0982731 0.0123234)
(0.0699743 0.0688774 0.16361)
(0.0780636 0.0620955 0.0809741)
(0.0816125 0.0516535 0.0254412)
(-0.00610544 0.281486 0.170587)
(0.0186941 0.152496 0.0480491)
(0.0218559 0.121007 0.0135268)
(0.0855802 0.0862758 0.155336)
(0.111946 0.0879706 0.0782932)
(0.122381 0.0860245 0.02081)
(-0.0259993 0.301136 0.164721)
(0.0326806 0.189799 0.0456702)
(0.044064 0.162963 0.0107508)
(0.0189449 0.74219 0.238037)
(0.0417874 0.642651 0.133776)
(0.0369441 0.578988 0.0368081)
(0.146289 0.456985 0.186468)
(0.154078 0.407692 0.103306)
(0.140736 0.378799 0.0297383)
(0.113328 0.319821 0.168168)
(0.128401 0.290841 0.0875761)
(0.122508 0.275963 0.0257966)
(0.123269 0.269897 0.152234)
(0.145365 0.242314 0.0746097)
(0.14697 0.229358 0.0184733)
(-0.0119456 0.352093 0.158911)
(0.0472031 0.249879 0.0416841)
(0.0437117 0.218476 0.00784018)
(-0.172726 0.551064 0.260505)
(-0.0883468 0.471013 0.140122)
(-0.0524865 0.421434 0.0447482)
(0.0312519 0.402645 0.211461)
(0.0733971 0.34777 0.11663)
(0.087255 0.317162 0.0388093)
(0.0449927 0.341106 0.178119)
(0.0865141 0.290768 0.0952399)
(0.0968799 0.259104 0.0315317)
(0.0290183 0.313385 0.15771)
(0.0769131 0.265519 0.0682522)
(0.0865086 0.240365 0.0194379)
(-0.0528981 0.457694 0.168816)
(0.0310443 0.311752 0.0443759)
(0.0361938 0.276635 0.0144385)
(-0.00293284 0.209955 0.0609504)
(-5.86786e-05 0.121189 0.0224221)
(0.000798857 0.0788576 0.0110799)
(0.0016161 0.0592256 0.00204776)
(0.00309426 0.233242 0.0246954)
(0.00293392 0.129674 0.00951157)
(0.00345124 0.0817333 0.0050049)
(0.00297073 0.0609581 0.00139314)
(-0.00773804 0.20425 0.0624989)
(-0.000463252 0.119631 0.0237533)
(0.00231572 0.0787809 0.0129076)
(0.00436747 0.0598764 0.0036132)
(0.00703323 0.231612 0.0293748)
(0.00669129 0.130067 0.0123938)
(0.00731774 0.0829126 0.00791855)
(0.00653973 0.0619593 0.00357768)
(-0.0145232 0.194072 0.0707954)
(-0.00257037 0.117562 0.0279879)
(0.00198119 0.0803967 0.0165169)
(0.00680551 0.0601197 0.00584364)
(-0.000171811 0.225216 0.0490024)
(0.0049467 0.131296 0.0234757)
(0.00537017 0.0860426 0.0122416)
(0.00682649 0.0625254 0.00526491)
(0.000596843 0.235269 0.0345768)
(0.00321074 0.136009 0.019879)
(0.00157841 0.0854937 0.0077108)
(0.00188086 0.0640713 0.00211085)
(-0.00597513 0.241117 0.0346666)
(-0.000894712 0.141009 0.0217558)
(0.000778577 0.0879326 0.0107893)
(0.00230903 0.0655253 0.00527977)
(-0.0355976 0.205587 0.0573156)
(-0.011085 0.124117 0.0257196)
(-0.00597891 0.0837358 0.0128746)
(0.00260324 0.0615381 0.00220442)
(-0.0512248 0.172564 0.0538007)
(-0.0165876 0.111926 0.0235038)
(-0.0123738 0.0793149 0.0139275)
(0.00362763 0.0573056 0.000637332)
(-0.0292388 0.181225 0.0730774)
(-0.00846671 0.113874 0.0295306)
(-0.00357614 0.0807145 0.0178067)
(0.00618949 0.0576258 0.00498538)
(-0.0415824 0.157507 0.0645864)
(-0.0133032 0.105056 0.0257922)
(-0.0108448 0.0764016 0.0166965)
(0.00386664 0.0548382 0.000382721)
(-0.0328161 0.22006 0.0423291)
(-0.010596 0.131601 0.0214946)
(-0.00544219 0.0858603 0.0101758)
(0.00209285 0.0635955 0.00182252)
(-0.0564798 0.182114 0.0409704)
(-0.0183411 0.117347 0.0199543)
(-0.0131924 0.0813846 0.0117002)
(0.00475323 0.0586901 0.00234793)
(-0.0346114 0.228274 0.03024)
(-0.0120732 0.137003 0.0177589)
(-0.00505472 0.0881405 0.00991063)
(0.00341117 0.0647589 0.0051386)
(-0.0593113 0.187708 0.0276542)
(-0.019384 0.121444 0.0158508)
(-0.0137615 0.0835199 0.00995283)
(0.0052621 0.0595846 0.00509209)
(-0.00264478 0.163095 0.0770459)
(-0.000324961 0.107058 0.0274344)
(7.19116e-05 0.0747715 0.0141761)
(0.00132141 0.056143 0.000793283)
(-0.0020639 0.116071 0.07851)
(-0.000167636 0.0907768 0.0266336)
(-0.000408763 0.0695183 0.0165224)
(0.00143781 0.051614 -0.00258022)
(-0.00706299 0.158805 0.0764352)
(-0.00101678 0.105755 0.0276607)
(0.000328788 0.0749255 0.0152043)
(0.00362768 0.0562342 0.00149157)
(-0.00336489 0.115695 0.0752809)
(0.000330205 0.0907142 0.0256562)
(-0.000583614 0.0695802 0.0164187)
(0.0039657 0.0518461 -0.00236853)
(-0.0240448 0.15235 0.0763993)
(-0.00665784 0.103889 0.0281846)
(-0.00304994 0.0756738 0.0174288)
(0.00518429 0.0562863 0.0028356)
(-0.0180006 0.118535 0.0673913)
(-0.00423137 0.0920509 0.023139)
(-0.00312148 0.0700717 0.0161542)
(0.00637699 0.05259 -0.00114976)
(-0.0106534 0.146244 0.0705837)
(-0.0015806 0.101107 0.0268052)
(-0.00032274 0.0749792 0.0185352)
(0.00690242 0.056067 0.0058428)
(-0.00699993 0.120023 0.0741333)
(-0.000502919 0.0927084 0.0259261)
(-0.00154337 0.0716885 0.0203443)
(0.00648304 0.0530139 -0.000453699)
(-0.034711 0.138184 0.0541732)
(-0.0104145 0.0983178 0.0206179)
(-0.00874906 0.0726161 0.0145177)
(0.00672183 0.0526555 0.00266751)
(0.00127518 0.0681566 0.0631678)
(0.000924571 0.0758873 0.0194138)
(0.000432252 0.0570089 0.0126427)
(0.00129918 0.0177015 -0.0028541)
(0.00430103 0.0159013 0.0244288)
(0.00183082 0.0680648 0.00687322)
(0.000934361 0.0512513 0.00392244)
(0.000874482 0.0166386 -0.000397725)
(0.0010681 0.0738298 0.0626353)
(0.00174812 0.0780804 0.0196704)
(0.000487691 0.0580683 0.0128185)
(0.0033051 0.0186139 -0.00241826)
(0.010649 0.0239693 0.0250317)
(0.0047405 0.0705717 0.00723688)
(0.00221291 0.0520918 0.00423756)
(0.0022574 0.0169435 -8.45801e-05)
(-0.00216219 0.0831159 0.0592871)
(0.00118289 0.0814643 0.0191238)
(8.69926e-05 0.0589774 0.0130503)
(0.00514568 0.0185164 -0.00158717)
(0.0148994 0.0367199 0.0243755)
(0.00686673 0.0747044 0.00730826)
(0.00328907 0.053063 0.00458451)
(0.00340647 0.0170581 0.000342156)
(-0.00228606 0.0967942 0.0501951)
(0.00162881 0.0858647 0.0163446)
(9.40672e-05 0.0607606 0.0123904)
(0.0067627 0.0197587 -0.000602417)
(0.0164562 0.0525877 0.0216134)
(0.00812575 0.0800232 0.00646446)
(0.00357536 0.0548277 0.00483633)
(0.00388167 0.017733 0.000883677)
(-0.00898163 0.116894 0.0440593)
(0.000173996 0.0919672 0.0151265)
(-0.0027589 0.0637986 0.0116306)
(0.00598981 0.0221032 0.000739401)
(0.010378 0.0710111 0.0197231)
(0.0072352 0.0854274 0.00649098)
(0.00221201 0.0565813 0.00515091)
(0.00335025 0.0182884 0.00156981)
(-0.0343597 0.131787 0.0335323)
(-0.00503259 0.0995297 0.013876)
(-0.00739727 0.0656848 0.00830434)
(0.0047732 0.0210305 0.00109527)
(-0.00951703 0.0728619 0.0177712)
(0.0018843 0.0922672 0.00841506)
(-0.000538237 0.0602998 0.00473795)
(0.00193819 0.0190933 0.00222126)
(-0.0213812 0.128981 0.0361617)
(-0.0016488 0.0961638 0.0130661)
(-0.00563106 0.0642413 0.00935423)
(0.0051516 0.0210631 0.00089537)
(-0.00142619 0.0737924 0.0179309)
(0.00462835 0.0895833 0.00706488)
(0.000659444 0.0583146 0.00488927)
(0.00262143 0.0186017 0.00200093)
(-0.0453559 0.132025 0.0290991)
(-0.00935295 0.101972 0.0142106)
(-0.00928948 0.0665797 0.00801414)
(0.00502581 0.0199084 0.00199049)
(-0.0147853 0.0704127 0.0173341)
(-0.000812587 0.0945886 0.00946038)
(-0.00158819 0.061595 0.00498271)
(0.00156455 0.0190809 0.00273978)
(-0.052983 0.13162 0.0219821)
(-0.0136877 0.104812 0.0130346)
(-0.0111927 0.0687313 0.00787178)
(0.00477331 0.0203572 0.00420579)
(-0.0193334 0.0755482 0.0154716)
(-0.00388621 0.0974915 0.00975091)
(-0.00276581 0.063399 0.00570378)
(0.00116632 0.019514 0.00378026)
(0.000605487 0.0460858 0.000652337)
(0.000276304 0.0311312 0.000269876)
(0.00013185 0.0195276 0.000130734)
(6.72641e-05 0.0106002 6.93513e-05)
(4.25848e-05 0.00334507 4.50932e-05)
(0.000886765 0.0464433 0.000314324)
(0.000429312 0.0312218 0.000133965)
(0.000211231 0.0195633 6.59271e-05)
(0.000109993 0.0106156 3.54712e-05)
(7.02538e-05 0.00334944 2.33957e-05)
(0.00126755 0.0469097 0.00105339)
(0.000586808 0.0313984 0.000495675)
(0.000279663 0.0196434 0.00024967)
(0.000143167 0.0106497 0.000133797)
(9.158e-05 0.00335879 8.69612e-05)
(0.00232435 0.0471923 0.000901526)
(0.00117146 0.0315389 0.000457679)
(0.000585565 0.019712 0.000232727)
(0.000308933 0.0106813 0.000124663)
(0.000199074 0.00336794 8.09394e-05)
(0.00185247 0.0473416 0.00206287)
(0.000859447 0.0316743 0.00106828)
(0.000413069 0.0197711 0.000550494)
(0.000213652 0.0107049 0.000298215)
(0.000137734 0.00337411 0.00019494)
(0.00338399 0.0474026 0.00364451)
(0.00167786 0.0319846 0.00190798)
(0.000844007 0.0199387 0.000988603)
(0.000449218 0.0107838 0.000535008)
(0.000291262 0.00339729 0.000348774)
(0.00111721 0.0490914 0.00363832)
(0.000544959 0.0326321 0.00197983)
(0.000276231 0.0202677 0.00104529)
(0.000148204 0.0109372 0.000571231)
(9.64951e-05 0.0034419 0.000374827)
(0.000568185 0.0499343 0.00375976)
(0.000284661 0.0332204 0.00203156)
(0.000144399 0.0205918 0.00107058)
(7.75843e-05 0.0110919 0.000585288)
(5.04205e-05 0.00348725 0.000384975)
(0.00166065 0.0487206 0.00256005)
(0.000719862 0.0323146 0.00139021)
(0.000347579 0.0200758 0.000734775)
(0.000181824 0.0108424 0.000401967)
(0.000116847 0.00341366 0.000262399)
(0.000315921 0.0494506 0.00198444)
(9.85857e-05 0.0324263 0.00109004)
(3.98182e-05 0.0200967 0.000579222)
(1.86555e-05 0.0108469 0.000318544)
(1.13138e-05 0.00341438 0.000208577)
(0.00261424 0.0476065 0.00270043)
(0.00121424 0.0319775 0.00140796)
(0.000598501 0.0199081 0.000730117)
(0.00031637 0.0107643 0.00039789)
(0.000204748 0.0033907 0.00026026)
(0.000669603 0.0489747 0.00198911)
(0.000264295 0.0322218 0.000987706)
(0.000122612 0.0199952 0.000508205)
(6.26384e-05 0.0107995 0.000277077)
(3.95134e-05 0.0034004 0.00018056)
(0.000457165 0.0494529 0.00275543)
(0.000137105 0.032691 0.00159585)
(5.3298e-05 0.0202754 0.000859101)
(2.47221e-05 0.0109372 0.000473513)
(1.50457e-05 0.0034415 0.000311267)
(0.00031914 0.0500506 0.00256902)
(0.000110018 0.0327853 0.00146388)
(4.7787e-05 0.0202892 0.000785232)
(2.38424e-05 0.0109386 0.000432765)
(1.50412e-05 0.00344141 0.000284364)
(0.000381577 0.0500681 0.00335729)
(0.000114182 0.0333048 0.00185322)
(4.45017e-05 0.0206258 0.000981508)
(2.08472e-05 0.0111058 0.000537518)
(1.23261e-05 0.00349114 0.00035347)
(0.000171076 0.0507437 0.00320555)
(2.61295e-05 0.0333761 0.00178292)
(4.10208e-06 0.0206291 0.000946769)
(1.74751e-07 0.0111033 0.000518858)
(-7.06717e-07 0.00349009 0.000340679)
(0.000479997 0.0455941 0.000510166)
(0.000206885 0.0310255 0.000227075)
(9.45766e-05 0.0194879 0.000110377)
(4.66591e-05 0.0105834 5.85275e-05)
(2.89847e-05 0.00334032 3.80886e-05)
(0.000485011 0.0457258 0.000167142)
(0.000201395 0.0309806 8.82319e-05)
(9.05866e-05 0.0194642 4.40294e-05)
(4.43609e-05 0.010573 2.38098e-05)
(2.747e-05 0.00333737 1.58401e-05)
(0.00112194 0.0461039 0.000737657)
(0.000473531 0.0312365 0.000348956)
(0.000215821 0.0195757 0.000175415)
(0.000106699 0.0106196 9.43027e-05)
(6.67308e-05 0.00335012 6.18499e-05)
(0.00113569 0.0462133 0.000207741)
(0.000458505 0.0311747 0.000114859)
(0.00020618 0.0195422 5.88846e-05)
(0.000101217 0.0106046 3.20554e-05)
(6.27644e-05 0.00334588 2.14743e-05)
(0.00145649 0.0468329 0.000946141)
(0.00057968 0.0315155 0.000502985)
(0.000261451 0.0196898 0.000260335)
(0.000128569 0.0106667 0.000142104)
(8.0381e-05 0.00336289 9.41941e-05)
(0.00140644 0.0472007 0.000498056)
(0.000568985 0.0314543 0.000257784)
(0.000259417 0.0196498 0.000129138)
(0.000128208 0.0106481 6.86047e-05)
(8.04893e-05 0.00335757 4.53361e-05)
(0.0019396 0.0479068 0.00229331)
(0.000867282 0.0318328 0.00117868)
(0.000420049 0.0198194 0.000603421)
(0.000219142 0.0107212 0.000329135)
(0.000141548 0.00337781 0.00021712)
(0.000988867 0.048271 0.00115339)
(0.000423681 0.0317399 0.000587347)
(0.000198576 0.0197685 0.000297189)
(9.98997e-05 0.0106977 0.000161129)
(6.39414e-05 0.00337091 0.000106548)
(0.00113696 0.0485207 0.00268521)
(0.000526946 0.0320465 0.00127155)
(0.000260136 0.0199137 0.000638377)
(0.000137993 0.0107624 0.000343939)
(8.94862e-05 0.00338947 0.000224106)
(-0.0201429 0.415992 0.121457)
(-0.0253214 0.648663 0.211178)
(-0.055814 0.434508 0.115426)
(-0.0724915 0.661144 0.205394)
(-0.0857829 0.465147 0.108842)
(-0.116769 0.681426 0.191852)
(-0.103191 0.501705 0.107224)
(-0.154447 0.722358 0.185184)
(-0.0991996 0.538757 0.115092)
(-0.148958 0.794509 0.208016)
(-0.0907173 0.480145 0.0690487)
(-0.12541 0.591499 0.0958532)
(-0.0789035 0.499935 0.0932301)
(-0.0981702 0.644913 0.143135)
(-0.110239 0.473816 0.0465378)
(-0.152723 0.578969 0.0579234)
(-0.118007 0.466646 0.0187248)
(-0.162207 0.574963 0.0234178)
(-0.0237265 0.336644 0.358573)
(-0.00524893 0.0605806 0.0868411)
(-0.00115171 0.0134124 0.0200399)
(-0.000246292 0.00303409 0.00446927)
(-6.03371e-05 0.00053757 0.0011284)
(-0.00905638 0.401227 0.0960391)
(-0.00347047 0.111366 0.025587)
(-0.000355243 0.0272752 0.00688066)
(-0.000106683 0.00622464 0.00155076)
(-4.50544e-05 0.00109315 0.000348949)
(-0.0766854 0.34235 0.354227)
(-0.0170824 0.0594651 0.0846204)
(-0.0037702 0.0129298 0.0193896)
(-0.000812601 0.00289941 0.00429397)
(-0.000200561 0.000510946 0.00107935)
(-0.0232505 0.406713 0.0993593)
(-0.00494937 0.111345 0.0289955)
(-0.00100409 0.0269323 0.00716246)
(-0.000195781 0.00606945 0.00167024)
(-4.16305e-05 0.00106253 0.000421488)
(-0.134426 0.352604 0.338769)
(-0.0301177 0.0590114 0.079574)
(-0.00668768 0.0125209 0.0180447)
(-0.00145501 0.00277247 0.00396715)
(-0.000362421 0.000485509 0.000992008)
(-0.0413137 0.417701 0.0964763)
(-0.00993788 0.111975 0.0280039)
(-0.00221878 0.0266139 0.00686047)
(-0.000490124 0.00593043 0.0015831)
(-0.000119934 0.00103128 0.000395698)
(-0.190961 0.364387 0.313963)
(-0.0430327 0.0581294 0.0723226)
(-0.00965334 0.0120312 0.0162584)
(-0.00212545 0.00263968 0.00356253)
(-0.000536302 0.000461089 0.000890544)
(-0.0582896 0.431726 0.0924762)
(-0.0154332 0.112677 0.0262015)
(-0.0037038 0.0263821 0.0062899)
(-0.000862534 0.00583927 0.00142823)
(-0.000221964 0.00101286 0.000352082)
(-0.263042 0.371849 0.271322)
(-0.0610131 0.0570221 0.0615798)
(-0.0139893 0.0117325 0.0138349)
(-0.00313877 0.00258878 0.00304431)
(-0.000806318 0.000455206 0.000766431)
(-0.0782812 0.442452 0.0852189)
(-0.0236119 0.112789 0.0230578)
(-0.00601612 0.0263876 0.00541272)
(-0.00144594 0.00587476 0.0012141)
(-0.000381922 0.00102517 0.000296691)
(-0.346464 0.350052 0.149049)
(-0.0878674 0.0639097 0.0361615)
(-0.0213048 0.0146191 0.00842337)
(-0.00498411 0.00343291 0.00189874)
(-0.00132265 0.000625866 0.000486943)
(-0.0921755 0.392761 0.0437259)
(-0.0292438 0.113455 0.0111617)
(-0.00767518 0.0287431 0.00245184)
(-0.0018755 0.00677994 0.000511648)
(-0.000503528 0.00122974 0.000118198)
(-0.319075 0.361184 0.20985)
(-0.0783927 0.0614097 0.0494625)
(-0.0185346 0.0133739 0.0113094)
(-0.00424814 0.00304241 0.00251636)
(-0.00110887 0.000544151 0.000639714)
(-0.0883682 0.413769 0.0605336)
(-0.0285332 0.113779 0.0158424)
(-0.00749384 0.0276987 0.00364349)
(-0.0018285 0.00633274 0.000807224)
(-0.00048676 0.00112476 0.000196223)
(-0.358755 0.343567 0.0929658)
(-0.0921921 0.0654791 0.0231399)
(-0.0226396 0.0154154 0.00547163)
(-0.0053578 0.00369595 0.0012462)
(-0.00143518 0.000683038 0.000321608)
(-0.0952032 0.384423 0.0281451)
(-0.0291739 0.113154 0.00736882)
(-0.00752066 0.0292922 0.00160137)
(-0.00181483 0.00704847 0.000320752)
(-0.000485523 0.00129773 7.12341e-05)
(-0.368373 0.339691 0.0342484)
(-0.0943531 0.0641985 0.00863603)
(-0.0232721 0.0151791 0.00206095)
(-0.00553923 0.00366968 0.00047315)
(-0.00149189 0.000682818 0.000122875)
(-0.0959029 0.380065 0.0135723)
(-0.0293802 0.111656 0.00329423)
(-0.00755618 0.0291019 0.000686388)
(-0.00169311 0.00705864 0.000182937)
(-0.000479546 0.00130706 2.88396e-05)
(-0.0113206 1.49064 -0.0635375)
(-0.279718 2.09354 0.0192642)
(-0.274214 1.86966 0.175578)
(-0.153056 1.3977 -0.154366)
(0.15458 0.774464 0.0404167)
(0.212512 0.814714 0.0431235)
(0.426714 1.23478 0.108456)
(0.562229 1.24237 0.13253)
(0.241654 0.838027 0.0902413)
(0.489671 0.898478 0.145634)
(0.0876619 1.34193 0.121317)
(0.290194 1.79739 0.183291)
(0.236796 1.98878 0.117083)
(0.396899 2.7116 0.152719)
(0.439218 1.01084 0.0558238)
(0.607867 1.11405 0.0811895)
(0.528326 0.813448 0.0601821)
(0.6027 0.795516 0.0701174)
(0.301535 0.562598 0.0417909)
(0.341869 0.579506 0.0433075)