/*--------------------------------*- C++ -*----------------------------------*\
| =========                 |                                                 |
| \\      /  F ield         | OpenFOAM: The Open Source CFD Toolbox           |
|  \\    /   O peration     | Version:  2412                                  |
|   \\  /    A nd           | Website:  www.openfoam.com                      |
|    \\/     M anipulation  |                                                 |
\*---------------------------------------------------------------------------*/
FoamFile
{
    version     2.0;
    format      ascii;
    arch        "LSB;label=32;scalar=64";
    class       volScalarField;
    location    "1.4";
    object      gradTy;
}
// * * * * * * * * * * * * * * * * * * * * * * * * * * * * * * * * * * * * * //

dimensions      [0 -1 0 1 0 0 0];

internalField   nonuniform List<scalar> 
5712
(
13620.2
7485.78
23651.6
15525.9
22804.5
19444.9
33425
41611.7
50970.4
64795.5
27084.4
23859.3
16660.6
11512
11028.3
6282.66
22409.5
19862.7
20354.7
19946.9
25683.8
24363.5
29856.1
25430.9
7954.22
5490.97
4156.57
2871.83
11519.7
7350.46
6406.94
4156.45
23172.7
24353.1
20558
16381.4
16458.3
13030.2
14065.3
13468.4
18680.7
18434.3
38450.3
42435.3
27275.5
28955.8
20120.3
15849
20319.9
14225.8
8641.2
7497.99
6582.43
10210.9
3286.23
4589.9
8708.57
13546.5
5509.45
7697.9
8815.42
16153
6768.67
11371.6
2086.7
7590.8
344.401
5412.93
18795.5
22691.6
19983.4
22612.6
23622.8
23913.1
24351.2
23528.4
18040.7
21855.9
17844.4
21466.5
20139.9
22533.8
19821
22441.1
24689.8
23312.5
24789
23194.4
17006.7
21934
15531.9
21864.4
19103.3
20823
24047.4
34331.9
20055.5
24282.9
23971.7
37890.4
18048.9
18337.3
23874.8
32408.1
17341.9
16793.8
23825.2
31478.2
5188.24
6670.21
14225.5
23678.7
6159.2
6996.79
17441.3
26310.3
7234.48
7569.51
21144.2
29242.3
25919.6
28055.2
22402.6
20937.2
29528.8
28500.7
25085
22314.4
19200.3
33822.9
26099.7
24435.6
20916.6
22210.7
43355.5
1804.38
2385.27
5021
10640.2
2537.5
3576.15
6544.5
12189.8
3768.01
3637.58
8648.6
14209.7
27524.5
26966.4
23154.8
21742.9
20004.2
17392.6
14805.6
12882.6
11956.5
18093.8
24383.7
21656.4
22825.2
21063
19604.4
17803.2
17317.2
15051.1
14102.4
19518.3
23670.3
25082.1
24593.4
26900.4
23544.5
21616.3
24000.2
22895.9
21793.2
21944.6
21446.5
21191.5
25050
27573.8
24902.9
27346.2
24376.7
23898
24144.5
23761.7
21580.8
21764
21874.4
21945.1
19016.2
18710.9
13201.5
15799.6
19211.5
18435.5
13673.9
16512.3
18452.8
18408.1
13001.4
15736.5
18605.4
18192
12854.9
15326
1985.74
1565.51
1124.08
1062.87
881.404
866.767
3012.87
2028.94
1531.32
2500.53
2175.94
1826.78
3104.11
2846.18
2940.34
4520.94
3796.92
3381.31
24982.1
21417.6
19090.3
21103.6
19129.5
17657.8
14580.9
13516
12919.8
10631
9728.63
9260.83
7379.53
5192.71
4080.54
19769
17555.7
16075.1
20024.1
17973.4
16788.9
15104.7
12910.9
11749.5
11097.9
9407.85
8617.7
7635.41
5367.91
4229.8
29377.1
30207.5
31435.6
28659.6
28909
28638.8
34701.1
29615.2
18586
20218.2
18584.9
18166.1
24695.2
21485.9
24267.7
19009.4
26759.9
27752.3
22800.4
25401.7
29580.6
26200.2
29940.3
31184.6
31921.6
34339.5
25698.3
26427
22262.7
21988
25364.3
24547.3
16820.6
9677.54
15820.4
10692.6
16347.7
9486.81
15265.5
10368.5
14942.8
8774.07
14195.4
9850.06
13975.1
10224.7
13437.9
10206.3
22975.5
17860.3
22674.9
18109.8
25814.5
22857.4
26088.1
22637.3
20836.4
14147.8
21495.8
13584
23220.8
18253.7
23910.4
18261.6
26845.4
22598.3
27387
22558.4
20361.5
14383.7
20258.1
14413
12343.7
8578.09
10727.3
7036.74
11328.6
7678.48
9979.98
6454.42
12666.1
9086.07
11066.9
7367.96
12762.2
9409.7
11162.2
7559.2
2738.15
1486.85
5202.46
3081.79
2820.84
1695.22
5271.54
3365.56
3045.47
2227.52
5215.26
3814.22
13300.8
22511.9
8659.46
7874.4
5816.47
22970
14580.7
8142.37
7254.34
4586.05
22196.6
15883.4
11569.7
8489.56
5537.48
1028.34
940.289
2189.07
1976.11
1265.12
969.329
2588.97
2298.51
1762.73
1472.31
3078.89
2725.3
23123.7
21560.1
14484.5
12814.5
8987.42
8274.7
6879.83
6275.19
4227.21
3766.35
20163.2
16907.4
14476.1
12058
10698.9
9337.46
7593.59
6916.61
5096.68
5331.73
13764.7
10500
13974.9
9939.92
17869.3
12932.7
18261.8
12817.3
11225.5
8635.08
11074.5
9177.69
14511.5
9516.94
14676.9
9660.49
19252.5
13232.8
19257.3
13377.2
11332.7
8143.14
11546.2
8503.13
8035.69
6957.98
5581.85
6863.78
8121.81
7260.23
5668.29
6740.71
8013.51
6779.48
5451.24
7151.99
8431.64
6867.1
5661.48
7083.45
1842.48
1431.27
1099.41
6638.17
3245.14
2456.83
1721.94
1552.39
1291.34
7037.16
3812.4
3025.17
2156.9
2199.27
2150.61
7528.4
4744.97
4074.07
18554.8
16066.3
14474.7
11424.6
10192.3
9469.96
7995.53
7271.04
6899.07
6747.42
6057.86
5733.95
8802.33
6246.97
5461.91
13776.6
11775.3
10535.8
10066.1
8694.26
7929.04
8527.65
7269.21
6477.59
7834.63
6637.97
6009.12
11442.3
7793.8
6915.88
5248.87
3029.72
1971.44
1480.64
5831.05
3241.84
2043.33
1523.95
5106.25
2990.77
1969.52
1496.91
5790.3
3251.68
2072.81
1548.98
4851.8
2939.04
2009.92
1502.99
5630.4
3282.4
2151.06
1563.13
5881.73
3400.22
2137.34
1601.78
6027.93
3525.22
2198.31
1638.13
5139.67
3102.92
2093.4
1538.45
4314.1
2798.14
1982.87
1432.64
4530.62
2846.85
2017.86
1440.65
3937.68
2626.4
1910.04
1370.96
5501.5
3290.03
2146.51
1589.89
4552.84
2933.67
2034.61
1467.25
5706.86
3425.07
2203.51
1618.97
4692.69
3036.09
2088
1489.62
4077.37
2676.45
1869.29
1403.57
2901.78
2269.42
1737.96
1290.35
3970.13
2643.87
1873.14
1405.86
2892.38
2267.85
1739.5
1296.15
3808.74
2597.23
1891.84
1407.16
2963.38
2301.27
1751.79
1314.75
3656.1
2527.68
1874.48
1401.67
3000.57
2317.71
1792.21
1325.35
3454.6
2457.95
1815.4
1316.39
1703.92
1897.18
1425.22
442.539
397.532
1701.62
1281.28
415.965
1845.74
1952.01
1451.71
465.349
599.233
1764.29
1302.3
423.587
2077.9
2036.61
1474.44
462.911
917.997
1867.61
1326.58
426.453
2419.85
2146.62
1519.02
493.968
1314.69
2000.58
1370.69
443.324
2922.36
2299.18
1594.96
552.581
1775.28
2135.68
1414.53
457.21
3294.67
2488.24
1642.12
525.763
1821.55
2306.68
1507.5
477.334
3224.53
2404.09
1606.03
526.578
1844.81
2239.58
1457.86
465.043
3300.63
2549.31
1664.49
497.711
1760.32
2364.72
1539.87
477.023
3290.49
2620.3
1718.28
508.93
1888.7
2437.29
1584.98
487.849
1152.14
778.281
488.191
265.006
83.6268
1161.08
780.546
489.081
265.39
83.7359
1172.74
784.961
491.084
266.243
83.9698
1179.81
788.472
492.801
267.031
84.1986
1183.54
791.858
494.277
267.622
84.3528
1185.06
799.614
498.467
269.596
84.9322
1227.29
815.803
506.693
273.43
86.0475
1248.36
830.511
514.795
277.298
87.1812
1218.01
807.865
501.895
271.06
85.3414
1236.27
810.658
502.419
271.173
85.3594
1190.16
799.438
497.703
269.106
84.7676
1224.37
805.544
499.879
269.987
85.0101
1236.32
817.275
506.885
273.429
86.0376
1251.26
819.633
507.231
273.466
86.0353
1251.7
832.621
515.645
277.646
87.2786
1268.59
834.404
515.728
277.582
87.2524
1139.85
775.639
487.199
264.586
83.5081
1143.14
774.515
486.604
264.325
83.4341
1152.6
780.913
489.392
265.49
83.753
1155.33
779.367
488.556
265.115
83.6471
1170.82
787.888
492.246
266.668
84.0722
1180.02
786.358
491.244
266.201
83.9391
1197.67
795.821
495.486
268.03
84.4454
1206.78
793.498
494.212
267.443
84.2728
1213.02
801.164
497.844
269.06
84.7368
10399.8
16216.6
10862.7
16528.6
11628.7
17035.7
12542.6
18058.9
13468.9
19862.7
12003.6
14787.5
12498.4
16122.8
11845.4
14474.2
11666.2
14374.1
8416.1
1514.52
335.31
75.8523
13.4393
10030.7
2784.15
681.879
155.616
27.3288
8558.76
1486.63
323.245
72.4853
12.7736
10167.8
2783.62
673.309
151.736
26.5633
8815.1
1475.28
313.022
69.3117
12.1377
10442.5
2799.38
665.348
148.261
25.782
9109.67
1453.24
300.781
65.992
11.5272
10793.2
2816.93
659.552
145.982
25.3216
9296.22
1425.55
293.313
64.7194
11.3801
11061.3
2819.73
659.689
146.869
25.6294
8751.29
1597.74
365.478
85.8229
15.6467
9819.02
2836.38
718.578
169.499
30.7436
9029.61
1535.24
334.347
76.0601
13.6038
10344.2
2844.48
692.469
158.319
28.1191
8589.18
1636.98
385.386
92.3987
17.0759
9610.57
2828.86
732.305
176.212
32.4432
8492.27
1604.96
379.477
91.7421
17.0705
9501.63
2791.4
727.548
176.466
32.6765
37265.9
52338.4
46741.6
34942.6
19361.6
20367.8
30869.6
31059.2
20950.7
22462
33548.2
44934.7
49719.4
67790.1
25271.1
27851.2
20336.2
19887.9
14064.9
14487.7
4015.53
2748.23
565.637
417.323
511.474
426.478
545.404
3877.53
3816.8
2377.05
3125.91
2734.81
1212.8
1781.23
1489.26
967.147
1111.97
900.461
3397.08
1852.33
1077.29
984.895
1264.61
1074.81
806.156
797.287
715.736
634.587
859.053
803.679
3541.87
2164.13
2311.71
1531.78
1240.63
1824.03
829.757
623.78
934.97
8324.4
8388
8296.26
9830.87
16425.6
6064.72
6702.95
7052.73
8041.75
9251.32
1478.12
2088.49
2537.93
2837.54
2989.85
1099.56
1572.99
1930.74
2170.27
2290.94
1343.74
1913.14
2336.57
2615.62
2754.7
1124.05
1608.51
1973.92
2217.25
2339.11
1428.69
2025.63
2466.69
2758.27
2904.71
8447.58
8844.96
8471.29
9262.43
14637.5
8038.47
8142.67
7831.73
8234.77
9687.44
5409.57
6164.82
6402.76
6854.74
7416.8
6684.76
6973.69
6772.6
6891.54
7478.27
5928.06
6326.06
6166.21
6221.7
6563.72
2992.66
3880.91
4405.36
4750.51
4954.63
4181.36
5023.37
5395.68
5707.69
5979.67
3568.98
4417.75
4827.23
5095.03
5272.79
2446.15
3289.52
3833.03
4174.99
4352.76
2766.31
3628.15
4144.49
4465.86
4639.57
2293.48
3115.41
3655.74
3991.6
4160.31
7560.32
8180.77
8059.59
9049.77
14436
4394.72
5339.82
5816.93
6338.25
6815.28
2704.35
3596.99
4165.71
4545.05
4759.82
2495.11
3364.63
3940.94
4328.42
4543.19
3128.27
4067.77
4646.2
5079.15
5362.34
2711.42
3629.12
4232.48
4657.87
4901.68
2072.95
2858.02
3409.3
3783.52
3981.98
2053.01
2836.67
3384.73
3747.3
3935.85
1855.48
2588.47
3105.42
3435.93
3599.8
1654.19
2327.38
2813.72
3129.74
3287.26
2198.63
3009.66
3558.61
3910.23
4090.6
2068.04
2854.28
3399.61
3754.52
3937.02
7617.72
7992.2
7944.18
9244.43
15051.1
4973.62
5825.17
6312.08
7083.68
7903.09
5710.65
6806.49
7060.72
7967.01
9028.31
3749.96
4768.52
5381.77
5958.48
6356.59
3100.61
4078.96
4701.75
5181.27
5469.28
4412.42
5413.44
5899.72
6500.52
6908.13
2130.91
2932.37
3490.55
3865.45
4063.71
1625.21
2285.54
2764.38
3079.09
3237.83
2380.79
3234.53
3811.36
4200.12
4411.53
20300.1
13274.9
21480.1
16288.9
25781.7
36885.4
27576.5
38531.8
22413.4
21795.4
19850
20456.1
23419.8
23112.6
29028.8
24667.3
15746.4
14009.7
7040.3
5632.66
18329.4
14765.7
9744.9
6571.51
23652.7
25997.8
21525.4
19072.7
22677.8
15117
14025.2
13514.6
18894.3
18506.2
38575.8
42551
27000.4
28910
20722
16015.4
21043.7
14383.3
9189.53
7608.03
14896
17942.7
6013.04
7314.47
15917.7
20022.9
8064.56
10239.4
13825.6
20300.3
8613.62
13328.3
2407.1
8291.3
369.306
5550.54
19685
21520.8
19987.5
22013.6
22433.7
22207.4
23588.8
22613.9
18794.3
21672.7
20179.8
21062.9
20103.5
22238.2
19800.7
22346
24322.9
22857.2
24689.7
23049.7
17268.5
21843.1
15581.8
21833.4
19788.5
21952.9
24240.3
34619.4
21189.6
26325.6
24320.2
38432.8
18374.3
18865.8
23964.2
32548.1
17429.9
16938.3
23849.6
31521.3
19969.3
22758.9
26441.6
37450.1
19003.3
20482.2
27262.8
37133.5
16510.2
17007.8
27426
35573.7
19874.6
21457.3
20689.5
21535.2
32285.5
21036.7
18656.8
21746.2
19877.6
36920
21213.1
20514.5
19379.2
22738.6
44293.1
14040.6
13336
11808.1
14942
13654.8
13122
12048.9
15463.9
12532.9
11335.2
11919
15554.1
20467.6
19663.8
18010.1
17044.4
19627.7
17866.1
15702.6
13867.5
13211.1
17699.1
20333.6
18820.3
19680.9
19006.9
18273.7
16885.9
17515.9
15010
14195.2
18223
22020.6
23606.9
23684.3
25988.1
21614.4
20209.3
22977.7
22102.3
21268.3
21340.9
20534.5
20251.5
24629.7
27172.1
24779.9
27229.2
23906.8
23559.6
24007.8
23663.1
21326.6
21466.6
21799.8
21861.3
18812.2
18373.5
13157.6
15593
18966.3
17965.3
13678
16127.6
18337.5
18223.9
12961.2
15622.2
18565.6
18133.2
12837.5
15286.5
12805.6
13846.3
4958.1
5081.07
12468.9
12529
5704.14
5926.57
10023.7
9697.82
6249.04
6052.77
18900
17751.8
17316.3
16937.8
15730.2
15086.3
11767.4
10709.1
7921.77
6083.03
18399.8
17427.7
19474.5
18334
15071
13604
11488.9
10166.2
7121.62
5437.2
24506.2
24290.2
29219.7
25930.5
26240
25161.9
34684.6
28214.1
19897.4
15494.8
21461.5
16700.3
20763.8
15529.5
22338.8
16664.4
23181.7
21253.2
20206.9
19433.4
21292
22773.3
28613.2
30789.9
31208.8
34129.9
24018.7
25912.4
21084.7
21654
23576.4
24015
12898.1
10301.6
13977.3
10703.9
12541
10033.5
13633.4
10396.8
11874.4
9248.46
12868.3
9809.7
13205.1
10122.8
13202.8
10161.4
18942.1
16703
20793
17305.5
22709
20854.5
24613.8
21517.4
18890.2
13796
17467.5
13358.4
22303.8
17799.8
23637.9
18110.8
26130.4
22023.7
27178.9
22374.2
19424.1
14137.2
19984.9
14323.5
11858.7
8832.97
10839.5
7437.98
11064
8510.02
10532.6
7323.56
12327.5
9145.56
11060.8
7551.02
12644.5
9411.47
11154.7
7623.21
11161.6
11442.2
9530.31
9161.81
10636.5
11063.4
9194.92
8837.44
9919.18
10227.7
8362.67
7957.52
16578.5
20910.9
14530.8
10206.9
8064.72
20331.6
17643.8
15929.6
10293.9
7619.36
20282.4
16435.7
13172.2
10522
7310.2
12773.4
14801.7
9622.14
10676.9
12044.3
13437
9063.52
9894.61
10727.4
11400.1
7784.36
7947.44
19530.2
17901.3
15705.2
14389.8
14308.7
14394.5
10437.3
10816.9
7463.47
7424.41
18114.6
15308.3
14648
12355.6
12291.5
11157.4
9877.26
9492.62
6929.43
7460.49
13530.7
10687.6
13802.8
10091.8
16696.9
12347.8
17603.7
12552.1
11448.5
9075.97
11583.9
10007.4
14378.1
9573.05
14627
9671.17
18915.4
13109.8
19154
13340.9
11377
8305.22
11532.6
8535.35
8456.23
7540
6065.29
7621.62
9062.13
8434.24
6670.25
8177.25
8166.41
7016.37
5670.46
7530.85
8481.99
6941.2
5747.17
7202.9
18650.4
19446.2
21886.4
18463.1
16264.6
16944.2
20501.9
17391.4
13263.2
13723.5
17685.1
15246.9
16346.9
15273.2
13836.3
13381.8
14622.1
14584.8
12067.5
11580.9
16720.9
14643.3
12806.3
12158
10902.5
10697.6
10915.1
10649.6
11264.6
10726.4
17529.7
14644.7
6527.13
3874.94
2457.55
1799.05
6705.81
3944.27
2482.17
1822.82
6273.76
3779.89
2414.95
1791.84
6537.92
3865.86
2454.84
1813.07
5852.5
3642.1
2401.17
1757.06
6187.91
3774.57
2471.67
1781.07
6197.22
3708.27
2357.76
1754.27
6129.66
3631.05
2272.07
1691.42
5658.14
3505.7
2351.48
1719.37
4790.51
3155.27
2201.31
1581.96
5417.88
3440.64
2360.7
1661.91
4726.03
3166.44
2210.98
1557.41
5771.2
3522.3
2302.77
1703.99
4808.57
3135.81
2171.11
1568.4
5786.92
3502.68
2258.52
1659.35
4775.84
3102.21
2135.42
1524.35
6154.04
3737.58
2427.93
1745.18
5588.9
3529.85
2371.78
1643.13
5862.36
3649.64
2400.58
1728.98
5309.17
3457.55
2344.25
1636.55
5438.98
3515.82
2377.24
1702.49
4921.14
3346.94
2295.53
1626.26
5017.54
3320.99
2288.45
1647.45
4648.84
3242.02
2265.85
1590.29
4626.58
3165.41
2192.22
1518.87
4628.74
3258.41
2029.12
589.988
2939.03
3081.98
1895.15
575.609
4441.97
3222.9
2027.43
611.494
2877.71
3051.01
1886.89
577.623
4168.67
3149.31
1986.24
591.951
2762.27
2993.81
1850.97
565.58
4133.96
3091.77
1979.23
617.683
2867.07
2948.36
1827.75
567.813
4175.88
3033.51
1981.7
666.918
3011.73
2887.32
1792.18
563.92
3729.1
2840.6
1893.44
613.027
2118.09
2649.65
1720
543.171
4002.22
2941.25
1934.68
629.887
2464.66
2770.12
1752.2
551.466
3511.34
2745.45
1820.76
554.015
1871.66
2552.63
1666.71
517.405
3344.75
2682.18
1770.43
527.995
1912.48
2495.66
1626.36
501.216
1369.04
897.618
549.671
293.639
91.9266
1364.38
895.362
548.785
293.281
91.8278
1379.14
895.777
547.818
292.622
91.6136
1363.32
891.192
546.007
291.862
91.4013
1373.59
892.597
545.584
291.449
91.2558
1333.61
882.292
541.252
289.572
90.7287
1323.05
867.336
533.553
286.028
89.7095
1284.36
850.634
525.369
282.275
88.6309
1348.21
879.636
539.001
288.387
90.3706
1365.87
882.201
539.315
288.393
90.3571
1358.12
888.542
543.061
290.183
90.8755
1386.73
888.048
541.795
289.475
90.6595
1324.58
868.822
533.946
286.129
89.7296
1336.05
870.992
534.356
286.209
89.7412
1281.35
850.062
524.909
282.017
88.5533
1297.34
852.467
525.426
282.168
88.5916
1375.56
900.646
550.74
294.053
92.0393
1400.85
903.617
551.433
294.294
92.1036
1381.36
900.003
549.532
293.328
91.8092
1406.81
903.318
550.445
293.678
91.9068
1389.3
898.591
547.755
292.326
91.4957
1420.57
902.408
548.841
292.753
91.6155
1402.07
895.664
545.425
291.128
91.1307
1431.08
898.795
546.524
291.594
91.2592
1399.59
891.893
543.508
290.231
90.8691
12412.5
16682.5
12367.5
16640.5
12398.3
16618
12792.1
17254.6
13291.7
18650.7
11917
14593.2
12370.5
15694.6
11793.2
14377.4
11650.8
14346.7
9025.17
1575.91
343.138
76.9338
13.5662
10434.8
2868.73
696.294
157.806
27.5916
9014.87
1530.32
328.566
73.1858
12.8508
10409.6
2838.33
682.711
153.122
26.7209
9029.75
1492.03
314.573
69.4379
12.1393
10435.9
2808.2
667.075
148.43
25.7782
9108.04
1445.33
298.837
65.5759
11.4561
10571
2783.55
654.007
144.961
25.1572
9150.66
1402.9
289.239
63.9476
11.2581
10707.4
2762.97
649.808
145.069
25.352
8654.27
1578.42
361.196
84.8985
15.491
9690.1
2799.48
709.819
167.611
30.4281
8889.93
1510.25
329.364
75.061
13.4422
10116.5
2791.75
681.56
156.165
27.7772
8533.75
1625.23
382.593
91.761
16.9651
9543.22
2807.82
726.883
174.972
32.228
8474.81
1601.18
378.548
91.523
17.0317
9481.34
2784.84
725.786
176.047
32.603
36858.6
52309.9
46704.7
33715.2
25044.4
30043.9
24789.9
30022.5
28174.6
44382
30488.9
48392.6
81.5225
93.1997
119.15
161.707
223.271
306.96
91.0911
102.998
129.225
171.565
232.422
315.226
73.8809
70.1046
85.4663
81.5122
111.648
107.541
156.111
153.156
221.139
222.522
311.185
321.644
415.907
566.841
792.27
1152.5
1519.44
1819.03
425.105
570.771
761.915
995.376
1217.2
1367.06
218.057
319.22
400.084
456.307
485.124
249.075
364.166
455.88
519.463
551.981
318.017
464.021
579.731
659.578
700.291
430.81
626.795
780.96
886.7
940.417
593.309
859.844
1067.47
1208.86
1280.42
812.762
1171.47
1447.37
1633.82
1727.95
243.486
356.122
445.983
508.347
540.26
275.061
401.747
502.463
572.145
607.726
344.606
502.181
626.706
712.443
756.092
456.588
663.278
825.325
936.233
992.516
616.849
892.333
1106.16
1251.55
1325.14
833.439
1198.79
1478.8
1668
1763.69
197.66
289.506
363.064
414.281
440.549
187.562
274.771
344.689
393.409
418.401
228.488
334.286
418.769
477.435
507.463
217.937
318.94
399.691
455.813
484.544
298.125
435.337
544.333
619.672
658.116
287.204
419.548
524.821
597.657
634.832
416.101
605.89
755.506
858.261
910.48
408.303
594.767
741.943
843.097
894.504
587.902
852.612
1059.13
1199.83
1271
591.627
858.148
1066.14
1207.8
1279.4
824.217
1188.55
1468.9
1658.13
1753.45
851.829
1228.1
1517.23
1711.93
1809.76
1095.35
1566.22
1922.29
2161.4
2282.32
1480.15
2090.04
2540.38
2842.8
2997.97
2038.54
2817.3
3372.31
3753.95
3959.74
2891.03
3849.01
4496.91
4990.03
5293.47
3695.86
4722.46
5396.41
6005.57
6464.21
4321.78
5348.63
6013.04
6726.87
7336.02
1117.9
1595.18
1955.12
2197.27
2320.3
1489.41
2101.62
2554.01
2858.9
3016.21
1966.79
2732.52
3284.54
3662.47
3864.65
2533.67
3451
4095.08
4554.31
4816.83
3053.93
4079.4
4786.56
5321.88
5654.94
3396.42
4478.16
5218.54
5808.65
6197.94
83.0496
97.9218
127.726
175.157
242.815
333.777
92.7063
107.968
138.063
184.985
251.151
339.674
75.312
71.4833
89.9766
85.8868
120.019
115.742
169.727
166.77
241.772
243.656
341.61
355.486
449.967
606.486
833.008
1184.48
1538.25
1824.71
454.753
603.705
794.418
1022.2
1234.46
1372.94
222.139
325.229
407.69
465.053
494.456
261.792
382.99
479.74
546.929
581.333
341.129
498.277
623.222
709.709
753.905
467.109
680.732
849.622
966.023
1025.36
646.182
938.711
1168.26
1325.69
1405.76
885.563
1280.66
1587.68
1797.18
1903.65
247.819
362.52
454.095
517.685
550.233
288.459
421.604
527.667
601.188
638.78
368.44
537.551
671.671
764.329
811.617
492.829
717.19
894.041
1015.7
1077.66
667.536
968.007
1202.98
1363.87
1445.69
899.813
1298.4
1606.93
1817.29
1924.33
201.496
295.16
370.214
422.495
449.314
191.258
280.218
351.572
401.312
426.829
240.622
352.224
441.482
503.555
535.362
229.7
336.316
421.677
481.086
511.53
320.667
468.713
586.666
668.43
710.238
309.277
452.209
566.226
645.325
685.775
452.833
660.439
824.911
938.408
996.283
445.021
649.281
811.292
923.167
980.216
643.726
935.896
1165.6
1323.25
1403.42
648.846
943.613
1175.53
1334.74
1415.68
906.842
1312.53
1628.31
1843.83
1953.26
943.832
1366.41
1695.41
1919.86
2033.73
1188.31
1706.81
2104.45
2374.93
2512.88
1589.43
2257.76
2760.74
3104.03
3281.87
2153.1
2997.96
3615.55
4048.11
4283.08
2985.51
4006.58
4718.53
5268.17
5606
3755.65
4828.73
5551.9
6208.34
6699.33
4341.35
5385.51
6068.83
6802.36
7425.96
1198.78
1717.51
2113.7
2383.23
2521.11
1579.97
2240.21
2735.74
3074.01
3249.76
2057.32
2873.6
3472.68
3888.27
4111.79
2609.92
3573.02
4261.54
4757.96
5042.35
3104.2
4162.03
4901.69
5465.47
5816.13
3413.81
4507.27
5259.69
5860.72
6256.96
4005.21
2750.48
616.103
457.807
578.587
478.144
606.851
3712.55
3550.98
2392.83
2881.12
1309.95
1825.58
1080.1
1242.94
1011.01
3339.35
1906.43
1171.66
1071.26
1343.83
1144.88
862.352
872.656
826.471
728.124
960.094
892.923
3516.06
2179.62
2318.94
1569.82
1295.82
1868.47
896.605
697.917
1013.37
8327.08
8428.76
8374.84
9979.37
16717.9
6082.87
6748.63
7128.82
8157.11
9401
1617.3
2302.39
2819.52
3171.89
3353.46
1209.95
1739.87
2147.07
2423.98
2564.93
1527.46
2192.51
2700.96
3045.46
3220.67
1264.76
1820.82
2248.72
2539.32
2686.92
1597.67
2284.24
2805.83
3159.81
3340.8
8411.81
9373.06
9583.84
11095.7
17868.8
8096.2
9119.32
9576.44
10949.6
13668.9
5653.13
6842.72
7543
8485.52
9446.17
6992.55
8343.56
8866.9
9895.84
11463.5
3323.08
4497.08
5316.32
5925.52
6301.5
4481.51
5753.84
6566.69
7305.03
7893.48
2785.96
3865.44
4645.99
5191.37
5493.65
3174.77
4341.02
5165.36
5758.51
6106.35
2621.51
3665.45
4428.46
4953.66
5236.38
7589.45
8526.25
8755.96
10180.9
16458.1
4619.25
5815.31
6570.78
7370.8
8050.25
2995.19
4102.04
4890.28
5461.43
5795.3
2750.85
3792.84
4543.16
5080.04
5385.33
3379.82
4517.46
5305.32
5928.74
6334.88
2920.14
3980.98
4730.61
5283.54
5604.92
2232.34
3112.25
3754.81
4204.25
4446.12
2266.93
3178.25
3849.18
4312.64
4559.62
2163.31
3066.69
3741.87
4200.15
4437.76
1911.63
2721.98
3332.67
3746.78
3959.71
2492.02
3490.06
4222.79
4727.99
4999.21
2322.59
3263
3957.33
4434.92
4688.8
7643.13
8144.61
8217.56
9700.56
15933.3
5041.36
5968.41
6537.31
7399.59
8291.87
5821.84
7109.61
7569.39
8719.97
9979.25
3874.28
4995.13
5718.6
6401.31
6865.56
3269.61
4370.96
5122.05
5717.28
6076.06
4591.77
5780.59
6472.31
7283.83
7829.83
2321.46
3238.18
3908.12
4375.55
4627.62
1830.41
2602.49
3183.61
3579.03
3783.19
2609.18
3610.42
4334.22
4847.63
5133.35
6770.76
6360.08
5715.14
4862.78
3622.28
1435.29
20238.5
21513.2
22823.3
23564.9
21728.2
21834.3
21879.2
22286.6
17873.3
21057.5
20196.5
20958.1
26952.1
18529.1
29683.9
18946.4
20285.5
21325.2
21631.2
20766.4
21916.1
20816.7
21886.2
18449
27903.4
20763.4
27063.8
27951.1
22674.8
34331
17514.6
18664.4
19223.9
19131.1
19474.8
21196.2
19247.1
21001.6
20778.5
26762.2
23300.5
26332.3
29060.9
25451.7
32785.3
16123.8
17173.1
17189.2
16879.4
18296.8
20600.8
17603.3
19939
18774.9
24450.5
20890.7
23190.4
25381
22288.7
29222.7
14773.7
15835
15599.8
15236
17227.3
19903.4
16039.4
18252.2
16517.2
19689.6
18629.3
18341.1
21897.5
18564.4
23175
13526.7
14551
14357.8
13990.7
15649.6
17739
14789.9
16634.6
14105.6
15660.8
16085.4
15085.2
19008
15366.6
19881.6
22710
22764.3
23797.8
24943.3
23249.5
23795.7
22703.1
23395.8
19328.1
12336.5
20447.6
12151.8
20514.8
16811.7
17435.6
21543
21916.6
21969.6
22572.6
22430.3
23080.7
21347.8
22224.8
16987
12198.6
17739.8
11903.4
17548.2
15685.4
15994.6
18658.2
19062.7
19416.6
19527.9
19733.9
20290.8
19330.7
20578.1
15406.4
12609
16263
12037.4
16718.4
13990.8
16255.7
15819
16362.7
16982.7
16800.6
17217.1
17773.8
17432.3
18765.4
13213.1
13058.5
14101.2
12307.8
14646.5
12338.1
16476.6
13911.3
14570
15199.5
14937.8
15532.4
16583.2
15669.5
16858.1
11979.7
13848.1
13205.2
13759.2
14350.1
13188.1
17974.6
12322.1
13061
13869.8
13575.9
14479.3
15973.1
14349.5
15757.9
11480
14663.2
13084.7
15249.8
14732.8
13682.2
19574.2
13322.3
7182.64
23633.5
15480.7
22800.1
19429.1
33419.5
41600.3
50965.9
64778.5
27091.4
23849.2
16667.6
11490
10658
5936.59
22404.3
19859.8
20348.8
19944.4
25680.1
24361.1
29851.2
25428.7
7770.19
5395.76
4026.52
2813.53
11510.3
7343.12
6407.3
4161.11
23167.2
24346.4
20555
16379
16454.4
13031.1
14063.5
13467.7
18679.4
18433.6
38448.2
42434.2
27274.1
28954.8
20119.9
15849.2
20319.4
14225.6
8641.16
7498.01
6468.87
10017
3213.66
4469.9
8713.24
13558.5
5519.8
7712.24
8818.23
16158.8
6772.75
11376.9
2087.28
7592.71
344.398
5413.57
18794.1
22690.9
19982.4
22612.1
23621.5
23912.3
24350
23527.7
18040.5
21855.7
17843.4
21466.2
20139.1
22533.4
19820.5
22440.8
24688.9
23311.9
24788.2
23193.9
17006.5
21933.9
15531.8
21864.4
19104
20825.2
24048
34333.1
20056.1
24285.8
23972.5
37892
18049.4
18338.6
23875.3
32409
17342.4
16794.7
23825.6
31479
5125.24
6623.02
14031.9
23508.5
6169.53
7008.13
17458
26332.2
7238.73
7573.81
21151.6
29249
25918.4
28054.3
22400.9
20937.8
29532.2
28499.7
25083.7
22312.2
19200.8
33826.2
26098.9
24434.7
20916.1
22211.7
43357.7
1777.93
2352.92
4961.87
10556.5
2548.11
3582.12
6558.07
12202.6
3771.76
3640.32
8654.43
14214.8
27523.7
26965.7
23153.8
21742.2
20003
17391.8
14806.7
12883.5
11959.4
18096.3
24383
21656
22824.6
21062.6
19604.1
17803.2
17318
15051.8
14103.7
19519.4
23669.9
25081.8
24593.1
26900.2
23544
21616
23999.8
22895.6
21793.1
21944.6
21446.4
21191.5
25049.7
27573.6
24902.7
27346
24376.3
23897.7
24144.2
23761.4
21580.8
21763.9
21874.3
21945
19016.4
18711.1
13201.9
15799.9
19211.9
18435.8
13674.6
16512.8
18453
18408.3
13001.7
15736.7
18605.5
18192.1
12855.1
15326.2
1946.39
1535.62
1104.8
1049.17
871.146
859.689
3015.48
2030.84
1533.69
2505.76
2180.16
1830.66
3105.47
2847.21
2941.28
4522.96
3798.45
3382.84
24981.6
21417.2
19090
21103.1
19129.2
17657.6
14580.5
13515.7
12919.7
10631.5
9728.89
9261.14
7380.58
5193.41
4081.18
19768.7
17555.4
16074.8
20023.9
17973.2
16788.8
15104.7
12910.9
11749.5
11098.2
9408.07
8617.92
7635.86
5368.21
4230.08
29381.8
30209.7
31439.7
28661.3
28906.8
28637.9
34697.8
29614.2
18436.9
20181.3
18397.3
18119.8
24718.1
21479.4
24295.4
19002.7
26765.7
27758.9
22802.9
25404.4
29580.4
26200.1
29940.9
31184.5
31920.8
34338.6
25700.3
26427.6
22263.6
21988.2
25365.1
24547.9
16802.5
9656.98
15798.6
10675.5
16344.5
9487.49
15262.7
10368.4
14941.8
8774.01
14194.7
9849.86
13975.3
10224.6
13438.3
10206.5
22976.4
17860.3
22675.5
18109.8
25814
22857
26087.5
22636.9
20837
14147.9
21496.3
13584.2
23221
18253.6
23910.2
18261.5
26844.8
22597.9
27386.4
22558
20361.9
14383.8
20258.3
14413
12344.1
8578.12
10727.4
7036.81
11329.1
7678.54
9980.17
6454.5
12666.4
9086.14
11067
7368.03
12762.4
9409.87
11162.3
7559.28
2725.47
1473.5
5187.38
3064.26
2823.41
1697.71
5272.78
3367.08
3046.35
2228.32
5215.62
3814.76
13300.7
22511.3
8659.61
7874.78
5816.69
22969.4
14580.4
8142.2
7254.51
4586.39
22196.1
15883.2
11569.7
8489.75
5537.6
1011.92
923.224
2166.85
1962.4
1266.42
969.913
2590.26
2299.03
1763.33
1472.69
3079.42
2725.51
23123.1
21559.5
14484
12813.9
8986.94
8273.98
6879.77
6274.95
4227.49
3766.47
20162.7
16907
14475.8
12057.7
10698.8
9337.25
7593.69
6916.59
5096.8
5331.74
13764.6
10499.9
13974.8
9939.82
17869
12932.5
18261.5
12817.2
11225.4
8635.03
11074.4
9177.62
14511.4
9516.85
14676.8
9660.39
19252.2
13232.6
19257.1
13377.1
11332.7
8143.09
11546.1
8503.08
8035.74
6957.98
5581.89
6863.8
8121.89
7260.24
5668.36
6740.77
8013.53
6779.47
5451.26
7151.99
8431.64
6867.07
5661.5
7083.46
1816.36
1409.71
1082.57
6597.45
3216.51
2431.85
1721.25
1552.21
1291.76
7042.13
3816.51
3028.66
2157.23
2199.52
2150.8
7530.15
4746.51
4075.53
18554.2
16065.8
14474.3
11424
10191.7
9469.45
7994.66
7270.28
6898.47
6747.1
6057.49
5733.62
8803.19
6247.81
5462.77
13776.3
11775
10535.6
10065.8
8693.97
7928.78
8527.42
7268.99
6477.39
7834.59
6637.9
6009.06
11442.8
7794.26
6916.43
5247.85
3030.68
1971.45
1479.98
5828.92
3242.04
2043.08
1522.71
5104.73
2990.41
1969.41
1496.76
5789.21
3251.58
2072.81
1548.93
4851.16
2938.83
2009.84
1502.91
5629.9
3282.27
2151.02
1563.08
5881.49
3400.14
2137.31
1601.75
6027.89
3525.2
2198.31
1638.12
5139.48
3102.84
2093.36
1538.42
4314.05
2798.12
1982.85
1432.62
4530.38
2846.76
2017.81
1440.6
3937.63
2626.38
1910.02
1370.93
5501.41
3289.99
2146.49
1589.86
4552.83
2933.66
2034.61
1467.24
5706.86
3425.07
2203.51
1618.96
4692.71
3036.1
2088
1489.61
4076.1
2677.35
1869.57
1403.26
2897.37
2268.85
1738.02
1289.99
3968.7
2643.52
1872.99
1405.69
2891.52
2267.75
1739.34
1296.06
3808.18
2597.06
1891.76
1407.08
2963.2
2301.26
1751.74
1314.71
3655.95
2527.63
1874.45
1401.64
3000.55
2317.73
1792.2
1325.32
3454.59
2457.94
1815.39
1316.37
1698.77
1896.62
1425.67
442.787
392.664
1700.15
1280.95
415.837
1846.54
1952.53
1451.82
465.462
600.639
1764.89
1302.56
423.686
2078.25
2036.82
1474.5
462.959
918.671
1867.92
1326.72
426.504
2420.04
2146.71
1519.04
493.986
1315.06
2000.73
1370.76
443.347
2922.44
2299.21
1594.97
552.587
1775.46
2135.75
1414.56
457.219
3294.67
2488.24
1642.11
525.758
1821.57
2306.68
1507.49
477.332
3224.55
2404.1
1606.03
526.575
1844.86
2239.6
1457.87
465.044
3300.64
2549.31
1664.49
497.708
1760.33
2364.72
1539.88
477.022
3290.51
2620.31
1718.29
508.931
1888.71
2437.3
1584.99
487.852
1151.33
777.924
488.04
264.943
83.6092
1159.87
780.11
488.89
265.307
83.7123
1172.66
784.93
491.075
266.242
83.9704
1179.77
788.448
492.796
267.033
84.2007
1183.49
791.843
494.277
267.626
84.3551
1185.03
799.598
498.464
269.599
84.9345
1227.26
815.791
506.69
273.432
86.0489
1248.34
830.502
514.793
277.3
87.1823
1217.99
807.852
501.892
271.062
85.3428
1236.24
810.645
502.415
271.174
85.3605
1190.12
799.423
497.701
269.109
84.7693
1224.33
805.53
499.876
269.989
85.0113
1236.3
817.263
506.883
273.43
86.0387
1251.24
819.621
507.228
273.466
86.0361
1251.69
832.612
515.643
277.647
87.2795
1268.58
834.396
515.726
277.583
87.2532
1139.25
775.335
487.073
264.535
83.494
1142.58
774.235
486.488
264.28
83.4233
1152.52
780.88
489.381
265.489
83.7542
1155.27
779.327
488.536
265.11
83.6483
1170.77
787.869
492.242
266.671
84.0745
1179.97
786.333
491.236
266.202
83.9413
1197.63
795.804
495.483
268.033
84.447
1206.73
793.479
494.207
267.445
84.2746
1212.98
801.148
497.841
269.062
84.7382
10364.3
16176.2
10863.9
16532
11629.8
17037.4
12543.4
18059.9
13469.4
19863.4
12003.9
14787.8
12498.7
16123.2
11845.6
14474.4
11666.3
14374.3
8405.65
1507.53
333.579
75.4598
13.3706
10017.2
2779.38
680.661
155.33
27.2787
8556.18
1484.14
322.407
72.2607
12.7303
10165.6
2780.91
672.24
151.426
26.5007
8813.79
1474.4
312.671
69.2052
12.1157
10441.7
2798.09
664.761
148.073
25.7421
9109.15
1452.92
300.634
65.9417
11.5161
10792.9
2816.38
659.264
145.881
25.299
9296.1