/*--------------------------------*- C++ -*----------------------------------*\
| =========                 |                                                 |
| \\      /  F ield         | OpenFOAM: The Open Source CFD Toolbox           |
|  \\    /   O peration     | Version:  2412                                  |
|   \\  /    A nd           | Website:  www.openfoam.com                      |
|    \\/     M anipulation  |                                                 |
\*---------------------------------------------------------------------------*/
FoamFile
{
    version     2.0;
    format      ascii;
    arch        "LSB;label=32;scalar=64";
    class       volScalarField;
    location    "1.4";
    object      gradTz;
}
// * * * * * * * * * * * * * * * * * * * * * * * * * * * * * * * * * * * * * //

dimensions      [0 -1 0 1 0 0 0];

internalField   nonuniform List<scalar> 
5712
(
7878.36
23894
5991.52
26095.8
3272.93
27555
5538.27
43409.9
9027.47
54453.3
9284.48
38780.5
9931.98
34533.5
9803.15
29728.7
4588.1
2562.65
13878.7
6662.59
4272.1
1991.13
14867.7
6021.79
6065.87
4540.75
17877.3
13234.8
4067.6
3263.45
17973
13776.3
9177.28
3363.06
7071
2635.51
3263.36
8611.39
42683.6
13002.3
12881.1
5871
51528.6
16082.3
11895.9
5483.47
28476.6
9471.7
14553
6589.61
23365.1
7406.68
5973.62
3223.13
9860.41
4034.46
5423.8
3364.38
10329.1
3953.78
7151.55
4526.86
6557.91
2806.28
11351.4
4139.87
4445.17
1656.96
14163.2
10874.8
8455.62
7710.96
15272.4
13464.7
8218.95
8796.24
8033.13
7076.36
10830.7
9454.16
6185.2
5393.85
3495.89
3029.09
6002.84
6005.9
3325.1
3342.36
6038.53
4860.15
3445.19
2481.39
7008.88
3972.04
7183.1
7783.54
9599.13
7273.87
10488.8
13505.2
4997.94
2169.54
4534.77
4611.59
2768.81
985.304
2042.77
1758.04
7183.74
14217.4
5135.98
16016
7779
14326.1
6102.51
16955.9
10041.6
14059.3
8367.02
17090.3
10433.6
11823.7
8639.01
8794.71
10369.4
7811.77
9172.52
12977.2
15391.5
22277
10641.1
9136.1
9067.95
11466.4
17777.9
17749.5
17252.9
20727.3
21026.6
17224.9
17289
20696.1
20738.8
15714.8
16360.1
19694.7
20019.4
9820.46
10476.2
10183.1
10843.4
12508
12779.7
14872.4
14721
18988
19420.8
8907.98
9919.08
10443.3
11523.6
11976.5
13369.5
14046.8
15826.4
18604.7
20668.3
10469.5
7170.09
8423.22
8348.94
11404.3
12702.6
9241.56
11967.7
7937.06
7926.44
10167.2
7349.35
3653.02
5993.67
1439.42
2198.37
5698.95
8807.32
2159.19
3241.05
3196.17
5392.54
1171.73
1949.44
7696.14
6525.66
7971.45
5067.21
10908.7
7866.9
12541
8521.76
3689.38
4142.92
4547.55
2643.69
2729.14
2913.54
3024.3
2286.63
15127.7
10036.9
3325.62
16378.1
10392.3
3609.18
14827.3
9790.12
3378.47
16262.6
10337.8
3531.11
14051.1
9149.74
3082.51
15856.2
10132.1
3500.63
7686.1
4527.92
1253.42
9541.52
6547.13
2144.52
11257.2
7914.61
2682.83
12652.9
8333.72
2759.12
15222.2
9712.65
3438.24
8300.61
4676.51
1573.21
8717.76
5741.09
2038.33
10076.4
6726.51
2349.29
12003.1
7778.88
2694.49
14482.8
8603.68
3014.23
-525.28
978.733
392.934
2638.87
1888.54
1881.13
4844.27
4210.96
606.785
947.948
642.552
993.821
332.673
912.555
612.997
1338.88
1792.86
1103.7
3750.13
2688.08
1682.19
2720.7
2922.05
630.783
6163.46
1813.3
-4517.83
-957.536
476.271
447.709
-244.225
-166.91
10039.2
4168.03
2644.69
1488.28
9874.95
4204.7
2871.57
1747.38
9476.78
4538.35
3774.06
2518.72
2873.1
1751.76
1432.33
1259.58
13325.9
11603.3
5764.67
7382.74
15449.8
14404.8
7478.73
8954.45
5039.64
6092.69
10954.1
8942.83
3587.07
4750.62
1949.31
2662.97
4928.91
5766.72
2730.4
3197.63
2760.14
3957.89
1427.77
2326.22
4339.47
2885.32
4891.59
3043.61
7605.26
4195.18
6621.71
4006.37
2481.09
1928.49
3350.39
2057.92
1275.68
1149.45
2065.11
1242.56
11514.3
7206.53
5319.11
5225.56
11407.3
7210.37
5223.26
5107.83
11516.1
6984.44
5266.8
4739.78
13408.1
13419.3
12094.9
8970.28
4781.13
8138.28
9392.64
9516.34
8554.53
5506.79
11630.9
10017.6
7976.91
6151.49
3677.98
5727.08
5323.54
5490.8
6269.61
5769.55
5239.54
5388.73
6176.63
5625.62
5110.46
5160.56
5973.8
9131.49
8665.06
8088.71
6904.4
5722.35
5609.64
5188.7
5225.98
4522.81
5692.52
6778.83
7682.7
5419.39
6114.14
4534.52
5103.82
4124.97
4810.99
3387.04
5243.58
4850.87
3902.19
3322.89
1899.41
7682.19
5825.33
6184.33
3993.46
2366.11
1406.19
3512.24
3145.64
4183.87
1890.66
1867.11
1033.1
5647.99
3289.87
2235.68
1543.17
3242.06
1395.96
1588.07
788.874
1791.04
2093.09
2042.64
3389.21
2734.97
3250.84
2425.44
4364.39
2217.97
1539.31
1511.2
2456.39
927.943
331.905
215.359
541.05
4107.09
1895.24
549.356
4252.86
1150.7
308.086
4090.25
2024.35
636.031
4264.68
1201.23
338.169
3883.4
1957.33
520.249
4118.01
1141.76
268.771
5950.93
3344.41
920.202
4661.7
2582.64
743.457
4204.19
2189.4
644.915
3805.85
1865.24
461.833
3972.76
1042.1
196.005
6512.64
3503.04
1118.71
5286.53
2915.74
970.232
4452.98
2381
788.293
3942.74
1706.3
485.949
4220.41
1109.4
360.963
1523.76
560.553
276.998
51.194
617.385
237.789
125.123
34.8284
1562.47
593.833
322.691
90.33
734.369
309.844
197.964
89.442
1769.89
699.697
412.923
146.091
1225.06
586.894
306.039
131.623
864.42
496.975
192.77
52.7713
866.664
543.896
269.732
131.994
1432.89
642.99
321.866
55.1106
1345.02
587.595
348.188
15.9333
1826.94
738.264
445.169
124.634
1614.66
644.804
417.412
9.56802
1058.23
537.365
254.395
45.5631
1024.26
498.856
292.506
58.6984
756
443.973
247.766
128.465
691.354
396.27
248.821
127.302
1926.15
685.861
354.402
19.8321
1962.75
665.84
413.06
-64.5055
1910.88
691.516
380.106
37.2893
1882.02
641.405
410.467
-59.2132
1909.98
704.614
435.721
70.8901
1684.78
578.474
403.856
-28.7439
1764.59
670.13
463.38
146.07
1853.33
648.153
508.606
-11.3425
1354.33
515.447
362.943
66.6879
1579.19
485.345
316.069
-71.3524
610.721
171.831
98.0609
-9.94312
1565.88
491.761
320.463
-60.4566
625.794
180.922
105.939
-2.1145
1482.18
478.095
326.257
-39.6791
609.387
182.707
114.613
8.55389
1254.88
408.615
309.76
-15.0604
540.335
161.611
120.908
22.0919
1101.48
378.162
290.766
18.485
493.077
162.275
128.773
39.2453
838.307
346.9
207.608
27.3818
444.28
210.377
118.449
55.5316
904.044
326.652
233.856
22.3843
448.272
176.622
122.232
50.0233
727.477
355.265
200.354
49.7623
433.352
236.51
124.568
68.4945
549.552
325.864
196.795
105.145
386.789
243.773
142.595
94.5066
16.3084
6.74689
3.26834
1.73378
1.12733
7.8581
3.34913
1.64818
0.886779
0.584893
26.3347
12.3919
6.24175
3.34493
2.17403
22.5381
11.442
5.81819
3.11656
2.02349
51.5718
26.7071
13.7624
7.45538
4.87349
91.1128
47.6995
24.7151
13.3752
8.71936
90.9579
49.4956
26.1323
14.2808
9.37068
93.9941
50.7889
26.7646
14.6322
9.62437
64.0012
34.7551
18.3694
10.0492
6.55998
49.611
27.2511
14.4805
7.96361
5.21441
67.5107
35.1989
18.2529
9.94726
6.50651
49.7277
24.6926
12.7051
6.92693
4.51399
68.8857
39.8963
21.4775
11.8378
7.78167
64.2254
36.597
19.6308
10.8191
7.10909
83.9322
46.3306
24.5377
13.438
8.83676
80.1388
44.573
23.6692
12.9714
8.51698
12.7541
5.67689
2.75943
1.46319
0.952215
4.17856
2.2058
1.10073
0.595245
0.396002
18.4414
8.7239
4.38537
2.35757
1.54625
5.19352
2.87147
1.47212
0.801386
0.536857
23.6535
12.5746
6.50838
3.5526
2.35485
12.4514
6.4446
3.22844
1.71512
1.1334
57.3328
29.467
15.0855
8.22839
5.42799
28.8348
14.6837
7.42972
4.02823
2.6637
67.1303
31.7887
15.9594
8.59848
5.60266
3036.43
5279.45
2885.64
5134.86
2721.05
4796.31
2680.6
4629.59
2877.3
5200.41
1726.22
2396.33
2330.75
3578.38
1163.44
1448.09
468.119
585.445
8964.33
2171.03
500.997
111.732
28.2099
2400.98
639.676
172.016
38.7689
8.72373
8855.67
2115.51
484.74
107.349
26.9838
2483.98
724.888
179.061
41.756
10.5372
8469.22
1989.35
451.118
99.1788
24.8002
2411.91
700.097
171.512
39.5775
9.89245
7849.08
1808.07
406.459
89.0631
22.2636
2311.9
655.038
157.247
35.7057
8.80205
6783.04
1539.49
345.873
76.1077
19.1608
2130.47
576.446
135.318
30.3526
7.41727
3726.22
904.037
210.584
47.4684
12.1736
1093.15
279.043
61.296
12.7912
2.95495
5246.26
1236.56
282.734
62.9089
15.9928
1513.34
396.06
91.0873
20.1806
4.90558
2324.15
578.497
136.791
31.1549
8.04019
703.628
184.22
40.0342
8.01879
1.78085
856.21
215.901
51.5238
11.8288
3.07186
339.307
82.3558
17.1597
4.57341
0.720991
-1588.44
481.605
4389.44
-3859.16
1010.42
1078.09
2711.4
3313.24
2256.03
3640.85
3032.92
4582.28
2927.08
3817.98
1395.6
2029.74
1504.55
1752.93
1044.77
1082.69
2888.9
2205.43
-127.932
-647.797
-712.698
-968.159
-410.165
12615
3766.52
4513.12
3684.5
562.38
238.527
3485.85
-663.117
-154.694
-527.189
-153.709
6196.85
3340.96
1731.02
968.621
3381.76
1708.24
376.655
601.549
-798.119
-733.805
1029.15
917
9469.12
4564.43
4675.82
2678
3411.24
3444.55
268.251
-707.101
560.692
1977.96
1691.06
1430.71
1271.28
912.748
1737.78
1378.19
1090.26
782.451
302.244
-117.963
-100.091
-73.4521
-43.14
-13.9831
-576.475
-479.752
-358.167
-220.755
-74.5114
-635.179
-529.162
-394.854
-242.959
-81.9464
-863.145
-719.672
-537.816
-331.501
-111.914
-361.755
-297.078
-217.464
-131.242
-43.7925
9146.27
8063.49
6588.6
5795.94
5023.07
3306.45
2580.27
2197.49
1731.56
743.153
3622.6
2816.12
2252.56
1684.94
734.903
2818.12
2141.55
1688.35
1205.98
443.958
455.55
317.963
281.904
207.551
97.5161
257.813
256.019
224.338
158.328
57.4988
2861.71
2245.19
1695.55
1135.38
419.587
-385.829
-177.252
-71.6365
-23.1044
-6.91967
-113.375
-67.6535
-26.6396
-1.60978
2.98001
-362.571
-217.112
-115.385
-52.52
-15.2242
-149.512
-130.698
-96.2391
-55.7976
-17.5264
4179.68
3942.79
3290.45
3056.16
2853.31
2717.57
2096.15
1674.26
1218.56
460.773
1536.65
1291.41
1008.14
666.734
236.902
838.993
689.225
529.617
346.706
122.307
2811.14
2214.4
1652.38
1071.33
381.338
1507.53
1243.28
945.986
601.969
198.852
323.137
263.829
203.58
134.158
46.8638
532.429
444.67
341.178
218.914
75.2806
-689.802
-554.657
-399.684
-239.164
-79.4477
-645.61
-528.665
-386.091
-232.574
-77.447
898.092
740.332
561.492
359.028
125.014
800.203
659.126
499.473
318.713
110.459
6175.79
4849.61
4119.23
3764.43
2930.1
3529.51
2744.79
2142.26
1533.29
615.673
3644.48
2986.52
2421.85
1901.37
774.119
2118.79
1714.91
1339.57
939.574
402.252
2898.91
2330.29
1751.97
1126.53
391.852
2843.68
2030.29
1593.51
1123.93
232.236
234.853
196.523
156.664
105.971
37.1294
-627.829
-519.353
-382.77
-232.106
-77.5766
498.485
418.472
328.786
217.144
74.244
-31674.1
-49250.9
-24037.9
-41823.7
-25379.9
-58335.1
-33314
-70964.1
-18030.4
-12223.1
-19861.8
-10823.5
-16742.1
-11089.5
-19948
-9620.36
-26278
-18613.6
-36156.1
-26228.4
-20747.3
-15311.1
-31093.9
-23421.7
-15824.9
-16238.3
-11168.6
-10953.3
-13655.9
-14263
-46711.6
-14357.1
-15074.7
-7193.52
-54706.4
-17408.8
-13668.1
-6642.74
-32844.9
-10816.8
-16731.1
-7817.98
-27715.2
-8432.49
-12733.4
-5432.73
-17323.2
-6531.8
-11113.3
-4985.97
-16006.6
-5734.32
-11586.4
-5637.21
-9819.4
-3776.11
-13753.6
-4908.61
-5375.39
-1997.55
-11453
-8417.59
-9329.86
-7057.16
-9865.16
-8490.65
-8253.98
-7254.55
-9363.73
-6971.66
-10905.3
-8718.45
-6979.29
-5193.9
-4125.91
-2971.74
-6303.2
-5318.95
-3632.17
-2938.47
-7047.98
-4933.49
-4188.46
-2605.96
-8380.21
-4449.58
-7261.89
-7735.09
-10953.9
-7702.51
-10346.8
-13204.5
-5929.84
-2503.2
-4669.63
-4638.71
-3419.01
-1227.61
-2189.02
-1805.05
-11271.6
-14426.7
-6487.32
-16404.7
-11191.4
-14071.4
-7105.82
-16970.7
-12398.9
-13581.6
-8852.02
-16614.4
-6987.36
-4370.71
-8975.09
-10431.5
-10696.4
-6255.56
-8782.8
-13164.8
-15187.4
-21554.2
-5753.59
-6648.03
-8102.22
-10955.5
-17174.4
-15276.3
-12558.9
-19094.5
-15847.2
-14815.4
-12861.8
-19106.6
-15967.7
-13540.7
-12003.7
-18051.8
-15851.1
-8979.15
-8379.6
-9197.57
-8309.67
-10608.9
-9501.94
-12304.4
-10950.1
-17281.9
-15884.7
-7359.61
-8044.48
-8381.39
-8304.62
-9740.58
-9627.34
-11919.8
-11962.4
-17117.5
-16937.4
-8755.88
-5967.76
-7361.63
-7385.13
-9004.89
-11048.9
-7637.63
-10517.5
-7305.7
-7259.05
-9062.98
-6404.34
-2978.39
-5300.79
-908.906
-1655.35
-4610.33
-7798.56
-1325.1
-2463.96
-2801.79
-4927.56
-855.689
-1580.6
-7320.47
-6069.51
-7701.49
-4742.08
-10170
-7082.14
-12005.8
-7799.5
-3451.2
-3842.56
-4365.76
-2440.16
-2523.38
-2663.32
-2873.55
-2116.27
-9151.01
-3530.79
-9871.55
-3437.06
-9364.43
-3519.09
-10349.5
-3814.96
-9000.25
-3322.98
-11159.5
-4405.59
-4789.74
-1184.48
-5821.44
-2094.85
-6836.56
-2662.13
-8309.54
-3143.28
-11119.6
-4314.3
-5713.07
-1033.27
-5220.52
-1791.39
-6097.66
-2261.52
-7888.27
-2927.86
-10154.3
-3356.83
-6780.98
-6545.55
-4574.05
-4331.47
-10873.9
-8640.51
-8522.51
-6719.21
-5639.95
-5063.94
-2192.85
-1752.17
-5301.54
-4996.19
-1924.26
-1784.29
-2836.86
-6011.96
-4046.32
-7245.95
-4893.86
-2319.34
-3536.93
-1010.54
-7295.84
-2661.37
3907.93
971.227
-428.592
-261.31
791.998
948.703
-2600.78
-1277.06
-1051.9
-379.559
-2628.83
-1432.78
-1187.44
-393.545
-2904.87
-1715.45
-1417.13
-308.227
-1314.35
119.917
24.8419
742.767
-5433.12
-5316.92
-4073.86
-4554.98
-7982.86
-7692.94
-6532.73
-6499.9
-2696.28
-3320.27
-4220.75
-3978.96
-2825.35
-3127.25
-1428.01
-1459.33
-4674.98
-4521.39
-2643.76
-2361.88
-1471.98
-2153.63
-455.8
-874.117
-1675.25
-894.359
-2494.09
-1296.36
-2679.47
-1740.85
-3013.95
-1915.91
-780.282
-258.233
-1589.56
-550.777
89.7264
394.665
-532.243
165.234
-2812.86
-2675.07
-2150.98
-3272.75
-2916.17
-2851.72
-2266.24
-3359.01
-3471.79
-3004.97
-2572.97
-3304.98
-2485.71
-3066.87
-2893.33
-2628.94
-2119.87
-4809.74
-3749.23
-3295.33
-3763.86
-3609.62
-4966.46
-3678.6
-2957.71
-2543.44
-1701.92
-3459.41
-4287.04
-5588.68
-9622.78
-3342.04
-3651.82
-5231.79
-8916.69
-3447.58
-4098.03
-4803.37
-7948.87
-7975.45
-6858.98
-6187.37
-5355.14
-4109.15
-4440.41
-4014.79
-4754.93
-4119.96
-7097.22
-5404.27
-6205.74
-3800
-4808.46
-2929.19
-4012.45
-2863.68
-4179.58
-2310.25
-5528.44
-2449.66
-2559.13
-1441.44
-527.348
-5049.38
-4388.98
-4279.6
-2580.5
-662.983
-170.124
-1543.21
-2004.58
-2696.56
-808.947
-622.744
-116.52
-4234.92
-2188.37
-1131.49
-639.909
-1824.53
-419.794
-319.054
73.3308
-433.003
-1195.4
-1089.18
-2976.95
-1277.37
-2507.99
-1560.45
-4296.39
-1001.07
-753.456
-468.069
-1892.19
263.466
442.639
838.468
99.4962
-3576.82
-1183.44
-6982.42
-938.625
-3115.44
-1319.12
-6574.25
-928.843
-2850.25
-866.132
-5385.16
-414.859
-3760.93
-860.087
-3111.56
-765.442
-3266.42
-988.939
-2841.18
-480.04
-4839.85
-363.255
-4488.43
-642.682
-3773.92
-598.277
-3528.43
-698.849
-3329.06
-336.484
-4872.21
-480.958
-575.316
-191.164
-111.333
48.1088
-184.615
-56.8822
-42.5776
7.88957
-560.862
-167.319
-116.143
40.5069
-92.5405
0.197203
-35.9846
5.50894
-613.155
-156.351
-117.822
71.5716
94.631
149.31
165.473
209.397
499.407
341.153
347.079
300.033
742.305
490.893
378.355
244.533
-284.532
6.48919
86.4471
231.988
-261.128
43.6788
30.3981
251.279
-692.773
-159.284
-105.026
157.328
-535.2
-69.7187
-99.7006
246.671
97.3431
176.025
198.206
251.948
30.8412
161.989
128.297
230.091
426.711
320.601
255.23
198.582
347.584
279.994
196.962
180.494
-915.595
-302.069
-200.693
97.7466
-1220.23
-357.486
-331.81
187.174
-895.485
-280.926
-208.758
95.0801
-1187.02
-340.802
-327.482
181.968
-896.022
-257.144
-242.881
80.2182
-1077.21
-299.672
-319.225
154.069
-621.994
-124.028
-190.836
98.0196
-1016.73
-245.456
-357.117
194.988
-452.161
-62.3602
-106.43
209.74
-1183.93
-274.571
-271.752
166.676
-515.768
-100.666
-76.9687
40.8858
-1061.33
-238.345
-256.713
160.755
-477.13
-89.8247
-75.601
38.039
-866.316
-172.989
-239.678
140.359
-399.408
-66.0297
-71.0088
35.0834
-682.515
-121.217
-214.707
115.49
-339.186
-51.8922
-72.2077
28.7836
-458.103
-56.8469
-148.102
114.237
-189.343
-9.37229
-48.753
33.6837
-176.127
50.726
38.8695
176.833
105.741
117.453
79.9327
99.0017
-383.677
-41.1947
-70.386
135.543
-24.098
51.773
10.3099
60.7896
71.6087
159.805
122.24
191.555
196.505
176.162
131.345
122.54
308.993
252.647
166.602
156.862
280.587
219.151
145.7
116.518
16.9668
6.76879
3.08745
1.59946
1.03672
7.53254
3.17562
1.47186
0.758479
0.48488
27.6581
12.1388
5.8738
3.12246
2.04926
23.1386
10.8535
5.48786
2.97149
1.96281
56.6958
25.4314
12.5819
6.7193
4.40672
90.6103
45.186
23.1113
12.5136
8.26208
96.1587
48.6085
24.8488
13.4045
8.80685
97.9267
50.6138
26.2655
14.2644
9.37663
75.255
34.9101
17.3438
9.27073
6.11593
62.7071
27.5826
13.5117
7.17
4.71687
72.7
32.6697
16.1974
8.62459
5.66229
48.1868
22.0226
10.959
5.82561
3.84301
87.1549
41.5125
20.7853
11.1172
7.29802
79.7894
37.7176
18.8872
10.106
6.64864
90.887
46.664
24.1408
13.0884
8.59827
87.8684
45.2113
23.3542
12.6488
8.31423
18.2937
5.96432
2.58686
1.32091
0.851577
8.68613
2.29922
0.935627
0.460809
0.287249
22.9091
8.66941
4.00134
2.08596
1.34843
9.94993
2.96679
1.27886
0.646563
0.404314
31.7583
12.1402
5.68784
2.96149
1.89962
15.1565
6.06304
2.97522
1.6024
1.03321
59.1734
25.2913
12.4445
6.56136
4.24852
28.0172
12.1254
6.04923
3.20954
2.06972
54.0774
26.4414
13.4844
7.2458
4.7701
-3222.79
-4911.3
-3087.97
-4816.45
-2868.4
-4500.69
-2736.71
-4309.68
-2752.73
-4689.76
-1596.48
-2218.2
-2200.02
-3294.26
-1026.18
-1310.93
-331.477
-464.324
-9247.97
-2216.57
-507.828
-112.653
-28.3207
-2447.05
-651.712
-174.563
-39.1451
-8.76389
-9065.69
-2148.17
-489.485
-107.947
-27.0409
-2538.99
-739.262
-181.607
-42.1378
-10.5885
-8548.98
-2000.57
-452.449
-99.2542
-24.7704
-2457.24
-710.697
-173.276
-39.8196
-9.91911
-7805.22
-1798.92
-404.516
-88.6297
-22.1486
-2323.69
-658.165
-157.69
-35.7313
-8.79229
-6671.34
-1519.5
-342.133
-75.3858
-18.997
-2098.87
-571.777
-134.474
-30.1752
-7.37382
-3656.35
-888.802
-207.416
-46.8312
-12.0296
-1042.01
-268.541
-59.2615
-12.4027
-2.87153
-5144.21
-1216.26
-278.771
-62.1415
-15.823
-1463.79
-387.517
-89.5572
-19.8931
-4.84389
-2276.94
-567.58
-134.383
-30.6488
-7.92193
-655.008
-172.615
-37.524
-7.50451
-1.66424
-820.765
-207.395
-49.555
-11.3992
-2.96811
-293.127
-70.4352
-14.3858
-3.9744
-0.580346
371.884
-1950.33
-6176.07
1492.36
-7194.07
-3176.12
-7058.74
-3260.27
-12099.1
-6600.06
-14140.7
-7713.5
-94.6327
-345.681
-534.281
-620.056
-541.325
-252.146
-151.681
-539.096
-820.958
-921.989
-760.335
-257.587
-72.8227
-68.91
-245.65
-227.855
-314.379
-303.573
-213.794
-229.345
-124.166
-170.592
-220.682
-185.335
501.594
1654.98
3236.38
2589.02
2340.45
1090.77
680.361
1994.65
3360.76
3751.57
3206.75
1440.97
-85.2267
-71.9204
-54.3989
-33.8464
-11.4828
-311.691
-263.433
-199.585
-124.35
-42.219
-481.631
-406.935
-308.219
-191.998
-65.1835
-558.61
-471.644
-356.985
-222.26
-75.4355
-487.443
-411.294
-311.062
-193.524
-65.6505
-228.159
-193.352
-146.511
-91.0822
-30.8492
-136.495
-115.073
-86.9576
-54.0676
-18.3371
-485.704
-410.116
-310.438
-193.292
-65.605
-739.307
-623.921
-472.069
-293.854
-99.7295
-829.467
-699.251
-528.568
-328.827
-111.57
-683.27
-575.3
-434.417
-270.079
-91.6122
-232.45
-196.489
-148.728
-92.5129
-31.3711
-65.6358
-55.4478
-41.985
-26.144
-8.87285
-62.1521
-52.5464
-39.8207
-24.813
-8.42445
-221.612
-187.431
-142.1
-88.5769
-30.0789
-205.618
-173.957
-131.926
-82.2557
-27.9361
-283.542
-239.741
-181.708
-113.242
-38.4492
-273.803
-231.501
-175.459
-109.348
-37.1281
-192.891
-163.178
-123.723
-77.1136
-26.1787
-206.711
-174.641
-132.258
-82.3699
-27.9558
-112.148
-94.9582
-71.986
-44.8135
-15.1932
-153.432
-129.296
-97.65
-60.6762
-20.565
-198.663
-167.423
-126.221
-78.1843
-26.4286
-166.392
-139.843
-105.258
-65.19
-22.0504
443.267
367.463
275.054
170.904
58.1155
1456.3
1203.16
900.038
560.41
190.968
2811.64
2301.9
1723.65
1084.23
373.049
2233.34
1845.16
1397.72
895.048
321.935
2029.58
1677.19
1269.98
808.996
280.693
974.637
820.49
626.378
396.452
135.051
602.589
500.338
374.496
232.333
78.889
1760.89
1458.54
1091.38
678.286
230.764
2947.66
2430.34
1818.24
1134.74
387.905
3274.34
2695.54
2020.87
1268.53
437.349
2793.29
2297.86
1725.95
1087.2
374.907
1266.55
1051.36
795.793
503.471
173.679
178.019
431.543
624.019
713.691
638.873
367.955
271.11
660.439
942.235
1034.73
852.635
324.052
134.037
117.111
306.185
276.829
369.909
350.233
254.609
262.739
164.383
165.132
334.574
220.031
-363.023
-1459.7
-2888.83
-2139.4
-1802.87
-500.281
-631.132
-1919.89
-3184.02
-3430.79
-2733.23
-867.798
160.833
136.269
103.51
64.6262
21.9669
389.614
329.799
250.272
156.14
53.0548
563.116
476.405
361.336
225.343
76.5524
643.748
544.348
412.673
257.27
87.383
576.291
487.316
369.416
230.278
78.2073
333.681
283.671
215.869
134.789
45.7896
244.83
207.321
157.397
98.2321
33.383
595.867
503.99
382.178
238.308
80.9524
849.494
717.93
544.007
339.044
115.143
932.042
786.921
595.782
371.117
126.008
767.384
647.328
489.751
304.955
103.531
293.008
248.308
188.507
117.571
39.9346
121.129
102.662
78.0051
48.7125
16.5589
105.841
89.7093
68.1665
42.5693
14.4704
276.523
234.179
177.789
110.953
37.703
250.039
211.774
160.795
100.355
34.1031
333.947
282.698
214.541
133.846
45.4726
316.168
267.618
203.072
126.68
43.0374
229.979
194.83
147.952
92.3372
31.3716
237.085
200.593
152.148
94.8798
32.2255
148.855
126.458
96.2399
60.1284
20.4319
148.974
126.012
95.5455
59.559
20.222
302.57
256.536
194.812
121.498
41.2521
198.494
167.841
127.179
79.2225
26.8898
-317.423
-260.071
-192.843
-119.25
-40.5034
-1279.38
-1052.66
-785.285
-488.608
-166.535
-2495.23
-2031.08
-1516
-953.913
-328.613
-1814.02
-1476.97
-1107.31
-707.963
-258.102
-1521.68
-1226.15
-908.871
-571.381
-196.913
-414.027
-319.435
-222.009
-127.785
-39.7523
-558.158
-462.789
-346.065
-214.639
-72.8812
-1693.91
-1402.44
-1049.36
-652.424
-222.045
-2787.54
-2294.23
-1714.62
-1070.07
-365.952
-2979.18
-2440.04
-1822.35
-1142.25
-394.106
-2353.73
-1913.58
-1423.89
-892.579
-307.432
-732.433
-582.11
-424.797
-263.017
-89.9937
-2100.35
-1503.58
496.85
955.14
1021.61
1422.54
887.236
-10504.7
-1877.7
-3293.22
-1440.56
502.276
-4002.83
809.316
2171.25
695.09
-5200.45
-2236.18
-771.226
-432.826
-2988.76
-930.926
29.2341
-35.836
1556.93
1441.73
-569.805
-422.078
-8608.7
-3925.3
-3780.17
-1980.76
-2916.12
-2452.78
386.438
1429.9
92.4481
-1158.55
-926.368
-768.473
-782.974
-712.376
-1054.17
-755.436
-575.461
-429.169
-173.373
455.351
390.356
297.615
185.085
62.636
857.405
721.34
544.698
338.868
114.982
918.372
773.454
584.062
363.098
123.202
1277.49
1074.91
811.344
504.394
171.134
799.535
675.15
510.688
317.697
107.893
-7370.69
-6744.76
-5749.37
-5542.75
-5514.21
-1304.29
-806.691
-788.655
-793.032
-352.811
-2467.05
-1814.6
-1475.56
-1196.01
-570.81
-972.405
-658.661
-589.307
-499.106
-161.351
447.047
370.961
274.984
167.847
57.2321
-3279.2
-2580.29
-1961.03
-1323.73
-490.785
722.318
602.528
449.455
276.156
92.8444
1871.43
1516.79
1127.73
708.484
246.083
625.899
526.558
394.713
242.506
81.213
-3268.78
-3160.44
-2705.51
-2763.91
-2962.71
-1652.88
-1138.33
-907.74
-718.854
-284.727
-619.909
-476.922
-361.876
-247.294
-89.8631
-338.548
-250.734
-186.013
-126.786
-46.3133
-2470.37
-1937.03
-1454.57
-959.242
-347.004
-776.961
-596.871
-432.989
-268.474
-81.2521
51.4547
61.8972
50.5288
28.0169
9.06737
-9.48557
10.313
13.9914
8.11773
3.11291
1384.92
1154.17
865.377
536.795
182.333
1293.25
1086.39
818.091
507.463
172.082
-475.114
-374.457
-277.753
-178.583
-62.9195
-344.445
-264.657
-193.455
-124.288
-43.6368
-5377.59
-4157.79
-3583.04
-3462.06
-2920.64
-2929.41
-2213.05
-1719.54
-1260.43
-522.789
-2766.01
-2216.5
-1796.09
-1492.33
-616.779
-1464.4
-1136.33
-880.716
-644.242
-304.987
-2441.75
-1933.69
-1443.51
-930.419
-323.566
-1917.81
-1192.14
-927.116
-692.329
-63.645
370.04
329.792
254.285
156.689
53.5424
1286.48
1083.99
817.9
507.624
172.1
113.444
121.13
97.7574
58.5134
21.842
-81.8213
-182.447
-238.349
-311.571
-456.73
-633.973
-22413.3
-18504.3
-17241.5
-20621
-15855.2
-12254
-14436.6
-11025
-19976.8
-15973.5
-16870.8
-14402.5
-14554.9
-11194.1
-13772.8
-18962.1
-16646.4
-14680.8
-16662.3
-14137.2
-11011.1
-12469.4
-9385.14
-18496.1
-15659.9
-16692.1
-14664
-14441.7
-12058.7
-14035.4
-14832.7
-13602.9
-11814.2
-12864.5
-11853.9
-9827.77
-10488.3
-8957.46
-15339.3
-14122.1
-14556.9
-13643
-13266.3
-11497.2
-13064.5
-10230.2
-9811.57
-8430.24
-8781.59
-9081.61
-8501.83
-8009.21
-7920.86
-11110.2
-12306.2
-10763.1
-11841.7
-10282.9
-9389.47
-11277.8
-6586.39
-6479.69
-5433.84
-5533.47
-6378.54
-6448.76
-5342.42
-5487.2
-7743.48
-9466.07
-7614.86
-8867.8
-7518.8
-7308.71
-8480.17
-2403.56
-2386.14
-1957.64
-1980.55
-2397.79
-2514.86
-1922.29
-1909.23
-3144.84
-3973.23
-3076.36
-3526.28
-3072.48
-3056.51
-3373.11
-8164.53
-8175.77
-11695.2
-12899.3
-8159.76
-7679.83
-10849.9
-9023.66
-7384.12
-4568.27
-7494.86
-4499.99
-7543.06
-7607.4
-4592.76
-7760.19
-7550.76
-10790.9
-11678.1
-7255.67
-6335.81
-9783.91
-7979.7
-5206.95
-1743.75
-5124.02
-1979.27
-4323.6
-4138.55
-2322.17
-6525.91
-6369.59
-9093.14
-9616.11
-6334.87
-5758.86
-8472.64
-7523.74
-2770.48
-1617.85
-2702.76
-2198.28
-2576.49
-2846.9
-2849.45
-4806.09
-4780.4
-6676.84
-6858.54
-4860.47
-4714.79
-6516.45
-6334.14
-2828.99
-1505.93
-2992.22
-2387.78
-3196.49
-3730.6
-3238.76
-3005.61
-2995.72
-4266.59
-4325.18
-2910.24
-2868.17
-4209.73
-4119.37
-1624.58
-1132.27
-1788.52
-1892.68
-2197.41
-2664.57
-2529.76
-1025.21
-1024.79
-1514.65
-1529.73
-1013.13
-1044.33
-1489.8
-1436.2
-329.631
-483.739
-476.053
-866.071
-762.206
-977.772
-1066.8
7786.35
23404.6
5980.72
26108.6
3268.28
27560.1
5535.97
43408.4
9023.65
54448.7
9276.06
38777.5
9917.35
34528.9
9673.89
29039.6
4586.03
2562.24
13880.1
6662.91
4270.72
1990.7
14866.8
6021.45
5991.99
4485.17
17545.1
12990.3
4058.12
3259.38
17988.7
13795.1
9182.98
3361.32
7072.34
2635.32
3263.32
8619.58
42686.9
13002.6
12881.8
5870.92
51528.3
16081.8
11895.8
5483.16
28484.1
9473.13
14554.8
6590.02
23375.8
7408.51
5927.75
3183.3
9666.41
3948.73
5428.14
3364.51
10346.5
3957.85
7154.26
4527.37
6563.55
2808.05
11357.8
4141.98
4446.74
1657.54
14163.1
10874.9
8455.76
7711.04
15272.6
13464.9
8218.87
8796.25
8033.73
7076.57
10830.8
9454.31
6185.45
5393.93
3495.75
3029.02
6002.79
6005.9
3324.94
3342.3
6039.23
4860.35
3445.25
2481.37
7010.16
3972.58
7183.41
7783.7
9599.97
7274.14
10489.1
13505.3
4999.11
2170.02
4535.03
4611.74
2769.1
985.446
2042.8
1758.08
7190.69
14253.1
5115.91
16050
7785.3
14316.9
6105.13
16946.6
10042.5
14055.8
8366.79
17086.9
10433.7
11824
8639.17
8795.72
10369.3
7811.84
9172.42
12976.7
15390.5
22275.4
10641.3
9136.16
9068
11466.5
17777.7
17782.3
17269.4
20767.4
21007.3
17217.3
17286
20688.6
20742.7
15711.7
16358.4
19692.2
20020.1
9820.43
10476.1
10182.9
10843.1
12507.2
12779.2
14870.6
14720.1
18987
19420.8
8907.93
9918.98
10443
11523.4
11976.1
13369.2
14046.3
15826.1
18604.6
20668.3
10469.4
7170.05
8423.2
8348.92
11404.2
12702.5
9241.55
11967.7
7937.08
7926.48
10167.1
7349.35
3653.05
5993.67
1439.41
2198.37
5698.96
8807.29
2159.2
3241.05
3196.22
5392.57
1171.72
1949.45
7696.21
6525.72
7971.52
5067.23
10908.7
7866.95
12541.1
8521.8
3689.45
4142.96
4547.61
2643.7
2729.17
2913.55
3024.33
2286.64
15127.3
10028.9
3329.02
16364.8
10378.1
3602.98
14823.6
9787.86
3377.11
16263.7
10337.3
3530.48
14049.8
9148.83
3082.1
15856.8
10131.9
3500.41
7685.97
4527.82
1253.39
9541.28
6546.95
2144.45
11256.8
7914.31
2682.72
12652.3
8333.34
2758.97
15222.4
9712.54
3438.13
8300.5
4676.43
1573.18
8717.58
5740.95
2038.28
10076.2
6726.34
2349.22
12002.9
7778.73
2694.42
14482.7
8603.55
3014.14
-527.226
978.079
388.147
2637.97
1887.1
1880.52
4841.4
4210.16
596.649
944.797
630.501
986.724
335.209
914.497
615.794
1340.62
1796.02
1105.31
3750.58
2688.34
1684
2723.97
2921.66
631.076
6163.09
1813.18
-4516.45
-956.105
476.637
448.538
-241.938
-165.166
10024.9
4165.85
2640.01
1484.37
9873.21
4205.97
2871.13
1749.09
9475.86
4538.59
3774.71
2520.02
2874.34
1752.94
1433.78
1260.53
13326.1
11603.4
5764.53
7382.76
15450.1
14405
7478.54
8954.44
5039.75
6092.73
10953.9
8942.69
3587.07
4750.7
1949.6
2663.17
4928.78
5766.73
2730.42
3197.69
2760.47
3958.05
1428.31
2326.52
4339.65
2885.66
4891.61
3043.66
7604.79
4194.97
6621.43
4006.1
2481.6
1929
3350.59
2058.12
1276.37
1149.95
2065.44
1242.83
11513.9
7217.24
5324.46
5233.19
11404.9
7207.16
5221.67
5101.86
11514.1
6982.56
5265.47
4737.16
13408.4
13419.8
12094.5
8969.25
4780.39
8138.43
9392.67
9515.79
8553.23
5505.28
11631.1
10017.7
7976.68
6151.04
3677.52
5732.88
5322.5
5494.15
6263.83
5767.14
5237.57
5382.81
6174.07
5624.19
5109.61
5158.08
5972.66
9131.55
8665.01
8088.66
6904.29
5722.04
5609.39
5188.03
5225.51
4521.62
5691.92
6778.87
7682.66
5419.4
6114.08
4534.38
5103.69
4124.66
4810.77
3386.49
5243.25
4850.94
3902.19
3322.93
1899.43
7682.29
5825.33
6184.37
3993.46
2366.1
1406.18
3512.17
3145.59
4183.92
1890.69
1867.21
1033.16
5648.01
3289.89
2235.73
1543.2
3242.12
1396
1588.2
788.936
1791
2093.06
2042.59
3389.16
2734.8
3250.74
2425.21
4364.25
2218.03
1539.34
1511.27
2456.42
928.076
331.971
215.495
541.123
4102.57
1892.03
549.558
4251.16
1152.24
308.297
4088.95
2025.69
636.645
4263.91
1202.46
338.773
3883.02
1957.71
520.466
4117.64
1141.99
268.928
5950.85
3344.35
920.181
4661.62
2582.61
743.446
4204.07
2189.42
644.932
3805.59
1865.27
461.838
3972.56
1042.16
196.04
6512.57
3502.99
1118.69
5286.47
2915.69
970.212
4452.89
2380.95
788.276
3942.6
1706.23
485.911
4220.28
1109.4
360.979
1519.33
557.739
274.183
49.3282
612.2
235.042
122.999
33.6428
1563.15
594.09
322.896
90.4431
735.071
310.11
198.182
89.5627
1770.01
699.747
412.988
146.14
1225.39
587.013
306.154
131.662
864.745
497.1
192.866
52.8082
867.052
544.072
269.827
132.03
1433.03
643.053
321.917
55.1405
1345.06
587.63
348.222
15.9664
1826.86
738.247
445.194
124.675
1614.54
644.775
417.424
9.60498
1058.44
537.465
254.456
45.5938
1024.39
498.931
292.556
58.7321
756.253
444.1
247.837
128.499
691.527
396.371
248.882
127.338
1928.18
686.035
353.337
18.5404
1966.97
667.041
413.114
-65.2666
1910.28
691.305
380.042
37.2795
1879.49
640.564
410.053
-59.156
1909.44
704.435
435.677
70.9364
1683.64
578.086
403.709
-28.6881
1764.26
670.018
463.375
146.124
1852.69
647.932
508.548
-11.2882
1354.13
515.385
362.949
66.7351
1585.49
487.563
317.274
-71.8566
614.58
173.113
98.6511
-10.0531
1563.07
490.857
320.054
-60.364
625.503
180.881
105.973
-2.06708
1480.93
477.696
326.143
-39.6007
608.993
182.6
114.606
8.60422
1254.32
408.428
309.715
-15.0209
540.097
161.536
120.896
22.1197
1101.23
378.077
290.753
18.5148
492.954
162.235
128.768
39.2648
838.3
346.912
207.628
27.4093
444.274
210.386
118.465
55.5526
903.945
326.624
233.857
22.4097
448.213
176.606
122.236
50.0422
727.542
355.314
200.39
49.7931
433.397
236.548
124.596
68.5192
549.671
325.945
196.844
105.178
386.875
243.836
142.634
94.5343
15.8138
6.483
3.11728
1.64185
1.06023
7.54685
3.1766
1.54472
0.820227
0.534084