/*--------------------------------*- C++ -*----------------------------------*\
| =========                 |                                                 |
| \\      /  F ield         | OpenFOAM: The Open Source CFD Toolbox           |
|  \\    /   O peration     | Version:  2412                                  |
|   \\  /    A nd           | Website:  www.openfoam.com                      |
|    \\/     M anipulation  |                                                 |
\*---------------------------------------------------------------------------*/
FoamFile
{
    version     2.0;
    format      ascii;
    arch        "LSB;label=32;scalar=64";
    class       volScalarField;
    location    "1.4";
    object      gradTx;
}
// * * * * * * * * * * * * * * * * * * * * * * * * * * * * * * * * * * * * * //

dimensions      [0 -1 0 1 0 0 0];

internalField   nonuniform List<scalar> 
5712
(
-8479.86
-10378.8
-19317.7
-30268.2
-29275.7
-57103.3
-20161.9
-60649.3
-20759.6
-48587.2
-25540.7
-42069.2
-19507.1
-25886.2
-10501.9
-10690.3
-14047.4
-16057.2
-19075.5
-17366.4
-13193.3
-19860.4
-19604
-19620.2
-5622.28
-4141.07
-7611.16
-5500.81
-12805.8
-8474.83
-23563.3
-16585.3
-19593.3
-19987.3
-20099.7
-20654.2
-4825.94
-4185.45
-45291.9
-55987.3
-24189.1
-32215.4
-58056.3
-71481.4
-26922
-33127.1
-34099.8
-44550.4
-27290.8
-37691.7
-15770.3
-19889
-3296.49
-1052.51
-4255.81
-1484.72
-7394.05
-3053.82
-12665.5
-4673.88
-8472.91
-2813.43
-8379.71
-2384.11
-16364.9
-4786.78
-21402.9
-6740.73
-27251
-15697.1
-22963.7
-15874.8
-27605.7
-17821.9
-21862.3
-17583.7
-18024.4
-13033
-19901.7
-12682.1
-22280.6
-16355.6
-23028.4
-16747.1
-21414
-17881.8
-22255.3
-18207
-18534.1
-13710.7
-19952.2
-14185.8
-19919.9
-8268.17
-11502.2
-13239.2
-21511.3
-9608.33
-11530.3
-14005
-19921.6
-7670.14
-11963.8
-12957.5
-20581.9
-7702.6
-12536.6
-13026.5
-3194.58
-3619.33
-1132.39
-2310.37
-9192.17
-10839
-3844.94
-7468.86
-14965.1
-17789.4
-6958.08
-12593.9
-18142
-9453.45
-18925.8
-23242.8
-11960.8
-6743.93
-10828.5
-13159.7
-23629.6
-15735.2
-10803.9
-14363.2
-16187
-15990.2
-20162.1
-3495.73
-3558.22
-2200.62
-2336.13
-10348.7
-9705.77
-6839.66
-6887.97
-15485.9
-13896.2
-10159.7
-10105.8
-9863.52
-10962.9
-15557.1
-16521.1
-18035.9
-16922.9
-21797.4
-19835
-15626.7
-15525.5
-13517.3
-14324.7
-17500.2
-15519.5
-16715.9
-13547.7
-15232.3
-11796.5
-17401.4
-13593.4
-14559.4
-7295.57
-11505.3
-10907.7
-16019.6
-18250.7
-16373.1
-21040
-9782.4
-9371.45
-13287.1
-5414.54
-11208.7
-17373
-11663.2
-18668.1
-16661.6
-25907.8
-17283.4
-26651
-9610.63
-15438.8
-10025.4
-16851.6
-11907
-8571.1
-15544.2
-6729.53
-12767.2
-4115.33
-14668.7
-2891.32
-12473.2
-12558.9
-16336.8
-8267.12
-11327.7
-14586.8
-15063.2
-10594.2
-3271.02
-2990.6
-2490.8
-2124.83
-2048.38
-1748.81
-8738.68
-7313.49
-6180.21
-5826.61
-4721.1
-3858.6
-11289.1
-9227.49
-8208.4
-8419.48
-6510.34
-5697.36
-9618.2
-7414.23
-6823.73
-15208.3
-10753
-8408.18
-14090.7
-9824.87
-7287.05
-15895.6
-11917.8
-9659.5
-12907
-8421.32
-5988.19
-17997.6
-14024.2
-12015.8
-13493.3
-10189.1
-8060.59
-12245.1
-8749.58
-6526.3
-11258.7
-7994.83
-5992.56
-12653.9
-7272.81
-4249.28
-11879.1
-19246.1
-10158.1
-14432.5
-9844.24
-20118.4
-8304.7
-16545.6
-149.127
-1708.26
277.231
-1022.63
-3567.17
-6718.24
-2275.25
-4136.41
-1930.3
-3974.81
-11226
-16591.9
-8770.75
-6684.56
-12128
-10620.9
-16491.9
-17684.8
548.555
5709.48
-8607.69
-6007.89
-6754.63
-3874.5
-1573.12
-1003.13
-1299.87
-811.847
-3885.9
-1211.08
-1997.46
-292.288
-10010
-2905.24
-7658.5
-2364.85
-8711.79
-2616.54
-9841.39
-3202.08
-12694.7
-12371.7
-9852.54
-12205.4
-19558.2
-17448.5
-15964
-16518.3
-7143.53
-9159.06
-8346.6
-8489.68
-9211.49
-12083.4
-9673.94
-12171.3
-15226.8
-16139.1
-15776.8
-16231.5
-6303.88
-9252.03
-6086.18
-9342.31
-613.076
-1187.84
-7093.35
-3639.64
-603.897
-951.328
-6217.68
-3059.21
-615.423
-1067.24
-7468.97
-4012.04
-907.394
-1175.46
-7523.61
-4226.98
201.097
353.03
-454.506
-275.89
912.399
1439.74
-697.469
-379.752
-1010.66
46.1189
-2311.88
-1905.52
7470.07
3779.17
4422.26
3057.04
160.513
7044.2
10180.5
4782.51
4919.55
198.21
-9761.5
-6986.64
-5491.19
-5412.6
-2881.32
530.758
431.422
-136.489
-196.567
1502.54
1584.09
-357.99
-463.149
1338.62
1803.15
-1130.45
-1264.12
2889.07
1254.1
7714.2
5191.76
4099.43
2788
3813.35
3052.28
-2.39948
-569.205
-5223
-3679.86
285.446
1848.42
643.853
1741.72
-193.356
776.461
-430.635
-674.893
-4118.24
-4467.34
-9576.39
-6043.17
-8821.97
-8394.37
-13110.1
-10113.6
-7055.49
-4257.81
-2372.87
-3011.31
-11303.3
-4812.94
-12124.4
-4476.44
-15035.8
-9794.08
-16032.3
-9483.3
-8500.02
-3092.26
-9230
-2677.29
-4956.15
-3857.07
-3341.05
-5943.25
-2322.07
-3080.46
-2072.13
-4935.02
-5467.71
-3536.66
-4113.39
-6837.65
-6683.05
-3286.4
-4988.65
-6700.37
496.465
587.377
663.414
-124.522
114.546
149.168
1749.36
1951.59
2040.31
-152.636
467.354
546.397
2139.51
2798.66
3059.52
-649.982
817.014
1101.6
473.623
1044.69
923.602
3657.22
3851.95
3518.4
2833.21
3210.02
3062.71
3081.73
3634.12
3674.24
-298.64
1180.08
1092.79
-4318.16
-2208.67
-1312.16
781.297
1834.93
2181.37
1124.82
2162.85
2422
725.457
1922.83
2162.72
-1322.45
776.109
904.844
-73.3209
-1.46697
19.9714
40.4025
77.3565
73.3479
86.2809
74.2682
-193.451
-11.5813
57.8931
109.187
175.831
167.282
182.943
163.493
-363.079
-64.2594
49.5297
170.138
-4.29527
123.667
134.254
170.662
14.9211
80.2684
39.4603
47.0215
-149.378
-22.3678
19.4644
57.7258
-889.941
-277.125
-149.473
65.081
-1280.62
-414.689
-309.345
90.6908
-730.971
-211.668
-89.4034
154.737
-1039.56
-332.58
-271.119
96.6661
-820.403
-264.899
-136.055
52.3213
-1412
-458.527
-329.81
118.831
-865.284
-301.83
-126.368
85.2793
-1482.78
-484.6
-344.039
131.552
-66.1195
-8.12403
1.79779
33.0352
-51.5975
-4.19089
-10.2191
35.9452
-176.575
-25.4196
8.21971
90.6921
-84.1222
8.25513
-14.5904
99.1424
-601.119
-166.446
-76.2485
129.607
-450.014
-105.784
-78.0371
159.425
-266.336
-39.5151
-8.06851
172.561
-174.998
-12.573
-38.5842
162.076
-867.775
-260.362
-218.726
168.046
31.8795
23.1143
10.8063
32.4796
107.526
45.7705
23.359
21.8621
26.7025
43.7029
12.1923
82.6276
266.225
118.513
55.3228
56.4351
-54.0546
29.5722
2.17482
128.642
372.486
171.668
82.2268
85.1618
-57.1515
40.7202
2.35168
169.067
411.404
203.144
89.3839
97.0419
-224.541
4.3499
-68.9726
149.745
259.449
180.88
55.3002
83.7562
-858.992
-125.815
-184.932
119.33
-237.926
47.1074
-13.4559
48.4547
-534.529
-41.2201
-140.777
128.79
-35.6547
115.709
16.4861
65.5358
-1133.9
-233.824
-232.237
125.645
-369.632
-20.3147
-39.7047
39.1139
-1324.58
-342.193
-279.818
119.333
-483.334
-97.1553
-69.1452
29.1579
15.1372
6.90761
3.29626
1.6816
1.06462
22.1691
10.7328
5.28077
2.74983
1.75635
31.6887
14.6702
6.99157
3.57917
2.2895
58.1087
29.2865
14.6391
7.72333
4.97685
46.3118
21.4862
10.3267
5.34129
3.44336
84.5998
41.9465
21.1002
11.2304
7.28154
27.9302
13.624
6.90579
3.7051
2.41238
14.2046
7.11653
3.60997
1.93961
1.26051
41.5162
17.9966
8.68949
4.5456
2.92118
7.89803
2.46464
0.995456
0.466388
0.282846
65.3559
30.3559
14.9625
7.90925
5.1187
16.7401
6.60738
3.06529
1.56596
0.987836
11.4291
3.42762
1.33245
0.618053
0.376143
7.97851
2.75046
1.19468
0.596061
0.376031
9.53942
2.85454
1.11254
0.521179
0.308153
4.27689
0.653238
0.102552
0.00436877
-0.0176679
11.9999
5.17212
2.36441
1.16648
0.724618
12.1253
5.03487
2.26467
1.10902
0.68675
28.0486
11.8383
5.39552
2.66748
1.66827
28.3924
11.4626
5.15449
2.53042
1.56911
36.4122
14.492
6.53628
3.21422
2.00953
35.1611
14.2246
6.48543
3.20519
2.01223
48.49
21.682
10.5012
5.47856
3.53871
24.7217
10.592
4.96441
2.49749
1.59854
28.4241
13.1736
6.50339
3.44983
2.23715
-503.574
-633.036
-1395.35
-1812.29
-2144.57
-2919.22
-2579.77
-3861.17
-2479.99
-3723.94
-2267.93
-3135.26
-1972.59
-2454.26
-2755.97
-3818.08
-2950.19
-4055.19
-593.163
-131.223
-28.7928
-6.15729
-1.50843
-226.409
-86.7617
-8.88108
-2.66709
-1.12636
-1917.13
-427.059
-94.2549
-20.315
-5.01402
-581.262
-123.734
-25.1023
-4.89452
-1.04076
-3360.65
-752.943
-167.192
-36.3754
-9.06053
-1032.84
-248.447
-55.4694
-12.2531
-2.99836
-4774.02
-1075.82
-241.334
-53.1363
-13.4076
-1457.24
-385.829
-92.5951
-21.5634
-5.54909
-6576.05
-1525.33
-349.733
-78.4693
-20.158
-1957.03
-590.298
-150.403
-36.1486
-9.54806
-8661.6
-2196.69
-532.621
-124.603
-33.0664
-2304.39
-731.094
-191.88
-46.8875
-12.5882
-7976.89
-1959.82
-463.366
-106.203
-27.7219
-2209.2
-713.329
-187.346
-45.7126
-12.169
-8968.88
-2304.8
-565.989
-133.945
-35.8796
-2380.08
-729.347
-188.016
-45.3708
-12.1381
-9209.32
-2358.83
-581.802
-138.481
-37.2973
-2397.57
-734.506
-188.905
-42.3279
-11.9886
-283.014
-6992.94
-6855.36
-3826.39
3864.5
5312.8
10667.9
14055.7
6041.34
12241.8
2191.55
7254.85
5919.9
9922.47
10980.5
15196.7
13208.2
15067.5
7538.38
8546.73
-19054.7
-14072.1
-3796.48
-2803.53
-2148.9
-3420.37
-2480.01
-12200.6
-11531.4
-9994.01
-10235.1
-8161.15
-5620
-7985.06
-4677.49
-3562.39
-4351.43
-2771.1
-20238.1
-9745.07
-2698.46
-4611.75
-7266.21
-4817.04
-5481.74
-4073.78
-1904.48
-3197.85
-2924.4
-3429.8
-19051.5
-11644.2
-11621.9
-7247.46
-7567.43
-7734.04
-3534.27
-4407.77
-4823.42
-12582.7
-11626.9
-9546.69
-8936.91
-7632.82
-9900.91
-7206.74
-5760.18
-4560.47
-1978.7
-3338.49
-2749.54
-2045.73
-1265.47
-428.622
-2494.9
-2078.9
-1556.87
-963.553
-326.233
-1899.71
-1570.71
-1167.14
-717.97
-242.366
-3047.2
-2540.87
-1901.96
-1175.51
-397.612
-2192.1
-1813.19
-1349.34
-831.865
-281.216
-7949.04
-6582.77
-5065.66
-4457.69
-4523.16
-6233.57
-4807.5
-3291.21
-2547.9
-2023.98
-6893.46
-4661.98
-3426.35
-2461.73
-1043.46
-5512.93
-4036.45
-2719.33
-2025.37
-1343.38
-4127.44
-2828.2
-1833.35
-1423.95
-809.287
-4452.23
-3324.16
-2335.24
-1432.86
-501.154
-5717.86
-3949.51
-2760.29
-1774.32
-688.56
-3274.87
-2160.6
-1446.46
-894.853
-332.623
-2928.98
-2255.12
-1599.11
-969.707
-330.203
-3492.53
-2621.64
-1825.67
-1096.6
-373.096
-2305.07
-1791.94
-1274.13
-769.014
-259.668
-13504.3
-10867.4
-8686.63
-7635.19
-6680.9
-7418.51
-5455.87
-4061.52
-2818.45
-1149.81
-2232.34
-1732.63
-1241.71
-761.914
-261.491
-3880.62
-3068.03
-2237.71
-1392.51
-480.71
-5944.9
-4600.52
-3374.51
-2166.08
-774.165
-4083.47
-3251.51
-2390.09
-1495.12
-513.534
-4732.16
-3826.61
-2826.31
-1754.92
-594.617
-3528.73
-2862.56
-2107.38
-1299.09
-440.836
-1634.34
-1310.07
-950.41
-577.526
-194.435
-2798.31
-2289.98
-1689.42
-1036.53
-349.946
-2473.66
-1957.8
-1413.46
-862.296
-292.412
-2949.56
-2375.36
-1739.01
-1069.34
-363.21
-12521.5
-10870.9
-8933.49
-8144.94
-6752.67
-8513.93
-6245.73
-4889.87
-3694.17
-1587.64
-9163.44
-7254.76
-5581.18
-4196.92
-1792.8
-5862.93
-4367.08
-3264.75
-2184.78
-692.49
-6318.83
-4935.49
-3644.92
-2324.75
-780.111
-6233.5
-4616.85
-3437.29
-2293.66
-707.943
-3026.26
-2428.23
-1781.32
-1102.7
-375.514
-3858.61
-3161.64
-2339.83
-1441.58
-487.835
-4126.8
-3311.35
-2433.05
-1510.06
-515.301
-6808.03
-15001.6
-11897.8
-38996.4
-11144.3
-50598.9
-7523.43
-19945.5
-9718.42
-8221.19
-19249.1
-15027
-9794.59
-11748
-20920.6
-17273.6
-4294.94
-2938.24
-9938.47
-7016.18
-7496.73
-3923.37
-27335.7
-19361.8
-16355.7
-11305.1
-17076
-11123.1
1945.87
-1604.71
-46570.2
-56487.8
-23452.9
-32113.3
-59053.1
-71894
-26037.3
-32918.3
-34947.8
-45034
-26585.3
-37686.6
-16978.4
-20381.2
-2331.58
-447.655
-5110.68
-1650
-4407.07
-2098.35
-14283.5
-5115.36
-2204.22
-1066.76
-6210.31
-1728.8
-16419.9
-4742.98
-21603.1
-6785.99
-19716.5
-12196.7
-20426.3
-14133.7
-18922.6
-13550.6
-18962.4
-15547
-16277.5
-11705.2
-14926.5
-10139.1
-21269.9
-15557.3
-22782.2
-16521.6
-20221.2
-16977
-21927.7
-17949.3
-17902.6
-13088.5
-19813.2
-14007.8
-18938.1
-8010.27
-10537.3
-12799.5
-18485.4
-8785.83
-9614.43
-13160.5
-19646.1
-7591.63
-11514.6
-12743
-20550.6
-7693.19
-12406.1
-12965.8
-706.87
-541.322
117.21
-787.063
-2665.65
-3345.7
-1926.58
-5066.91
-4053.97
-5481.69
-4280.92
-9320.21
-17686.7
-16715.2
-14421.5
-17138.8
-10504.8
-11033.8
-8859.84
-8015.11
-16972.8
-14265.8
-13333.4
-12920.7
-12498.3
-11954.6
-18291.6
-790.771
-1002.49
-535.049
-781.034
-3363.17
-3011.4
-3855.65
-3802.33
-3340.63
-1834.73
-6393.79
-6056.36
-11985.5
-12765.9
-11322.7
-11271.1
-10640.7
-8863.59
-14529.7
-12462.1
-13220.9
-12458.7
-15616.3
-15830.6
-14923.1
-13120.1
-12455.3
-10044.8
-11394.1
-8751.08
-15557.5
-11405.3
-13552.4
-7774.61
-11102.4
-11051.7
-16473.6
-19255.8
-16410.7
-21396
-9197.28
-9361.29
-11780.9
-5589.53
-11035
-17365.9
-11602.8
-18650.8
-16681.5
-26173
-17263.8
-26670.2
-9360.19
-15353.6
-9948.45
-16820.3
-11415.4
-8565.47
-15309.9
-6809.26
-11522.4
-4378.44
-14155
-3386.29
-12264.6
-12494.9
-16224.8
-8271.22
-11263.6
-14560.3
-15032.5
-10582
-1206.33
-932.337
-709.843
-873.103
-2339.72
-1201.92
-3166.87
-3161.48
-683.106
-501.634
-5560.74
-5367.82
-13674.5
-11622.3
-11057.7
-8390.67
-7428.25
-4971.14
-9961.53
-7495.6
-10776.2
-7193.58
-19945.7
-16726
-10647.3
-8418.33
-8464.19
-6060.8
-7525.64
-5060.41
-8637.56
-4269
-5887.57
-11298.5
-5393.88
-11127.7
-7579.6
-12348
-8986.99
-13982.9
-1637.74
-1530.07
-1434
-1433.54
-4594.52
-4788.04
-4249.25
-4380.52
-1697.08
-2099.59
-9074.23
-9894.95
-5487.74
-6175.56
-10824.7
-10298.2
-15278.1
-17331.3
750.245
5633.12
-7785.85
-5836.23
-6391.93
-3843.47
-1336.87
-1254.27
-1450.23
-1225.96
-2990.71
-1917.59
-2309.1
-1344.14
-8093.13
-3815.95
-7605.84
-3496.12
-8602.18
-3244.4
-9820.25
-3452.77
-6734.39
-9733.89
-7663.24
-10753.7
-11808.3
-13365.8
-13208
-14514.5
-5891.8
-8448.96
-5052
-7503.34
-8269.82
-11445.5
-9393.96
-11988.6
-14030.5
-15264.7
-15423
-15981.6
-5770.29
-8934.38
-5925.35
-9251.19
-604.213
-1537.48
-7019.43
-3831.81
-732.765
-1607.37
-6318.42
-3370.03
-689.312
-1353.49
-7436.2
-4152.47
-942.858
-1294.73
-7501.2
-4291.99
-1217.46
-1366.51
-1258.34
-1396.84
-2958.26
-3249.94
-2141.23
-2409.59
-7270.61
-7769.58
-3957.44
-4262.2
-4135.81
-9672.23
-2636.14
-193.065
-1178
-4132.6
-1088.39
-1881.13
1940.65
-695.636
-14182.7
-10107.9
-7513.99
-7057.27
-3609.49
-1628.37
-1734.44
-1615.29
-1904.3
-3816.13
-4022.99
-2823.06
-3427.24
-8167.26
-9009.8
-4264.67
-5236.88
-6161.56
-7454.44
-2057.93
-4078.5
-3273.5
-4516
-719.84
-1573.72
-1520.37
-2415.04
-11425.2
-8827.21
-6098.74
-4198.6
-4354.58
-2986.84
-3962.16
-2627.02
-1986.47
-2446.6
-7258.47
-7709.2
-10953.2
-7430.41
-11239.7
-11077.8
-13961
-11269.8
-8707.14
-5657.58
-5401.1
-6057.5
-11936.1
-5586.74
-12285.7
-4650.38
-15386.3
-10458
-16100.2
-9612.86
-9314.96
-3873.37
-9456.18
-2872.38
-6556.07
-5151.25
-4735.38
-7426
-4926.41
-5704.65
-3893.41
-7352.51
-6304.66
-4296.49
-4939.5
-7711.69
-6935.81
-3511.69
-5250.16
-6925.18
-1422.41
-1497.67
-1334.9
-1092.57
-4327.74
-4882.03
-2099.28
-1251.04
-9543.83
-7923.25
-3049.32
-382.968
-9258.86
-7931.26
-5884.69
-4868.55
-4823.21
-3861.44
-1729.32
-911.228
-1709.89
561.469
-8449.46
-6911.23
-4201.01
-3005.18
-2787.24
-1553.83
-2082.05
-796.852
-3126.04
328.614
-258.392
-101.406
-32.6287
14.3623
-266.902
-121.74
-21.2172
15.2515
-661.852
-264.576
-69.1463
54.4831
-606.9
-283.434
-78.2833
1.82999
-982.671
-403.526
-138.445
76.7713
-945.218
-436.576
-229.653
-82.3117
-555.233
-271.358
-174.639
-64.1071
-393.726
-178.209
-75.9517
5.74782
-1217.11
-477.339
-293.65
-34.0766
-1386.29
-462.665
-358.851
86.3571
-1217.75
-475.278
-277.981
2.14439
-1178.75
-395.143
-334.142
91.0965
-1071.1
-421.88
-229.047
19.7774
-1494.1
-497.085
-372.667
98.9452
-972.759
-370.645
-168.54
66.2283
-1519.11
-502.694
-360.565
126.029
-245.499
-88.1225
-36.6863
20.0106
-245.631
-77.8391
-49.7899
24.0127
-630.825
-231.653
-92.331
57.0538
-620.325
-203.914
-124.245
69.4195
-1094.89
-404.342
-208.084
95.1317
-1057.76
-362.852
-227.635
121.058
-1059.69
-421.298
-231.357
46.1554
-786.543
-284.745
-181.334
131.684
-1187.69
-407.73
-340.263
133.436
-183.921
-56.6286
-24.6476
17.8638
-112.87
-39.5109
-11.9294
2.24641
-499.655
-157.019
-83.6251
42.9085
-306.635
-111.067
-44.2832
1.53679
-680.864
-227.412
-131.347
68.9469
-410.938
-169.016
-69.3536
1.69292
-778.43
-282.666
-171.334
86.5566
-501.87
-222.889
-100.418
-4.43685
-915.83
-314.956
-252.98
54.7506
-670.881
-257.509
-149.75
-29.1048
-1591.37
-512.547
-405.8
7.13487
-843.089
-282.296
-181.452
-43.6231
-1364.64
-442.193
-370.794
11.5798
-869.611
-291.736
-184.358
-46.3805
-1600.47
-497.947
-383.772
50.3747
-728.862
-234.429
-150.815
-19.0545
-1478.66
-433.319
-332.253
93.7443
-596.62
-168.776
-106.745
9.72162
-4.51119
-4.78679
-2.99772
-1.76816
-1.20468
-13.0648
-8.60485
-4.90937
-2.80288
-1.89123
-10.7483
-10.1386
-6.27774
-3.67692
-2.47946
-41.8752
-24.587
-13.5596
-7.61088
-5.09128
-22.0846
-16.019
-9.35207
-5.35795
-3.57779
-63.5569
-35.8388
-19.2849
-10.6788
-7.09553
-21.8119
-11.964
-6.35386
-3.49188
-2.31338
-11.526
-6.23668
-3.34929
-1.85243
-1.23877
-20.1735
-13.7397
-7.6974
-4.32867
-2.89932
1.09845
-1.10203
-0.855928
-0.536444
-0.374648
-43.4482
-24.9335
-13.4198
-7.42939
-4.93391
-5.08908
-4.69443
-2.74238
-1.57068
-1.06691
1.26274
-1.16517
-0.996284
-0.641083
-0.451731
-1.05288
-1.55968
-1.00193
-0.591756
-0.404574
1.47362
-1.02411
-0.894484
-0.583307
-0.435668
3.3558
0.36342
-0.0379038
-0.0786495
-0.082967
-1.356
-3.22766
-2.20907
-1.34692
-0.929431
-1.76107
-3.14029
-2.11098
-1.28304
-0.884831
-4.63014
-7.79931
-5.13646
-3.091
-2.11517
-5.07059
-7.6584
-4.96652
-2.98116
-2.04785
-5.70157
-10.1086
-6.47854
-3.86939
-2.63842
-11.8858
-11.0675
-6.63119
-3.89469
-2.63938
-30.306
-17.9399
-9.71089
-5.41823
-3.59558
-14.3892
-9.22275
-5.1339
-2.9423
-1.96084
-21.6264
-11.0958
-5.78087
-3.16106
-2.08993
-185.161
-327.12
-633.4
-1054.45
-1254.64
-1984.55
-1848.32
-3013.2
-2062.54
-3237.49
-2333.59
-3208.36
-1940.35
-2527.38
-2805.41
-3851.11
-2966.7
-4064.88
-568.516
-128.118
-28.3085
-6.07305
-1.49089
-165.513
-78.6211
-7.39449
-2.44986
-1.09638
-1856.5
-419.232
-93.0063
-20.0928
-4.96635
-431.648
-99.9159
-21.3641
-4.31876
-0.942672
-3266.48
-739.624
-164.978
-35.9766
-8.97458
-852.973
-219.085
-50.7341
-11.4997
-2.86455
-4646.49
-1055.7
-237.807
-52.4878
-13.2675
-1305.61
-359.605
-88.0871
-20.7949
-5.40323
-6426.47
-1498.56
-344.677
-77.5009
-19.9447
-1875.88
-572.122
-146.735
-35.4449
-9.40134
-8573.89
-2174.63
-527.625
-123.544
-32.8191
-2309.4
-728.91
-190.997
-46.6548
-12.5287
-7847.46
-1931.42
-457.455
-105.014
-27.4538
-2192.82
-704.483
-185.029
-45.201
-12.0529
-8918.31
-2291.3
-562.774
-133.241
-35.7108
-2384.5
-729.163
-187.804
-45.306
-12.1202
-9192.92
-2354.38
-580.715
-138.24
-37.2388
-2398.92
-734.579
-188.885
-42.3279
-11.987
-127.372
-6823.73
-6273.83
-2933.31
-1513.5
-837.173
-3193.41
-2402.19
-5716.15
-6218.09
-3304.91
-3096.48
-273.494
-427.541
-739.959
-1179.56
-1720.68
-2297.41
-192.243
-412.176
-855.624
-1489.57
-2260.92
-3092.94
-210.52
-91.3066
-380.475
-233.734
-723.003
-532.154
-1191.96
-1015.34
-1690.88
-1654.57
-2163.37
-2328.59
-2935.52
-3650.92
-4566.09
-6684.08
-7241.44
-8905.31
-3896.58
-4518.46
-4769.15
-4697.71
-3983.37
-3648.76
-246.826
-208.823
-158.377
-98.7582
-33.5461
-385.517
-325.834
-246.873
-153.823
-52.2288
-666.544
-562.681
-425.84
-265.116
-89.9801
-1061.01
-894.251
-675.795
-420.313
-142.585
-1544.54
-1298.87
-979.698
-608.608
-206.356
-2055.49
-1722.69
-1295.96
-803.995
-272.483
-173.373
-146.59
-111.11
-69.2484
-23.5124
-371.403
-313.674
-237.494
-147.9
-50.2013
-770.239
-649.784
-491.47
-305.852
-103.783
-1338.99
-1127.8
-851.851
-529.666
-179.663
-2028.01
-1704.27
-1284.91
-798.117
-270.622
-2765.52
-2316.58
-1742.48
-1081.25
-366.556
-190.107
-160.904
-122.081
-76.1536
-25.8782
-82.4623
-69.8039
-52.9678
-33.0434
-11.2294
-343.28
-290.296
-220.063
-137.176
-46.5919
-210.934
-178.432
-135.303
-84.3583
-28.655
-651.684
-550.5
-416.871
-259.644
-88.1466
-479.81
-405.469
-307.155
-191.356
-64.9699
-1072.8
-904.737
-684.055
-425.574
-144.39
-914.024
-771.01
-583.044
-362.757
-123.078
-1518.47
-1277.48
-963.794
-598.741
-202.997
-1485.89
-1249.99
-942.86
-585.569
-198.489
-1935.39
-1621.58
-1219.36
-756.094
-256.16
-2082.86
-1744.4
-1310.66
-811.929
-274.907
-2612.54
-2178.1
-1632.91
-1011.95
-342.974
-3219.74
-2661.71
-1987.06
-1232.18
-418.304
-3961.19
-3228.17
-2399.93
-1497.36
-511.353
-5638.85
-4490.62
-3339.93
-2129.53
-738.041
-5792.19
-4481.05
-3383.83
-2288.19
-859.02
-6834.08
-5183.87
-3981.7
-2829.76
-1107.45
-3468.14
-2892.41
-2169.74
-1345.63
-456.357
-3995.26
-3312.47
-2477.96
-1537.91
-522.44
-4175.74
-3433.94
-2562.62
-1596.09
-544.527
-4045.4
-3283.93
-2447.93
-1540.55
-530.968
-3326.59
-2648.48
-1983.15
-1283.55
-457.637
-2941.04
-2292.08
-1730.8
-1161.56
-428.991
-287.631
-472.125
-820.758
-1301.9
-1888.75
-2502.67
-209.935
-468.264
-956.692
-1640.18
-2455.99
-3310.09
-224.55
-101.451
-425.724
-267.669
-808.935
-600.725
-1330.05
-1138.92
-1893.41
-1892.05
-2418.34
-2767.12
-3170.91
-3910.28
-4840.69
-6891.56
-7377.7
-8955.76
-4099.34
-4666.24
-4836.98
-4683.7
-3937.75
-3626.31
-259.661
-219.764
-166.739
-104.006
-35.3348
-426.023
-360.38
-273.297
-170.416
-57.8876
-740.006
-625.409
-473.882
-295.316
-100.285
-1172.42
-989.566
-748.948
-466.381
-158.321
-1697.95
-1430.5
-1081.03
-672.591
-228.245
-2243.64
-1884.96
-1421.58
-883.682
-299.818
-189.448
-160.292
-121.582
-75.821
-25.7539
-422.35
-357.12
-270.721
-168.762
-57.3153
-862.129
-728.253
-551.573
-343.636
-116.676
-1476.16
-1245.19
-941.973
-586.433
-199.055
-2206.13
-1857.2
-1402.74
-872.559
-296.095
-2964.7
-2488.54
-1875.76
-1165.87
-395.596
-202.828
-171.739
-130.357
-81.3442
-27.6468
-91.6622
-77.6363
-58.9474
-36.7929
-12.5076
-384.368
-325.318
-246.833
-153.978
-52.321
-241.732
-204.668
-155.345
-96.9311
-32.9407
-729.787
-617.16
-467.899
-291.708
-99.0858
-542.116
-458.631
-347.838
-216.913
-73.6875
-1198.52
-1012.27
-766.559
-477.518
-162.131
-1026.59
-867.353
-657.014
-409.354
-138.997
-1703.24
-1435.9
-1085.67
-675.646
-229.3
-1702.56
-1435.81
-1085.86
-675.845
-229.375
-2168.86
-1822.76
-1374.95
-854.722
-289.966
-2483.38
-2088.45
-1575.97
-979.738
-332.373
-2829.93
-2367.26
-1780.72
-1106.48
-375.549
-3462.37
-2875.93
-2157.04
-1342.34
-456.543
-4224.09
-3465.83
-2593.21
-1625.49
-556.343
-5852.37
-4695.89
-3517.73
-2254.8
-782.992
-5943.55
-4632.56
-3522.02
-2393.29
-900.596
-6894.49
-5246.9
-4042.27
-2879.29
-1127.42
-3655.7
-3055.97
-2297.84
-1427.71
-484.674
-4134.55
-3436.53
-2577.28
-1602.77
-545.055
-4243.94
-3498.76
-2617.9
-1634.15
-558.186
-4040.66
-3287.55
-2457.49
-1550.89
-535.37
-3292.21
-2625.35
-1971.4
-1280.7
-457.946
-2923.92
-2280.26
-1724.6
-1160.11
-429.155
-18998.3
-14133.5
-4180.82
-3172.12
-2702.59
-4064.94
-2967.73
-13075.4
-13998
-11569
-13305
-6839
-10978.8
-4916.06
-5196.26
-3603.18
-21077.7
-10703.4
-3290.9
-5282.39
-7935.04
-5226.94
-6135.79
-4650.76
-2258.07
-3934.61
-3626.73
-3984.1
-18990.2
-11874.8
-12187.8
-7643.57
-7966.26
-8221.44
-4201.24
-5098.7
-5301.77
-12575
-11670.2
-9631.48
-9080.2
-7773.48
-9990.24
-7303.55
-5860.2
-4653.95
-2018.77
-3699.68
-3069.9
-2301.06
-1431.54
-486.382
-2834.35
-2373.37
-1786.28
-1109.88
-376.573
-2410.87
-2015.47
-1515.01
-940.876
-319.344
-3639.75
-3053.85
-2300.79
-1429.52
-484.959
-2643.82
-2207.55
-1658.61
-1030.34
-349.797
-9453.58
-8324.25
-6831.91
-6077.3
-5844.98
-9674.81
-8682.74
-6975.96
-5692.13
-4158.39
-8838.01
-6577.98
-5156.41
-3802.62
-1619.16
-9556.04
-8077.74
-6311.42
-4991.87
-3021.56
-5766.6
-4589.78
-3420.65
-2194.69
-787.492
-8813.51
-6702.13
-5050.27
-3415.45
-1353.68
-4236.4
-3434.17
-2556.23
-1608.76
-559.231
-4460.41
-3603.54
-2680.8
-1691.14
-590.097
-3127.4
-2550.64
-1899.49
-1189.34
-410.155
-14832.2
-12377.4
-10219.9
-9042.88
-7755.9
-8504.84
-6539.3
-5037.33
-3552.97
-1450.32
-2829.58
-2291
-1708.3
-1079.75
-376.679
-4549.8
-3693.62
-2762
-1750.18
-609.942
-6653.51
-5292.05
-3980.69
-2600.59
-938.227
-4497.28
-3642.99
-2722.48
-1724.44
-596.593
-5357.25
-4389.91
-3282.81
-2056.56
-700.324
-4084.73
-3368.04
-2519.57
-1572.43
-537.225
-1986.4
-1639.42
-1224.94
-762.382
-260.226
-3488.59
-2900.17
-2174.16
-1351.22
-459.512
-3159.85
-2586.69
-1929.77
-1207.62
-415.372
-3489.57
-2870.83
-2146.24
-1341.3
-459.668
-12627.8
-11111.4
-9266.06
-8570.34
-7199.68
-8804.89
-6543.05
-5174.74
-3932.88
-1693.82
-9905.47
-8042.27
-6346.42
-4833.01
-2083.28
-6288.52
-4781.39
-3631.09
-2451.52
-780.361
-6742.78
-5347.96
-4007.69
-2584.09
-873.293
-6772.74
-5139.92
-3905.13
-2637.39
-827.373
-3663.53
-3002.31
-2246.02
-1409.6
-483.522
-4509.08
-3739.63
-2801.15
-1742.05
-592.571
-4601.09
-3753.79
-2803.15
-1761.39
-605.284
-408.679
-1133.11
-1758.81
-2359.29
-2975.59
-3545.09
-2527.85
-6492.35
-6040.43
-2513.32
-7403.31
-6775.56
-7829.69
-10527.9
-1435.4
-159.912
-2705.28
1434.88
-10571.3
-8956.52
2199.51
-1829.53
-5097.12
-4843.1
-1915.8
-5593.57
-3170.96
-6176.29
-6338.08
-624.76
1036.72
-1138.16
3803.86
-7327.75
-4837.94
4234.21
-1106.31
-3402.77
-3468.71
-1289.83
-3396.68
-431.986
-4499.04
-4448.66
-150.423
1227.56
175.513
3942.77
-4348.78
-373.875
4776.86
-716.082
-2367.65
-2725.28
-962.804
-1725.78
1009.88
-3698.27
-4089.59
70.4057
873.489
545.63
3253.24
-3188.5
1762.68
4506.42
-604.903
-2192.79
-2565.2
-866.631
-1568.5
706.456
-3892.29
-5311.85
150.661
641.56
646.263
2747.2
-3058.53
1705.67
3038.68
-578.093
-2146.72
-2479.84
-831.991
-1992
-151.135
-3796.32
-5224.59
194.209
990.109
518.018
2794.83
-3666.72
637.597
2170.22
-1319.37
-3118.95
-4304.33
-1762.75
-6443.01
-11590.5
-7144.09
-12664.8
-1591.46
-1400.04
-5140.53
-4282.84
-2176.65
-9282.13
-4602.47
-1281.4
-3015.49
-3808.7
-1511.4
-6052.09
-9814.45
-6359.89
-9148.16
-1644.62
-1282.8
-4963.73
-4054.27
-1533.94
-8511.46
-4450.17
-1166.28
-2766.67
-3114.32
-1198.7
-5390.82
-8401.02
-5258.39
-7936.5
-1387.2
-1626.01
-4290.86
-4752.07
-1828.36
-7455.76
-4946.03
-1144.79
-2957.61
-2805.7
-1032.71
-5595.38
-8045.13
-5076.91
-7636.72
-1416.36
-1956.65
-4326.49
-5682.02
-2328.26
-8025.47
-5834.73
-1133.27
-2890.11
-2714.56
-977.809
-5413.08
-8511.76
-5022.55
-8321.77
-1505.47
-2450.87
-4559.83
-7062.48
-3315.74
-9327.58
-7374.94
-1133.62
-2857.1
-2656.12
-955.118
-5459.13
-8677.08
-4869
-8176.63
-1675.67
-3024.46
-4982.83
-7985.44
-4435.54
-10227.7
-8171.98
7777.06
9434.11
19314.5
30217.6
29279.6
57086.6
20165.2
60644.7
20763.8
48582.2
25554.9
42064.3
19541.8
25873.8
9051.66
9189.82
14049.8
16057.6
19070.7
17364.9
13196
19861.9
19604.1
19620.7
5181.67
3833.46
6979.46
5048.93
12812.8
8470.75
23526.4
16555
19578.2
19985.5
20093.6
20651
4821.81
4169.32
45293
55988.4
24188.9
32215.8
58056.4
71481.6
26922.4
33127.4
34100.8
44552
27289.7
37692.4
15773.2
19890.9
3090.81
995.827
3927.27
1377.79
7377.45
3055.32
12639.1
4668.2
8464.33
2810.87
8367.92
2380.51
16365.2
4786.69
21404.3
6741.17
27250.1
15696.7
22962.7
15874.4
27606.2
17822.2
21862.4
17583.8
18022.6
13032.2
19899.9
12681.1
22280.2
16355.3
23028.3
16746.9
21414.1
17881.8
22255.3
18206.9
18533.6
13710.3
19952.1
14185.5
19916.8
8267.35
11501.1
13238.9
21507.1
9607.29
11528.7
14004.5
19920.9
7670
11963.3
12957.4
20582.1
7702.72
12536.3
13026.5
2994.41
3378.59
1069.33
2156.52
9161.46
10789.9
3844
7446.88
14951.7
17772.4
6954.11
12586.8
18141
9453.11
18923.9
23236.9
11959.5
6743.58
10827.8
13158.4
23622.8
15733.5
10803.9
14362.7
16185.6
15987.3
20160.9
3224.16
3281.75
2004.32
2162.16
10338.7
9678.75
6862.43
6892.82
15478.6
13887.7
10163
10107.8
9863.22
10962.7
15556.4
16520.5
18034.4
16921.9
21793.6
19832
15628
15527.2
13517.1
14324.4
17499.5
15519
16714.7
13547
15230.6
11795.7
17401.8
13594.1
14558.9
7295.34
11505
10907.5
16019.5
18250.5
16373
21039.8
9781.91
9371.26
13286.3
5414.25
11208.4
17372.9
11663
18668
16661.5
25907.6
17283.3
26650.8
9610.34
15438.7
10025.2
16851.5
11906.6
8571.01
15544.2
6729.62
12766.4
4115.13
14668.7
2891.51
12473
12558.9
16336.9
8267.18
11327.6
14586.8
15063.3
10594.3
2981.15
2722.83
2278.16
1972.03
1902.91
1628.97
8728.54
7304.05
6176.46
5831.07
4724.67
3864.23
11284.8
9224.63
8207.35
8420.98
6511.62
5699.44
9618.02
7414.13
6823.67
15207.9
10752.8
8408.07
14090.1
9824.57
7286.95
15893.9
11916.8
9659.19
12908.1
8422.04
5989.08
17997.3
14024
12015.7
13493.1
10188.9
8060.5
12244.8
8749.43
6526.25
11258.3
7994.65
5992.53
12654.4
7273.08
4249.59
11888.4
19249.8
10170.4
14435.8
9849.21
20121.2
8310.05
16547.7
169.709
1582.46
-225.335
941.614
3527.87
6702.84
2233.28
4125.62
1921.87
3967.27
11224.1
16589.2
8763.61
6677.94
12129.1
10621.4
16492.9
17685.3
-549.352
-5709.64
8607.25
6008.07
6754.07
3874.46
1431.46
929.574
1177.32
743.924
3891.36
1204.35
2000.5
289.94
10008.6
2902.27
7657.17
2362.88
8711.25
2615.96
9841.46
3201.94
12696
12372.2
9853.4
12205.8
19559.7
17449.1
15964.9
16518.7
7143.28
9159.08
8346.14
8489.64
9211.99
12083.7
9674.36
12171.6
15227.3
16139.3
15777.1
16231.7
6303.89
9252.14
6086.39
9342.53
612.152
1186.95
7093.16
3639.29
602.754
949.871
6217.39
3058.65
614.954
1066.79
7468.93
4011.87
907.342
1175.28
7523.74
4226.94
-190.525
-327.682
427.032
259.956
-908.401
-1436.48
690.577
371.837
1010.88
-45.4652
2308.39
1902.6
-7469.9
-3779.04
-4422.25
-3057.2
-161.937
-7044.14
-10180.3
-4782.39
-4919.17
-199.39
9761.69
6986.84
5491.11
5412.35
2880.44
-501.877
-402.058
113.832
169.016
-1494.54
-1580.95
361.863
466.401
-1336.03
-1800.42
1131.19
1266.11
-2888.93
-1253.96
-7713.88
-5191.37
-4099.05
-2787.45
-3812.12
-3050.6
2.393
570.064
5223.13
3679.96
-285.176
-1848.1
-643.571
-1741.28
193.746
-775.826
430.561
675.337
4118.52
4467.53
9576.58
6043.27
8822.17
8394.43
13110.3
10113.6
7055.59
4257.9
2373.05
3011.54
11303.5
4813.03
12124.6
4476.56
15035.9
9794.1
16032.4
9483.32
8500.1
3092.34
9230.14
2677.4
4956.14
3857.13
3340.92
5943.25
2322.17
3080.7
2072.02
4935.2
5467.71
3536.7
4113.3
6837.64
6683.13
3286.48
4988.66
6700.42
-472.129
-550.013
-620.026
95.8913
-119.733
-149.154
-1738.17
-1943.05
-2034.45
162.862
-461.165
-542.512
-2134.94
-2794.94
-3056.89
653.353
-814.432
-1099.8
-473.486
-1044.54
-923.461
-3656.78
-3851.54
-3518.06
-2832.46
-3209.34
-3062.18
-3079.48
-3632.11
-3672.68
299.94
-1178.87
-1091.83
4318.25
2208.78
1312.29
-780.958
-1834.59
-2181.05
-1124.29
-2162.33
-2421.54
-724.652
-1922.01
-2161.99
1323.12
-775.469
-904.339
69.885
2.12422
-17.6711
-36.901
-72.1982
-68.2256
-79.8636
-68.4636
192.374
11.3506
-58.2568
-109.361
-174.568
-166.73
-182.673
-163.241
362.203
63.9356
-49.8365
-170.283
4.15172
-123.716
-134.368
-170.697