/*--------------------------------*- C++ -*----------------------------------*\
| =========                 |                                                 |
| \\      /  F ield         | OpenFOAM: The Open Source CFD Toolbox           |
|  \\    /   O peration     | Version:  2412                                  |
|   \\  /    A nd           | Website:  www.openfoam.com                      |
|    \\/     M anipulation  |                                                 |
\*---------------------------------------------------------------------------*/
FoamFile
{
    version     2.0;
    format      ascii;
    arch        "LSB;label=32;scalar=64";
    class       volScalarField;
    location    "1.4";
    object      T;
}
// * * * * * * * * * * * * * * * * * * * * * * * * * * * * * * * * * * * * * //

dimensions      [0 0 0 1 0 0 0];

internalField   nonuniform List<scalar> 
5712
(
538.114
555.734
524.529
545.613
506.477
530.741
478.768
505.018
482.54
509.03
508.255
534.432
520.115
544.074
531.284
552.023
496.935
479.587
515.304
488.7
469.844
451.292
486.961
459.013
546.176
553.02
560.098
563.537
535.743
544.718
552.2
557.561
534.584
520.812
507.532
499.688
535.352
546.846
536.393
542.29
497.259
504.763
511.708
517.772
467.427
473.862
548.357
553.654
517.489
527.499
559.281
565.352
557.788
566.582
566.206
570.339
550.217
563.716
560.907
568.388
539.896
558.825
550
564.09
557.124
566.589
561.396
568.133
464.752
449.226
472.941
453.027
430.548
416.852
438.842
421.183
501.256
481.992
493.92
477.98
478.492
455.553
481.655
456.845
444.602
424.019
447.81
425.465
506.622
484.648
509.646
485.949
528.103
556.901
511.282
545.265
521.358
552.463
506.497
541.224
532.702
559.082
514.084
547.565
535.114
559.987
515.322
548.942
552.351
540.486
563.038
554.219
543.868
531.96
559.433
549.527
531.595
519.169
553.167
541.958
448.117
408.974
483.559
511.945
544.12
407.529
445.745
478.485
505.071
534.133
406.835
442.716
472.97
499.924
533.151
516.978
495.163
521.236
500.386
511.479
489.757
519.225
497.996
502.465
481.515
515.625
494.344
400.052
386.009
437.631
423.032
467.858
450.202
491.086
471.47
512.249
491.013
398.881
383.542
433.345
418.13
462.053
445.159
486.949
467.879
510.166
488.403
432.961
421.357
432.659
421.373
398.404
377.485
397.679
374.919
463.039
454.061
462.692
452.461
432.539
420.877
433.372
421.882
397.998
374.106
399.209
375.785
462.975
453.84
463.88
454.873
491.049
482.376
515.375
507.372
489.689
479.435
513.73
503.144
491.078
482.303
515.905
508.508
491.518
482.894
516.048
508.212
469.788
448.552
436.858
473.018
450.898
439.016
465.237
443.668
431.983
470.475
447.567
435.335
456.379
434.356
422.374
466.335
442.19
429.406
367.796
354.192
347.139
403.116
384.645
374.645
428.486
407.158
395.24
446.889
424.531
412.432
461.523
436.002
422.375
364.226
350.112
342.404
399.662
382.529
373.365
424.073
404.002
393.126
442.428
419.207
406.658
456.034
430.326
416.846
406.271
392.536
410.243
396.889
436.407
419.632
445.287
426.122
377.331
356.749
378.574
358.676
378.274
357.291
380.036
359.77
378.084
374.932
377.526
371.101
356.302
360.356
399.644
402.463
430.637
434.567
379.552
381.759
379.969
381.544
362.589
363.978
334.99
315.847
340.372
318.916
336.545
315.607
341.815
319.07
337.667
315.164
344.127
319.672
347.011
321.645
348.877
323.175
370.634
358.684
377.903
363.648
397.652
384.05
406.114
389.292
356.837
343.552
349.594
339.049
381.943
366.574
384.285
368.101
411.108
392.408
413.92
393.927
360.445
346.239
362.366
347.708
339.159
317.138
327.903
312.08
332.921
313.427
324.316
309.644
342.663
319.615
330.204
313.713
344.619
321.297
331.609
314.747
317.946
307.735
309.596
303.203
319.155
309.369
309.381
303.394
320.704
312.838
309.04
304.232
350.417
374.08
333.658
322.578
308.364
372.047
346.96
327.895
316.425
304.713
372.307
348.855
331.702
319.379
306.779
299.999
293.114
296.916
290.462
302.299
295.252
297.834
291.51
306.295
299.46
299.402
293.298
365.004
352.091
340.123
329.165
322.927
315.008
311.673
304.654
301.416
295.626
364.765
351.447
342.373
331.524
326.116
317.448
314.283
306.607
303.906
298.063
345.486
332.148
346.713
331.765
366.363
349.533
367.547
347.74
330.382
318.996
329.133
318.721
347.768
331.537
349.14
332.934
369.059
346.399
370.597
347.916
331.338
319.293
332.478
320.397
316.789
308.133
306.253
298.781
316.413
307.422
305.556
298.534
317.076
308.862
306.644
298.891
318.478
309.563
307.239
299.925
285.037
280.583
278.828
279.825
276.812
275.794
287.524
282.692
280.656
280.836
277.658
276.482
291.566
286.271
284.104
282.43
278.905
277.624
337.813
327.64
322.692
318.614
311.078
307.652
305.93
299.735
297.158
295.999
290.313
287.922
284.005
280.294
278.787
336.27
325.457
320.126
319.634
310.9
306.585
307.315
300.165
296.785
296.627
291.077
288.804
285.072
281.373
279.515
300.444
290.973
285.374
281.422
301.727
291.462
285.61
281.476
300.33
290.984
285.441
281.513
301.905
291.61
285.781
281.618
300.076
290.966
285.551
281.661
302.127
291.816
286.004
281.795
303.102
292.353
286.196
281.858
304.036
292.923
286.41
281.932
301.237
291.587
285.933
281.885
299.401
290.967
285.546
281.92
299.565
290.86
285.585
281.818
298.284
290.446
285.294
281.884
302.474
292.196
286.163
281.924
300.313
291.443
285.753
281.984
303.417
292.723
286.406
282.036
301.054
291.876
285.992
282.128
298.32
290.209
285.039
281.39
295.87
289.345
284.607
281.388
298.181
290.192
285.066
281.459
295.899
289.38
284.631
281.447
297.951
290.156
285.105
281.577
296.154
289.517
284.715
281.555
297.593
290.087
285.113
281.726
296.307
289.616
284.802
281.7
297.173
289.987
285.042
281.844
293.695
288.638
284.091
281.551
292.482
288.3
283.858
281.59
294.034
288.772
284.17
281.607
292.869
288.448
283.935
281.641
294.601
289.005
284.297
281.699
293.528
288.708
284.061
281.729
295.309
289.293
284.493
281.838
294.372
289.044
284.246
281.849
296.235
289.672
284.727
281.982
295.234
289.404
284.434
281.971
297.534
290.387
285.022
282.18
296.442
290.122
284.791
282.215
296.944
290.023
284.875
282.086
295.939
289.777
284.617
282.096
298.047
290.749
285.157
282.261
296.912
290.476
284.945
282.325
298.624
291.139
285.362
282.394
297.488
290.86
285.148
282.466
278.306
276.42
275.192
274.467
274.132
278.317
276.425
275.195
274.468
274.133
278.34
276.435
275.2
274.471
274.135
278.359
276.445
275.205
274.473
274.137
278.376
276.452
275.208
274.475
274.138
278.419
276.476
275.22
274.482
274.142
278.507
276.521
275.244
274.495
274.15
278.59
276.567
275.268
274.508
274.159
278.461
276.494
275.229
274.486
274.145
278.472
276.496
275.23
274.486
274.145
278.415
276.471
275.217
274.48
274.141
278.444
276.482
275.222
274.482
274.142
278.513
276.522
275.244
274.494
274.15
278.522
276.523
275.244
274.494
274.15
278.601
276.571
275.27
274.509
274.16
278.607
276.571
275.27
274.508
274.159
278.292
276.414
275.19
274.466
274.132
278.286
276.411
275.188
274.465
274.131
278.319
276.426
275.195
274.468
274.133
278.31
276.421
275.193
274.467
274.132
278.354
276.441
275.202
274.472
274.135
278.345
276.435
275.199
274.47
274.134
278.393
276.458
275.21
274.476
274.138
278.38
276.451
275.206
274.474
274.137
278.421
276.471
275.216
274.479
274.14
531.138
525.558
530.548
524.965
529.424
523.892
528.134
522.445
527.31
521.311
529.387
526.122
528.309
524.113
530.002
526.958
530.483
527.429
564.117
571.032
572.552
572.9
572.974
556.736
569.038
572.097
572.802
572.951
564.293
571.105
572.572
572.905
572.976
556.769
569.099
572.118
572.808
572.953
564.375
571.166
572.591
572.91
572.977
556.707
569.15
572.139
572.814
572.955
564.517
571.239
572.611
572.914
572.978
556.613
569.183
572.152
572.817
572.955
564.679
571.281
572.618
572.915
572.978
556.586
569.177
572.145
572.814
572.954
563.592
570.846
572.49
572.881
572.968
556.389
568.821
572.011
572.775
572.942
564
571.036
572.55
572.898
572.973
556.4
568.982
572.078
572.795
572.948
563.334
570.723
572.45
572.87
572.965
556.408
568.737
571.971
572.761
572.937
563.515
570.756
572.453
572.869
572.964
556.59
568.762
571.967
572.758
572.936
413.584
453.679
450.669
411.334
392.359
394.261
399.793
403.072
413.139
416.531
440.577
448.057
445.206
452.37
421.92
424.631
412.361
414.907
403.491
405.559
351.888
334.167
292.029
287.431
290.469
287.747
291.467
349.99
342.857
326.127
331.311
325.128
306.902
315.994
310.751
302.079
304.691
300.626
345.156
319.762
304.812
302.978
308.955
305.348
298.771
298.531
296.309
294.088
299.87
298.628
346.069
325.475
331.567
315.387
309.279
320.349
299.384
293.736
301.927
336.766
323.106
311.5
299.437
283.425
324.548
314.598
304.439
293.44
280.314
290.049
287.312
283.784
279.698
275.271
285.971
283.924
281.252
278.132
274.741
288.678
286.182
282.939
279.172
275.092
286.255
284.162
281.429
278.24
274.777
289.558
286.908
283.481
279.508
275.206
335.326
320.812
308.79
296.851
282.484
328.418
315.002
303.749
292.667
280.05
317.807
308.71
299.313
289.502
278.749
319.526
308.206
298.404
288.804
278.65
314.957
304.683
295.726
286.981
277.863
302.657
297.317
291.014
284.101
276.763
309.76
302.559
294.69
286.372
277.567
305.539
299.3
292.286
284.818
277
298.694
294.257
288.825
282.758
276.3
300.799
295.836
289.914
283.402
276.517
297.474
293.295
288.128
282.328
276.153
332.317
319.077
307.794
296.241
282.129
313.279
305.652
297.26
288.201
278.245
301.042
296.161
290.251
283.664
276.616
299.531
295
289.437
283.178
276.452
304.529
298.938
292.325
284.999
277.088
301.587
296.677
290.699
283.979
276.726
295.949
292.149
287.375
281.921
276.025
295.74
291.973
287.23
281.819
275.989
293.804
290.385
286.039
281.069
275.731
291.867
288.808
284.884
280.367
275.495
296.863
292.844
287.834
282.168
276.103
295.815
292.022
287.252
281.823
275.988
332.732
319.814
308.756
297.22
282.482
317.9
309.472
300.425
290.536
279.174
323.143
312.638
302.671
291.972
279.229
310.025
303.371
295.72
287.225
277.844
304.937
299.357
292.7
285.252
277.156
313.965
306.2
297.725
288.501
278.223
296.48
292.576
287.683
282.105
276.086
291.552
288.548
284.696
280.255
275.459
298.655
294.318
288.951
282.883
276.351
497.604
541.252
489.21
530.546
464.149
509.424
471.855
521.293
479.438
467.819
509.269
483.576
453.983
441.073
481.928
454.712
516.292
531.792
550.171
556.486
509.947
525.602
543.195
550.996
527.73
503.427
502.382
488.217
520.55
540.981
534.356
541.843
494.967
504.182
509.769
517.264
465.463
473.315
546.274
553.243
515.339
526.981
557.71
565.107
545.69
562.494
562.013
568.933
538.696
559.999
556.702
567.019
530.69
555.935
545.832
562.724
555.595
566.04
561.089
568.013
461.078
449.595
470.591
453.097
429.322
419.578
437.737
422.458
498.444
481.45
489.19
477.086
477.339
455.589
481.341
456.866
444.01
424.639
447.645
425.669
505.281
484.386
509.279
485.875
525.597
556.013
510.681
545.078
516.877
550.897
505.408
540.922
531.539
558.656
513.798
547.472
534.801
559.867
515.24
548.915
532.997
518.781
556.694
546.96
525.826
512.244
553.964
543.453
517.443
504.714
549.156
538.011
450.805
420.076
479.824
506.002
542.089
420.167
448.674
473.662
497.759
531.955
416.492
445.737
472.09
498.154
532.802
496.984
479.802
513.799
498.179
493.369
476.062
513.522
497.163
489.192
472.472
512.64
495.694
412.415
401.053
440.705
428.564
464.273
449.863
485.809
470.104
511.425
493.992
408.782
395.06
437.686
425.672
463.053
450.253
487.066
472.164
511.04
492.642
436.074
426.04
434.669
424.213
404.289
384.929
401.161
379.422
464.1
455.878
464.071
455.451
433.618
422.356
433.709
422.328
399.719
376.256
399.732
376.428
463.605
454.833
464.084
455.178
491.661
483.549
515.876
508.228
490.383
481.528
514.447
504.816
491.477
482.95
516.204
508.953
491.658
483.108
516.139
508.344
466.885
460.077
483.991
477.358
462.848
455.371
482.391
474.302
459.064
451.151
479.688
469.36
389.435
382.979
417.207
409.275
438.115
429.115
456.57
447.096
475.801
463.171
379.7
374.313
414.299
407.304
437.656
428.905
456.028
444.879
470.303
457.613
396.295
388.28
405.372
395.238
424.086
412.511
440.818
423.093
376.952
358.364
381.661
361.969
375.178
358.41
380.488
362.238
377.716
372.082
377.835
370.746
358.112
362.303
398.979
402.293
429.205
434.145
379.605
381.834
380.267
381.666
363.847
364.45
344.45
325.683
346.531
326.485
345.207
324.794
347.057
325.689
345.482
323.353
348.219
324.914
349.372
324.846
349.669
324.269
375.054
366.087
379.717
367.58
399.437
389.593
406.476
392.053
360.183
348.196
356.495
347.237
382.794
368.572
384.537
368.749
411.201
393.766
413.945
394.365
362.095
348.678
362.861
348.506
343.729
321.766
332.653
316.278
341.365
320.605
332.211
316.048
345.006
322.239
332.79
316.105
345.329
322.137
332.471
315.538
340.837
337.76
323.634
320.54
341.312
338.287
322.552
319.506
340.9
338.041
320.905
318.064
369.148
391.646
351.456
338.062
318.555
392.468
369.754
350.887
336.44
316.78
387.561
364.906
346.37
331.815
315.556
334.227
328.908
315.791
307.602
334.991
330.036
315.188
307.426
334.776
329.708
314.214
306.973
385.445
375.574
364.185
356.355
347.227
341.679
333.011
327.237
313.868
307.331
379.967
367.321
359.11
348.91
341.761
333.506
327.511
319.8
313.2
307.278
354.946
341.747
352.014
337.176
374.916
358.869
372.348
353.138
335.657
324.006
338.328
327.561
350.368
334.095
349.932
333.697
371.362
348.932
371.289
348.668
333.988
321.694
333.3
321.124
321.487
312.34
310.23
302.075
324.515
314.747
311.888
304.019
319.544
310.976
308.808
300.581
319.305
310.241
307.886
300.423
323.408
321.126
292.782
290.657
325.974
323.171
293.356
291.074
324.569
320.539
293.764
290.992
366.091
360.532
348.959
344.665
335.166
331.339
320.265
315.988
293.964
290.606
354.682
350.467
338.613
334.836
324.297
320.89
309.994
307.42
292.406
289.769
306.874
294.721
287.599
282.713
307.293
294.856
287.684
282.699
306.362
294.521
287.545
282.729
306.819
294.638
287.651
282.724
305.48
294.163
287.48
282.791
306.091
294.292
287.552
282.707
305.64
293.98
287.203
282.428
304.931
293.507
286.776
282.146
304.516
293.635
287.225
282.673
302.355
292.828
286.73
282.698
304.172
293.618
287.274
282.833
302.504
293.003
286.842
282.842
304.461
293.475
286.999
282.462
302.068
292.581
286.505
282.506
304.089
293.163
286.693
282.218
301.639
292.261
286.249
282.308
306.005
294.427
287.455
282.781
304.69
294.001
287.162
282.883
305.503
294.248
287.394
282.801
304.286
293.87
287.1
282.897
304.69
293.945
287.295
282.854
303.657
293.64
287.014
282.93
303.498
293.471
287.096
282.913
303.017
293.381
286.919
282.978
302.467
293.079
286.841
282.936
303.164
293.594
286.693
283.208
302.092
293.381
286.502
283.342
302.955
293.515
286.686
283.215
301.913
293.303
286.488
283.339
302.56
293.353
286.642
283.207
301.59
293.151
286.436
283.322
302.196
293.151
286.624
283.216
301.302
292.956
286.392
283.307
301.76
292.885
286.577
283.209
300.904
292.708
286.31
283.272
300.458
292.266
286.175
282.987
299.321
292.013
285.939
283.038
301.177
292.611
286.412
283.13
300.155
292.39
286.155
283.183
299.756
291.891
285.874
282.779
298.569
291.616
285.651
282.839
299.178
291.519
285.603
282.569
298.018
291.234
285.383
282.638
278.961
276.762
275.37
274.564
274.196
278.95
276.758
275.368
274.562
274.195
278.947
276.751
275.364
274.56
274.193
278.924
276.741
275.359
274.557
274.192
278.927
276.738
275.356
274.555
274.19
278.874
276.714
275.345
274.549
274.186
278.792
276.671
275.323
274.537
274.178
278.702
276.626
275.299
274.525
274.17
278.856
276.701
275.337
274.545
274.183
278.866
276.702
275.337
274.545
274.183
278.902
276.723
275.348
274.551
274.187
278.896
276.715
275.343
274.548
274.186
278.798
276.673
275.323
274.537
274.178
278.807
276.675
275.323
274.537
274.178
278.698
276.623
275.298
274.524
274.169
278.708
276.626
275.298
274.524
274.17
278.976
276.768
275.373
274.565
274.197
278.989
276.771
275.374
274.566
274.197
278.968
276.76
275.368
274.562
274.195
278.983
276.765
275.37
274.563
274.195
278.956
276.749
275.361
274.558
274.192
278.974
276.755
275.364
274.559
274.193
278.936
276.735
275.354
274.554
274.189
278.952
276.741
275.356
274.555
274.19
278.916
276.725
275.348
274.551
274.187
528.241
523.755
528.382
523.874
528.413
523.897
528.159
523.409
528.023
522.857
529.873
526.733
529
525.152
530.283
527.283
530.572
527.528
563.769
570.988
572.546
572.899
572.974
556.257
568.957
572.085
572.8
572.951
564.046
571.074
572.568
572.904
572.976
556.459
569.046
572.11
572.807
572.953
564.281
571.158
572.591
572.91
572.977
556.658
569.141
572.138
572.814
572.955
564.564
571.25
572.613
572.915
572.978
556.803
569.214
572.158
572.818
572.956
564.809
571.305
572.622
572.916
572.978
556.909
569.234
572.156
572.816
572.955
563.705
570.871
572.496
572.882
572.969
556.603
568.872
572.021
572.777
572.942
564.145
571.064
572.556
572.899
572.974
556.703
569.045
572.09
572.798
572.949
563.403
570.74
572.454
572.87
572.965
556.531
568.769
571.978
572.763
572.938
563.538
570.761
572.455
572.87
572.964
556.629
568.772
571.97
572.759
572.936
413.106
453.006
448.394
409.405
401.537
408.403
399.385
407.779
429.929
447.53
434.004
450.69
275.981
276.397
277.321
278.822
280.961
283.804
276.323
276.745
277.671
279.154
281.253
284.045
275.705
275.568
276.121
275.978
277.057
276.911
278.632
278.53
280.898
280.95
283.962
284.322
287.373
292.061
298.497
307.586
315.466
321.258
287.629
292.172
297.79
304.167
309.779
313.384
275.696
275.286
274.738
274.086
273.369
276.071
275.603
274.979
274.236
273.42
276.904
276.307
275.512
274.568
273.533
278.256
277.449
276.376
275.106
273.715
280.18
279.07
277.6
275.867
273.974
282.73
281.212
279.215
276.87
274.314
276.005
275.547
274.936
274.21
273.411
276.384
275.868
275.179
274.361
273.463
277.219
276.573
275.713
274.693
273.575
278.554
277.698
276.564
275.223
273.755
280.439
279.286
277.762
275.968
274.008
282.941
281.387
279.345
276.95
274.341
275.447
275.075
274.578
273.986
273.335
275.323
274.971
274.499
273.937
273.319
275.821
275.392
274.819
274.136
273.386
275.693
275.284
274.736
274.085
273.369
276.666
276.106
275.36
274.473
273.501
276.535
275.996
275.276
274.421
273.483
278.085
277.305
276.268
275.039
273.693
277.994
277.229
276.21
275.003
273.681
280.124
279.024
277.566
275.846
273.967
280.171
279.064
277.596
275.865
273.973
282.873
281.334
279.307
276.927
274.333
283.196
281.605
279.512
277.054
274.376
285.917
283.879
281.219
278.112
274.735
290.077
287.337
283.807
279.716
275.278
295.724
291.986
287.272
281.869
276.011
303.552
298.336
292.005
284.846
277.035
310.148
303.618
295.98
287.429
277.964
314.891
307.383
298.845
289.344
278.664
286.141
284.063
281.355
278.197
274.764
290.174
287.418
283.869
279.756
275.293
295.124
291.509
286.926
281.655
275.939
300.683
296.068
290.33
283.783
276.667
305.519
300.009
293.281
285.649
277.315
308.599
302.511
295.164
286.855
277.739
276.038
276.575
277.645
279.334
281.713
284.85
276.384
276.932
278.007
279.666
281.974
284.999
275.759
275.62
276.29
276.142
277.372
277.22
279.149
279.047
281.691
281.765
285.15
285.65
288.731
293.704
300.313
309.246
316.642
321.685
288.811
293.527
299.194
305.412
310.643
313.694
275.747
275.33
274.772
274.107
273.376
276.232
275.741
275.083
274.301
273.443
277.198
276.558
275.703
274.688
273.574
278.721
277.845
276.678
275.296
273.78
280.863
279.653
278.047
276.148
274.069
283.681
282.026
279.839
277.263
274.448
276.059
275.594
274.972
274.232
273.419
276.555
276.013
275.29
274.43
273.486
277.523
276.832
275.911
274.817
273.618
279.019
278.095
276.867
275.413
273.82
281.095
279.846
278.191
276.237
274.1
283.811
282.13
279.915
277.309
274.464
275.495
275.116
274.61
274.006
273.342
275.37
275.01
274.529
273.956
273.325
275.975
275.523
274.918
274.199
273.408
275.842
275.41
274.833
274.145
273.389
276.952
276.35
275.546
274.59
273.541
276.815
276.234
275.458
274.535
273.522
278.555
277.705
276.573
275.231
273.758
278.463
277.629
276.515
275.195
273.746
280.845
279.639
278.037
276.143
274.068
280.912
279.697
278.081
276.17
274.077
283.955
282.259
280.017
277.374
274.486
284.406
282.641
280.306
277.554
274.547
287.156
284.941
282.036
278.628
274.911
291.581
288.632
284.808
280.35
275.496
297.397
293.437
288.403
282.59
276.259
305.1
299.697
293.081
285.542
277.276
311.259
304.606
296.772
287.951
278.147
315.299
307.749
299.142
289.543
278.735
287.219
284.987
282.067
278.646
274.917
291.414
288.485
284.693
280.278
275.471
296.414
292.625
287.793
282.207
276.128
301.834
297.071
291.115
284.286
276.841
306.323
300.713
293.837
286.008
277.44
308.888
302.766
295.366
286.987
277.784
352.594
334.779
294.129
289.044
293.188
289.797
293.996
358.408
355.811
334.741
346.39
313.665
324.652
308.134
312.305
306.38
350.504
325.452
310.21
307.471
313.887
309.07
301.349
301.995
301.068
297.965
304.818
302.786
348.304
327.217
335.39
317.922
312.426
324.674
302.5
296.864
305.829
337.511
323.81
312.121
299.913
283.619
325.152
315.155
304.906
293.768
280.435
291.973
288.969
285.065
280.511
275.55
287.442
285.186
282.222
278.744
274.95
291.163
288.316
284.585
280.213
275.449
288.124
285.764
282.661
279.018
275.043
291.872
288.9
285.02
280.482
275.54
344.368
329.438
316.261
302.293
284.7
342.378
327.922
314.741
300.546
283.166
326.367
316.586
305.838
293.957
280.382
335.576
322.59
310.316
297.098
281.861
309.08
303.041
295.589
287.092
277.813
318.262
310.295
301.001
290.595
279.086
304.353
299.236
292.757
285.298
277.183
307.955
302.159
294.932
286.663
277.656
302.842
298.01
291.845
284.725
276.984
337.883
324.364
312.368
299.56
283.478
318.78
310.641
301.334
290.929
279.222
306.109
300.638
293.803
285.967
277.418
303.721
298.683
292.343
285.053
277.103
309.184
303.076
295.631
287.16
277.845
305.063
299.737
293.12
285.545
277.269
298.331
294.221
288.994
282.957
276.382
298.941
294.758
289.406
283.211
276.468
298.175
294.164
288.975
282.939
276.374
295.417
291.866
287.251
281.868
276.011
301.458
296.862
290.988
284.194
276.804
299.661
295.372
289.872
283.5
276.567
335.065
321.983
310.632
298.605
283.053
319.588
311.003
301.683
291.391
279.484
326.94
316.112
305.568
293.96
279.905
312.428
305.514
297.442
288.358
278.238
307.89
301.969
294.777
286.603
277.625
318.135
309.965
300.793
290.548
278.942
299.361
295.087
289.647
283.363
276.52
294.421
291.024
286.614
281.473
275.877
302.282
297.495
291.451
284.492
276.908
278.175
288.137
297.255
305.283
311.844
316.867
476.728
471.134
446.467
452.02
462.732
455.723
438.435
429.203
497.79
516.531
493.456
511.495
487.653
477.887
506.164
465.534
461.496
437.864
442.09
454.582
449.475
431.207
424.097
485.854
500.555
483.1
497.123
478.409
470.415
493.094
449.871
447.439
425.633
428.477
442.587
439.786
420.69
415.561
468.087
482.676
466.443
480.629
463.62
458.261
478.031
434.053
432.482
412.675
414.801
428.984
427.321
408.687
404.344
451.247
465.762
450.198
464.143
448.007
443.6
462.005
422.632
421.305
403.184
405.1
417.961
416.09
399.348
394.49
438.49
451.681
437.769
451.058
435.917
431.751
449.364
414.737
413.468
396.754
398.594
410.176
408.217
393.034
388.293
428.967
442.351
428.281
442.161
426.752
422.837
440.447
394.534
391.62
418.531
422.415
387.787
380.581
412.737
403.52
371.053
351.573
368.724
351.099
363.729
362.496
350.265
390.069
387.231
412.346
415.677
383.543
376.736
407.118
398.912
365.915
349.397
363.499
349.199
359.082
358.272
348.301
383.471
380.883
403.132
405.777
377.486
371.575
398.781
392.09
363.602
347.933
361.453
347.167
357.388
356.496
345.722
376.079
373.533
392.865
395.149
369.689
363.485
388.85
382.155
359.385
345.356
357.065
343.8
352.788
351.101
341.392
370.672
368.152
385.351
387.516
364.435
358.278
381.423
374.765
356.062
343.977
353.474
341.286
348.873
346.382
337.728
367.306
364.787
380.377
382.492
361.147
355.009
376.531
370.104
354.799
342.563
352.007
339.101
346.636
343.58
335.008
538.792
556.186
524.528
545.583
506.478
530.73
478.773
505.018
482.55
509.031
508.266
534.425
520.134
544.062
532.183
552.631
496.933
479.585
515.298
488.697
469.847
451.293
486.961
459.013
546.661
553.382
560.401
563.76
535.734
544.7
552.166
557.53
534.571
520.804
507.526
499.683
535.339
546.831
536.391
542.289
497.257
504.761
511.708
517.772
467.427
473.862
548.353
553.653
517.486
527.497
559.278
565.351
558.073
566.711
566.383
570.411
550.194
563.71
560.882
568.381
539.883
558.821
549.988
564.086
557.12
566.588
561.394
568.133
464.75
449.224
472.939
453.025
430.548
416.851
438.842
421.183
501.252
481.99
493.916
477.977
478.491
455.552
481.653
456.843
444.601
424.018
447.809
425.464
506.619
484.646
509.644
485.947
528.098
556.899
511.28
545.264
521.352
552.461
506.494
541.222
532.7
559.081
514.082
547.564
535.112
559.986
515.321
548.942
552.632
540.748
563.195
554.391
543.836
531.922
559.425
549.515
531.578
519.154
553.162
541.954
448.114
408.973
483.555
511.938
544.118
407.528
445.742
478.481
505.063
534.131
406.834
442.714
472.967
499.92
533.149
517.192
495.331
521.385
500.494
511.463
489.736
519.237
498.003
502.456
481.507
515.627
494.347
400.051
386.008
437.629
423.03
467.854
450.199
491.08
471.466
512.249
491.013
398.88
383.541
433.343
418.128
462.051
445.157
486.946
467.877
510.165
488.402
432.959
421.356
432.658
421.372
398.404
377.484
397.678
374.918
463.037
454.059
462.69
452.459
432.538
420.876
433.371
421.881
397.997
374.106
399.208
375.784
462.974
453.838
463.879
454.872
491.048
482.375
515.374
507.371
489.687
479.433
513.729
503.144
491.076
482.302
515.905
508.508
491.517
482.893
516.047
508.211
469.956
448.735
437.059
473.128
451.035
439.172
465.225
443.658
431.979
470.479
447.571
435.34
456.374
434.353
422.372
466.337
442.191
429.408
367.796
354.192
347.139
403.114
384.645
374.644
428.484
407.157
395.239
446.887
424.529
412.431
461.523
436.002
422.376
364.225
350.111
342.404
399.661
382.528
373.364
424.071
404.001
393.126
442.427
419.206
406.657
456.033
430.326
416.846
406.279
392.539
410.251
396.892
436.414
419.635
445.293
426.124
377.199
356.692
378.412
358.597
378.26
357.279
380.02
359.759
378.082
374.929
377.526
371.101
356.297
360.352
399.645
402.465
430.638
434.568
379.552
381.76
379.969
381.545
362.588
363.979
334.937
315.838
340.308
318.9
336.544
315.598
341.813
319.065
337.665
315.16
344.125
319.669
347.011
321.644
348.877
323.175
370.636
358.684
377.904
363.649
397.653
384.05
406.115
389.292
356.837
343.552
349.594
339.049
381.944
366.574
384.286
368.102
411.109
392.408
413.92
393.927
360.446
346.24
362.367
347.708
339.158
317.137
327.903
312.08
332.921
313.426
324.316
309.644
342.663
319.614
330.204
313.713
344.62
321.297
331.61
314.747
317.903
307.672
309.587
303.178
319.156
309.373
309.373
303.389
320.704
312.84
309.037
304.231
350.418
374.08
333.659
322.579
308.363
372.047
346.961
327.896
316.426
304.713
372.307
348.855
331.702
319.379
306.779
299.923
293.033
296.89
290.433
302.308
295.262
297.839
291.517
306.299
299.465
299.404
293.301
365.003
352.091
340.124
329.165
322.928
315.01
311.675
304.656
301.417
295.628
364.765
351.447
342.373
331.524
326.116
317.449
314.283
306.608
303.906
298.064
345.486
332.148
346.713
331.765
366.363
349.532
367.547
347.74
330.382
318.996
329.133
318.721
347.768
331.537
349.14
332.934
369.059
346.398
370.597
347.916
331.338
319.293
332.479
320.397
316.789
308.133
306.253
298.781
316.413
307.422
305.556
298.534
317.076
308.862
306.644
298.891
318.479
309.564
307.239
299.925
284.965
280.52
278.768
279.818
276.8
275.781
287.539
282.705
280.666
280.847
277.666
276.489
291.572
286.277
284.109
282.434
278.91
277.627
337.813
327.64
322.693
318.615
311.079
307.653
305.932
299.736
297.16
296.002
290.316
287.925
284.007
280.296
278.789
336.27
325.457
320.126
319.635
310.9
306.586
307.316
300.166
296.786
296.628
291.078
288.805
285.073
281.374
279.516
300.446
290.972
285.37
281.417
301.72
291.456
285.602
281.47
300.327
290.983
285.44
281.513
301.904
291.61
285.781
281.617
300.075
290.965
285.551
281.661
302.126
291.816
286.003
281.795
303.101
292.353
286.195
281.858
304.036
292.923
286.41
281.932
301.237
291.587
285.933
281.885
299.401
290.967
285.545
281.92
299.565
290.86
285.585
281.817
298.284
290.446
285.294
281.884
302.473
292.196
286.163
281.924
300.313
291.443
285.753
281.984
303.417
292.723
286.406
282.036
301.054
291.876
285.992
282.128
298.322
290.209
285.037
281.386
295.865
289.342
284.605
281.386
298.179
290.191
285.065
281.458
295.897
289.38
284.63
281.447
297.95
290.156
285.105
281.576
296.154
289.517
284.714
281.555
297.593
290.087
285.113
281.726
296.307
289.616
284.802
281.7
297.173
289.987
285.042
281.844
293.691
288.635
284.09
281.549
292.473
288.296
283.856
281.588
294.037
288.773
284.17
281.607
292.872
288.449
283.935
281.64
294.602
289.005
284.297
281.698
293.529
288.709
284.061
281.729
295.309
289.293
284.492
281.838
294.373
289.045
284.246
281.849
296.235
289.672
284.727
281.982
295.234
289.404
284.434
281.971
297.534
290.387
285.022
282.18
296.442
290.122
284.791
282.215
296.944
290.023
284.875
282.086
295.939
289.777
284.617
282.096
298.047
290.749
285.157
282.261
296.912
290.476
284.945
282.325
298.624
291.139
285.362
282.394
297.488
290.86
285.148
282.466
278.304
276.419
275.192
274.467
274.132
278.315
276.423
275.194
274.468
274.133
278.34
276.435
275.2
274.471
274.135
278.359
276.445
275.205
274.473
274.137
278.376
276.452
275.208
274.475
274.138
278.419
276.476
275.22
274.482
274.142
278.507
276.521
275.244
274.495
274.15
278.59
276.567
275.268
274.508
274.159
278.461
276.494
275.229
274.486
274.145
278.472
276.496
275.23
274.486
274.145
278.415
276.471
275.217
274.48
274.141
278.444
276.482
275.222
274.482
274.142
278.513
276.522
275.244
274.494
274.15
278.522
276.523
275.244
274.494
274.15
278.601
276.571
275.27
274.509
274.16
278.607
276.571
275.27
274.508
274.159
278.291
276.414
275.19
274.465
274.131
278.285
276.411
275.188
274.465
274.131
278.319
276.426
275.195
274.468
274.133
278.31
276.421
275.193
274.467
274.132
278.354
276.441
275.202
274.472
274.135
278.345
276.435
275.199
274.47
274.134
278.394
276.458
275.21
274.476
274.138
278.38
276.451
275.207
274.474
274.137
278.421
276.471
275.217
274.479
274.14
531.196
525.622
530.567
524.984
529.433
523.901
528.138
522.449
527.311
521.312
529.386
526.122
528.309
524.113
530.002
526.957
530.482
527.429
564.159
571.042
572.554
572.9
572.975
556.764
569.045
572.099
572.802
572.951
564.308
571.11
572.574
572.905
572.976
556.785
569.105
572.12
572.809
572.953
564.381
571.168
572.592
572.91
572.977
556.715
569.154
572.14