/*--------------------------------*- C++ -*----------------------------------*\
| =========                 |                                                 |
| \\      /  F ield         | OpenFOAM: The Open Source CFD Toolbox           |
|  \\    /   O peration     | Version:  2412                                  |
|   \\  /    A nd           | Website:  www.openfoam.com                      |
|    \\/     M anipulation  |                                                 |
\*---------------------------------------------------------------------------*/
FoamFile
{
    version     2.0;
    format      ascii;
    arch        "LSB;label=32;scalar=64";
    class       surfaceScalarField;
    location    "20/topAir";
    object      phi;
}
// * * * * * * * * * * * * * * * * * * * * * * * * * * * * * * * * * * * * * //

dimensions      [1 0 -1 0 0 0 0];

oriented        oriented;

internalField   nonuniform List<scalar> 
3140
(
9.0689448e-06
1.1723584e-07
8.2788654e-08
8.8410681e-06
1.2359824e-07
1.0427837e-07
8.6160315e-06
1.1494073e-07
1.1009588e-07
8.3917858e-06
1.111069e-07
1.1313877e-07
8.1698227e-06
1.0771449e-07
1.1424867e-07
7.9538656e-06
1.0280567e-07
1.1315144e-07
7.7462364e-06
9.7206502e-08
1.1042269e-07
7.5479581e-06
9.153477e-08
1.0674355e-07
7.3595424e-06
8.5865373e-08
1.0255029e-07
7.1813535e-06
8.0083635e-08
9.8105259e-08
7.0137653e-06
7.3965052e-08
9.3623245e-08
6.8573712e-06
6.7033977e-08
8.9360166e-08
6.713239e-06
5.8404286e-08
8.5729128e-08
6.578061e-06
5.1443822e-08
8.3763564e-08
6.4506963e-06
4.3262512e-08
8.4156266e-08
6.3298958e-06
3.4195066e-08
8.6679762e-08
6.2149591e-06
2.4334011e-08
9.069197e-08
6.10589e-06
1.3711657e-08
9.5456146e-08
6.0029422e-06
2.8031613e-09
1.0024779e-07
5.908293e-06
-1.0286825e-08
1.0503892e-07
5.8224242e-06
-2.3128257e-08
1.0909625e-07
5.7449827e-06
-3.4813348e-08
1.1234823e-07
5.675457e-06
-4.4980521e-08
1.1459249e-07
5.6131804e-06
-5.3209609e-08
1.1556496e-07
5.5574272e-06
-5.9096685e-08
1.1492129e-07
5.5075479e-06
-6.2240283e-08
1.1218403e-07
5.4631325e-06
-6.2206257e-08
1.0667979e-07
5.4242204e-06
-5.8474169e-08
9.7438643e-08
5.3916861e-06
-5.0486482e-08
8.3068113e-08
-3.7334523e-08
6.2507104e-08
9.3013789e-06
-1.7165962e-11
8.483488e-08
9.3178991e-06
-3.6829854e-11
1.0711486e-07
9.3190803e-06
-6.8123076e-11
1.1382766e-07
9.3120812e-06
-1.208837e-10
1.1822687e-07
9.2991438e-06
-2.100785e-10
1.20862e-07
9.280927e-06
-3.6022048e-10
1.2138267e-07
9.2583792e-06
-6.1078689e-10
1.203651e-07
9.2324881e-06
-1.0239782e-09
1.1844988e-07
9.2040374e-06
-1.6954242e-09
1.1601144e-07
9.1736461e-06
-2.7667537e-09
1.1324175e-07
9.1417995e-06
-4.4337487e-09
1.1024538e-07
9.1087055e-06
-6.9219808e-09
1.0704991e-07
9.0738796e-06
-1.0299997e-08
1.035303e-07
9.0399911e-06
-1.3989811e-08
9.9323058e-08
9.0068715e-06
-1.8119074e-08
9.450341e-08
8.9748535e-06
-2.3094278e-08
8.9311371e-08
8.9441155e-06
-2.8876909e-08
8.3954721e-08
8.9144886e-06
-3.5285811e-08
7.8632132e-08
8.8856951e-06
-4.1965368e-08
7.3571586e-08
8.8557801e-06
-4.8983158e-08
6.8622769e-08
8.8244772e-06
-5.6028092e-08
6.4215729e-08
8.792255e-06
-6.2620353e-08
6.0043536e-08
8.7596123e-06
-6.8307798e-08
5.5985568e-08
8.727162e-06
-7.2624465e-08
5.1881584e-08
8.6957177e-06
-7.5099511e-08
4.746432e-08
8.666346e-06
-7.527701e-08
4.2426171e-08
8.6404959e-06
-7.2681364e-08
3.6343271e-08
8.620164e-06
-6.6687385e-08
2.8563394e-08
8.6083845e-06
-5.6857013e-08
1.8168542e-08
-4.4117077e-08
4.1255374e-09
9.3013592e-06
-1.1725835e-07
8.4834311e-08
9.3178546e-06
-1.2364577e-07
1.0711359e-07
9.3189882e-06
-1.1502687e-07
1.1382513e-07
9.311903e-06
-1.1125746e-07
1.1822177e-07
9.2988139e-06
-1.0797269e-07
1.2085166e-07
9.2803352e-06
-1.0324341e-07
1.2136191e-07
9.2573426e-06
-9.7942144e-08
1.2032396e-07
9.2307101e-06
-9.2761232e-08
1.1836978e-07
9.2010511e-06
-8.7895256e-08
1.158588e-07
9.1687488e-06
-8.3423481e-08
1.1295908e-07
9.1340171e-06
-7.9444888e-08
1.0974279e-07
9.0969309e-06
-7.6049756e-08
1.0621397e-07
9.0575802e-06
-7.3253429e-08
1.0230417e-07
9.0166318e-06
-7.09274e-08
9.7886063e-08
8.9745887e-06
-6.8983237e-08
9.2907308e-08
8.931636e-06
-6.7579203e-08
8.743775e-08
8.8879109e-06
-6.6747691e-08
8.159618e-08
8.8435341e-06
-6.6415437e-08
7.5506847e-08
8.7987486e-06
-6.6465261e-08
6.9286014e-08
8.7535706e-06
-6.6797925e-08
6.2993613e-08
8.708152e-06
-6.7305925e-08
5.6697572e-08
8.6629687e-06
-6.7772166e-08
5.0336549e-08
8.6187318e-06
-6.7924458e-08
4.385516e-08
8.5763528e-06
-6.7395288e-08
3.7151775e-08
8.5369938e-06
-6.5662652e-08
2.9924346e-08
8.5023234e-06
-6.2914351e-08
2.2310338e-08
8.4744868e-06
-5.8993883e-08
1.4151958e-08
8.4564114e-06
-5.3707269e-08
5.0983764e-09
8.451324e-06
-4.6866787e-08
-4.8994067e-09
-3.7933781e-08
-1.627029e-08
9.0688982e-06
8.2787428e-08
8.8409768e-06
1.0427563e-07
8.6158595e-06
1.1009043e-07
8.3914742e-06
1.1312784e-07
8.1692749e-06
1.1422663e-07
7.9529243e-06
1.1310711e-07
7.744648e-06
1.1033422e-07
7.5453179e-06
1.0656889e-07
7.355213e-06
1.0220957e-07
7.1743412e-06
9.744836e-08
7.0025259e-06
9.2370421e-08
6.839485e-06
8.699115e-08
6.6849645e-06
8.1267087e-08
6.5389159e-06
7.5121134e-08
6.4014259e-06
6.8506819e-08
6.2723736e-06
6.1473103e-08
6.1514901e-06
5.413586e-08
6.0384416e-06
4.6633029e-08
5.9328647e-06
3.9111664e-08
5.8343888e-06
3.167812e-08
5.7428158e-06
2.4267122e-08
5.658245e-06
1.6798801e-08
5.581155e-06
9.1657318e-09
5.5132845e-06
4.7545779e-10
5.4550114e-06
-7.389198e-09
5.4083079e-06
-1.6210359e-08
5.3744924e-06
-2.5177936e-08
5.3547651e-06
-3.3979351e-08
5.3498685e-06
-4.1969465e-08
-4.7707508e-08
9.196201e-06
1.1921114e-07
3.6345756e-08
9.1095213e-06
1.2562567e-07
6.5332401e-08
9.023267e-06
1.1672932e-07
7.9620782e-08
8.936108e-06
1.1316136e-07
8.7136466e-08
8.8484102e-06
1.1017811e-07
9.1768343e-08
8.761755e-06
1.0565457e-07
9.4152093e-08
8.6770998e-06
1.004565e-07
9.4621333e-08
8.5949015e-06
9.5220166e-08
9.3721713e-08
8.5155052e-06
9.0005221e-08
9.1941297e-08
8.4393158e-06
8.4654779e-08
8.9639958e-08
8.3669126e-06
7.8871089e-08
8.7155413e-08
8.2992837e-06
7.2024149e-08
8.4964955e-08
8.2380315e-06
6.2987805e-08
8.3994954e-08
8.1787194e-06
5.6413126e-08
8.6701543e-08
8.1201384e-06
4.839653e-08
9.4413293e-08
8.0609484e-06
3.9521789e-08
1.0644792e-07
8.000464e-06
2.9994616e-08
1.2130243e-07
7.9387422e-06
1.992035e-08
1.3739183e-07
7.8762815e-06
9.5067307e-09
1.5334289e-07
7.8144566e-06
-6.2956208e-10
1.6763542e-07
7.7573559e-06
-1.3710564e-08
1.8004611e-07
7.7046926e-06
-2.5110629e-08
1.9025436e-07
7.6566706e-06
-3.5276664e-08
1.9801507e-07
7.6132451e-06
-4.3885875e-08
2.0299135e-07
7.5741762e-06
-5.0557523e-08
2.0465365e-07
7.5390849e-06
-5.4794219e-08
2.0216668e-07
7.5075063e-06
-5.591716e-08
1.9426466e-07
7.4790456e-06
-5.320098e-08
1.791819e-07
7.4534271e-06
-4.5960194e-08
1.5472186e-07
-3.3493222e-08
1.1998994e-07
9.4354364e-06
-1.801379e-11
3.7588403e-08
9.600152e-06
-3.881363e-11
6.8063697e-08
9.7470973e-06
-7.1843806e-11
8.3683513e-08
9.886026e-06
-1.2739283e-10
9.2586936e-08
1.0018566e-05
-2.2110885e-10
9.8721592e-08
1.014328e-05
-3.7877227e-10
1.0270149e-07
1.0259901e-05
-6.4221704e-10
1.0484324e-07
1.0368994e-05
-1.0780788e-09
1.0565526e-07
1.0471237e-05
-1.7899497e-09
1.0556324e-07
1.0567244e-05
-2.9328002e-09
1.0482245e-07
1.0657528e-05
-4.7210372e-09
1.0355363e-07
1.0742284e-05
-7.39173e-09
1.0170938e-07
1.0820899e-05
-1.0944137e-08
9.8847302e-08
1.0897277e-05
-1.457288e-08
9.393232e-08
1.0971255e-05
-1.8373108e-08
8.7297589e-08
1.104345e-05
-2.2956906e-08
7.9599614e-08
1.1114314e-05
-2.8306642e-08
7.1398252e-08
1.118399e-05
-3.4299167e-08
6.3185325e-08
1.1252412e-05
-4.0737494e-08
5.5405101e-08
1.1319057e-05
-4.7370313e-08
4.8731216e-08
1.1381328e-05
-5.4421314e-08
4.2670581e-08
1.1440222e-05
-6.1178825e-08
3.7234652e-08
1.1496048e-05
-6.7301976e-08
3.2203442e-08
1.154928e-05
-7.2408308e-08
2.7192426e-08
1.160074e-05
-7.6231842e-08
2.1699814e-08
1.1651392e-05
-7.7998262e-08
1.5000003e-08
1.1702485e-05
-7.6914081e-08
6.269504e-09
1.1755847e-05
-7.2031778e-08
-5.9450046e-09
1.1813066e-05
-6.2275426e-08
-2.2710966e-08
-4.6944209e-08
-4.278464e-08
9.435416e-06
-1.1923472e-07
3.7587305e-08
9.6001055e-06
-1.2567567e-07
6.8060995e-08
9.747001e-06
-1.1682017e-07
8.3677946e-08
9.8858399e-06
-1.1332026e-07
9.2575744e-08
1.0018222e-05
-1.1045058e-07
9.8699298e-08
1.0142664e-05
-1.0611668e-07
1.026575e-07
1.0258823e-05
-1.0123426e-07
1.0475738e-07
1.0367145e-05
-9.6521086e-08
1.0549012e-07
1.0468133e-05
-9.2170734e-08
1.0525162e-07
1.0562159e-05
-8.8249922e-08
1.0425026e-07
1.0649482e-05
-8.4848675e-08
1.0254787e-07
1.0730268e-05
-8.204111e-08
1.0007764e-07
1.0804811e-05
-7.9801813e-08
9.6618441e-08
1.0874214e-05
-7.7925925e-08
9.183577e-08
1.0939418e-05
-7.6259559e-08
8.5590198e-08
1.1000879e-05
-7.5034804e-08
7.805501e-08
1.1058984e-05
-7.4317503e-08
6.9502384e-08
1.1114021e-05
-7.4051743e-08
6.0222833e-08
1.1166238e-05
-7.4137491e-08
5.0468947e-08
1.1215837e-05
-7.4474016e-08
4.0499933e-08
1.1262842e-05
-7.5029198e-08
3.0300846e-08
1.13078e-05
-7.5686433e-08
1.9887659e-08
1.1351301e-05
-7.6182994e-08
9.2370273e-09
1.1393941e-05
-7.6486227e-08
-1.4084994e-09
1.1437822e-05
-7.6369786e-08
-1.381638e-08
1.1484091e-05
-7.5327722e-08
-2.6626821e-08
1.1534707e-05
-7.2746296e-08
-4.0628026e-08
1.1591469e-05
-6.7752379e-08
-5.5940547e-08
1.1655325e-05
-5.8877194e-08
-7.2149088e-08
-4.3477094e-08
-8.7570579e-08
9.1961532e-06
3.6343441e-08
9.1094264e-06
6.5326716e-08
9.0230876e-06
7.9609034e-08
8.9357824e-06
8.7112857e-08
8.8478372e-06
9.1721193e-08
8.7607692e-06
9.4058434e-08
8.6754327e-06
9.4436445e-08
8.5921212e-06
9.3359391e-08
8.5109233e-06
9.1236659e-08
8.4318423e-06
8.8279397e-08
8.3548203e-06
8.4543768e-08
8.2798025e-06
7.9967933e-08
8.2068796e-06
7.4388161e-08
8.1364859e-06
6.7588909e-08
8.0692912e-06
5.9441938e-08
8.0056792e-06
5.0050273e-08
7.9458381e-06
3.9659483e-08
7.8898286e-06
2.8590824e-08
7.8375663e-06
1.7236444e-08
7.7888137e-06
5.9568147e-09
7.743825e-06
-5.7733157e-09
7.7030869e-06
-1.8149449e-08
7.6665611e-06
-3.0491283e-08
7.633661e-06
-4.3110374e-08
7.6058633e-06
-5.596098e-08
7.583769e-06
-6.9443415e-08
7.5692569e-06
-8.3411647e-08
7.5648559e-06
-9.7330188e-08
7.5740561e-06
-1.1004612e-07
-1.1887809e-07
9.1667896e-06
1.1903229e-07
1.9493077e-08
9.0701247e-06
1.2520086e-07
3.679641e-08
8.9861018e-06
1.1577129e-07
4.7872453e-08
8.9070029e-06
1.1181486e-07
5.4420491e-08
8.8316651e-06
1.0858387e-07
5.8522259e-08
8.7609519e-06
1.0384392e-07
6.1021392e-08
8.6949225e-06
9.8450217e-08
6.2200484e-08
8.6332588e-06
9.3043853e-08
6.2341502e-08
8.5758029e-06
8.7634253e-08
6.1762943e-08
8.5227232e-06
8.1952347e-08
6.0767343e-08
8.4747213e-06
7.5453434e-08
5.970396e-08
8.4335683e-06
6.6944789e-08
5.917339e-08
8.4025866e-06
5.4399518e-08
6.0579553e-08
8.3727919e-06
4.8308357e-08
6.8256831e-08
8.3427118e-06
4.043891e-08
8.4181798e-08
8.3105439e-06
3.1887469e-08
1.0690344e-07
8.2754108e-06
2.2824471e-08
1.3382141e-07
8.2376423e-06
1.3240435e-08
1.6215202e-07
8.1982015e-06
3.6739687e-09
1.8935137e-07
8.1603005e-06
-8.3986946e-09
2.1417607e-07
8.125143e-06
-2.0642719e-08
2.3607925e-07
8.0925918e-06
-3.1864216e-08
2.5489029e-07
8.0623031e-06
-4.1924795e-08
2.7043419e-07
8.0334252e-06
-5.0326692e-08
2.8238594e-07
8.004522e-06
-5.6399383e-08
2.9013065e-07
7.9735499e-06
-5.9258598e-08
2.9255719e-07
7.9379069e-06
-5.765981e-08
2.8771376e-07
7.894719e-06
-4.9710339e-08
2.7221441e-07
7.8422575e-06
-3.2896221e-08
2.4020327e-07
-4.3949951e-09
1.8336838e-07
9.4054856e-06
-1.9835854e-11
2.0115716e-08
9.5606435e-06
-4.3019911e-11
3.8149636e-08
9.7101823e-06
-8.04279e-11
4.9996444e-08
9.8573127e-06
-1.4440037e-10
5.7415743e-08
1.0002356e-05
-2.5427615e-10
6.2516052e-08
1.0143219e-05
-4.4273384e-10
6.6125634e-08
1.0278775e-05
-7.6438425e-10
6.8501746e-08
1.0408896e-05
-1.3089025e-09
6.9887278e-08
1.0533782e-05
-2.2201337e-09
7.0531738e-08
1.0653674e-05
-3.7189749e-09
7.0601634e-08
1.0768668e-05
-6.112858e-09
7.0125791e-08
1.0878182e-05
-9.7083208e-09
6.8848599e-08
1.0979891e-05
-1.4217461e-08
6.5755333e-08
1.1081165e-05
-1.7873875e-08
5.8842301e-08
1.1180661e-05
-2.0602939e-08
4.8847316e-08
1.1279016e-05
-2.3860062e-08
3.6999422e-08
1.137685e-05
-2.780862e-08
2.4208518e-08
1.1473712e-05
-3.2610886e-08
1.2189972e-08
1.1569586e-05
-3.8153433e-08
1.3771428e-09
1.1661508e-05
-4.4667236e-08
-6.8997377e-09
1.1748999e-05
-5.1601531e-08
-1.3835548e-08
1.1832203e-05
-5.843079e-08
-1.9373188e-08
1.1911102e-05
-6.4737324e-08
-2.3851123e-08
1.198581e-05
-6.9967777e-08
-2.7839809e-08
1.2056384e-05
-7.3103487e-08
-3.213274e-08
1.2123121e-05
-7.3129327e-08
-3.7827915e-08
1.2186681e-05
-6.839045e-08
-4.6518873e-08
1.2248212e-05
-5.670727e-08
-6.0436191e-08
1.2310525e-05
-3.5487642e-08
-8.2388725e-08
-4.6710227e-09
-1.1352983e-07
9.4054636e-06
-1.1905828e-07
2.0114467e-08
9.5605912e-06
-1.2525633e-07
3.8146663e-08
9.7100716e-06
-1.1587309e-07
4.9990283e-08
9.8570948e-06
-1.1199519e-07
5.7403332e-08
1.0001946e-05
-1.0889778e-07
6.2491303e-08
1.014247e-05
-1.0438557e-07
6.6076737e-08
1.0277437e-05
-9.9380114e-08
6.8406063e-08
1.0406551e-05
-9.4635364e-08
6.9702506e-08
1.0529756e-05
-9.0355615e-08
7.0181747e-08
1.0646947e-05
-8.6618138e-08
6.9959024e-08
1.0757892e-05
-8.3522171e-08
6.9011934e-08
1.0862234e-05
-8.1118815e-08
6.7146124e-08
1.0959953e-05
-7.9254128e-08
6.3935998e-08
1.1052635e-05
-7.7431428e-08
5.8711552e-08
1.1141674e-05
-7.5253548e-08
5.1201964e-08
1.1227476e-05
-7.3241098e-08
4.163453e-08
1.1310473e-05
-7.1639393e-08
3.0336252e-08
1.1390905e-05
-7.0439011e-08
1.7619143e-08
1.1468822e-05
-6.9632813e-08
4.0331329e-09
1.1543711e-05
-6.9370908e-08
-9.6843139e-09
1.1615576e-05
-6.9438156e-08
-2.3725853e-08
1.1684612e-05
-6.9550045e-08
-3.8026404e-08
1.1751167e-05
-6.9530675e-08
-5.2521752e-08
1.1816148e-05
-6.9023763e-08
-6.7329688e-08
1.1879848e-05
-6.7766873e-08
-8.2848775e-08
1.1944352e-05
-6.4732582e-08
-9.952337e-08
1.2012405e-05
-5.8853588e-08
-1.1821155e-07
1.208816e-05
-4.8797592e-08
-1.3959802e-07
1.2177132e-05
-3.263184e-08
-1.63969e-07
-7.3442755e-09
-1.8885007e-07
9.1667386e-06
1.949047e-08
9.0700188e-06
3.6790174e-08
8.9858953e-06
4.7859488e-08
8.9066186e-06
5.4394339e-08
8.8309721e-06
5.8469939e-08
8.7597278e-06
6.0917149e-08
8.6927906e-06
6.199359e-08
8.6295822e-06
6.1932423e-08
8.5695066e-06
6.0956621e-08
8.5119873e-06
5.9180559e-08
8.4564312e-06
5.6577642e-08
8.4023031e-06
5.2977254e-08
8.3493687e-06
4.8068452e-08
8.298067e-06
4.145921e-08
8.2493399e-06
3.2915434e-08
8.2036035e-06
2.254565e-08
8.1612214e-06
1.0402151e-08
8.1222014e-06
-2.8281038e-09
8.0858783e-06
-1.6073225e-08
8.0521549e-06
-2.9690548e-08
8.0204547e-06
-4.3511117e-08
7.9903655e-06
-5.7610065e-08
7.962356e-06
-7.2012244e-08
7.9370995e-06
-8.6877168e-08
7.9157371e-06
-1.0236495e-07
7.9000041e-06
-1.1844224e-07
7.8927479e-06
-1.3500803e-07
7.8990594e-06
-1.5243797e-07
7.9273762e-06
-1.7099316e-07
-1.8983244e-07
9.1609285e-06
1.1918158e-07
8.3522256e-09
9.055918e-06
1.2557753e-07
1.6229371e-08
8.9655302e-06
1.1625201e-07
2.2008232e-08
8.8818542e-06
1.1231846e-07
2.5778007e-08
8.8031108e-06
1.0907863e-07
2.8187065e-08
8.7301635e-06
1.0428157e-07
2.968709e-08
8.6631179e-06
9.8767401e-08
3.0478633e-08
8.6015876e-06
9.3166193e-08
3.0705615e-08
8.5453828e-06
8.7438676e-08
3.0529109e-08
8.4948464e-06
8.1175526e-08
3.0128276e-08
8.4513384e-06
7.3462065e-08
2.9749993e-08
8.418405e-06
6.2202623e-08
2.9904525e-08
8.4026643e-06
4.4239559e-08
3.2084753e-08
8.3857861e-06
4.3120535e-08
4.2130894e-08
8.3664804e-06
4.2657761e-08
6.1044587e-08
8.3423489e-06
4.4595497e-08
8.6734708e-08
8.312132e-06
4.7822399e-08
1.1656952e-07
8.2771612e-06
5.081173e-08
1.4669826e-07
8.2388997e-06
5.3283236e-08
1.7472904e-07
8.1986446e-06
5.480489e-08
2.0002192e-07
8.1569999e-06
5.5626362e-08
2.2247847e-07
8.1141384e-06
5.606821e-08
2.4204325e-07
8.0697729e-06
5.654759e-08
2.5858723e-07
8.0230077e-06
5.7623393e-08
2.7183737e-07
7.9721338e-06
6.0057768e-08
2.8123111e-07
7.9143595e-06
6.49365e-08
2.8565549e-07
7.8453906e-06
7.3966973e-08
2.8295403e-07
7.758674e-06
9.0194945e-08
2.6895412e-07
7.6441666e-06
1.1938344e-07
2.3552741e-07
1.7632876e-07
1.7112984e-07
9.3996543e-06
-2.1634311e-11
8.6253758e-09
9.5465566e-06
-4.7257716e-11
1.6872147e-08
9.6898228e-06
-8.9300528e-11
2.3071488e-08
9.8323845e-06
-1.6233977e-10
2.73349e-08
9.9739556e-06
-2.8994588e-10
3.0313409e-08
1.0112433e-05
-5.1278298e-10
3.2442799e-08
1.0246699e-05
-9.0052565e-10
3.3903489e-08
1.0376511e-05
-1.5704989e-09
3.4811918e-08
1.0501918e-05
-2.7154069e-09
3.5278794e-08
1.0622964e-05
-4.6355161e-09
3.5366282e-08
1.0739289e-05
-7.7391698e-09
3.5002788e-08
1.0848919e-05
-1.2313682e-08
3.3735105e-08
1.0946427e-05
-1.7530587e-08
3.0016876e-08
1.1045975e-05
-1.8975713e-08
2.1393703e-08
1.1143439e-05
-1.6222787e-08
1.0270939e-08
1.123826e-05
-1.1974276e-08
-1.2388184e-09
1.1332844e-05
-6.4907348e-09
-1.6040922e-08
1.1424883e-05
-1.5483854e-09
-2.7459391e-08
1.1512825e-05
3.131267e-09
-3.637414e-08
1.1596722e-05
6.9749457e-09
-4.2918952e-08
1.167573e-05
1.0227016e-08
-4.7388212e-08
1.1749299e-05
1.3275183e-08
-5.008502e-08
1.1816814e-05
1.6657633e-08
-5.1405457e-08
1.1877335e-05
2.12246e-08
-5.1883865e-08
1.1929324e-05
2.8257683e-08
-5.2238845e-08
1.1970491e-05
3.952179e-08
-5.3492423e-08
1.1997673e-05
5.7608123e-08
-5.7249663e-08
1.2006737e-05
8.7053253e-08
-6.6260997e-08
1.199494e-05
1.3428288e-07
-8.5389681e-08
2.06115e-07
-1.2316593e-07
9.3996305e-06
-1.1920994e-07
8.6245688e-09
9.5464982e-06
-1.2563848e-07
1.6870227e-08
9.6896967e-06
-1.1636506e-07
2.3067476e-08
9.8321322e-06
-1.1252125e-07
2.7326781e-08
9.9734732e-06
-1.0943676e-07
3.0297127e-08
1.0111537e-05
-1.0490983e-07
3.241038e-08
1.0245069e-05
-9.9866463e-08
3.3839524e-08
1.0373602e-05
-9.5088413e-08
3.468739e-08
1.0496838e-05
-9.0811005e-08
3.5041624e-08
1.061437e-05
-8.7141915e-08
3.4933261e-08
1.0725553e-05
-8.4193832e-08
3.4283648e-08
1.0829509e-05
-8.195585e-08
3.2832085e-08
1.0925871e-05
-8.0008164e-08
3.0051239e-08
1.1017774e-05
-7.7139513e-08
2.4972953e-08
1.1107751e-05
-7.2438881e-08
1.7441427e-08
1.1196183e-05
-6.6946498e-08
8.1747891e-09
1.1283296e-05
-6.1535198e-08
-1.7311393e-09
1.1370446e-05
-5.5633744e-08
-1.5444306e-08
1.145646e-05
-5.0060194e-08
-2.8786895e-08
1.1541112e-05
-4.4920821e-08
-4.2438031e-08
1.1623967e-05
-4.0205973e-08
-5.6143444e-08
1.170476e-05
-3.5769236e-08
-6.9769103e-08
1.1783492e-05
-3.1274396e-08
-8.3314221e-08
1.1860456e-05
-2.6143169e-08
-9.6915802e-08
1.1936137e-05
-1.938859e-08
-1.1087184e-07
1.2010911e-05
-9.1495474e-09
-1.2561165e-07
1.208478e-05
7.3154516e-09
-1.4176986e-07
1.2159254e-05
3.3602832e-08
-1.6059971e-07
1.2242267e-05
7.1010967e-08
-1.8368413e-07
1.1989845e-07
-2.1165835e-07
9.1608739e-06
8.3505365e-09
9.0558003e-06
1.622533e-08
8.9652949e-06
2.1999786e-08
8.8814071e-06
2.5760865e-08
8.8022877e-06
2.8152538e-08
8.7286774e-06
2.9617668e-08
8.6604653e-06
3.0339164e-08
8.596884e-06
3.0425312e-08
8.5370651e-06
2.9964487e-08
8.4801193e-06
2.8984475e-08
8.4250951e-06
2.740802e-08
8.371098e-06
2.5018538e-08
8.3177203e-06
2.1437952e-08
8.2658621e-06
1.6177907e-08
8.2172688e-06
9.0699097e-09
8.1716944e-06
1.1735572e-09
8.1308016e-06
-1.0240222e-08
8.0938848e-06
-2.1545039e-08
8.0604694e-06
-3.2717849e-08
8.0297668e-06
-4.3908524e-08
8.0014828e-06
-5.5432767e-08
7.9755299e-06
-6.7425842e-08
7.9521957e-06
-7.9951693e-08
7.932301e-06
-9.3124397e-08
7.91774e-06
-1.071909e-07
7.9128116e-06
-1.2266117e-07
7.9253417e-06
-1.4021941e-07
7.9665353e-06
-1.6002418e-07
8.0483159e-06
-1.8175654e-07
-2.0299236e-07
9.1581157e-06
1.1920571e-07
4.1492636e-14
9.0487004e-06
1.2564467e-07
1.7455406e-14
8.9544219e-06
1.1628673e-07
1.1713176e-14
8.8679282e-06
1.1227171e-07
1.1953069e-14
8.7871771e-06
1.089381e-07
5.6877619e-15
8.7128295e-06
1.0403469e-07
2.8817133e-16
8.6449149e-06
9.8393243e-08
-8.0696572e-15
8.5829908e-06
9.2629734e-08
4.4804969e-15
8.5268683e-06
8.6651711e-08
-1.655518e-14
8.4770934e-06
7.9903239e-08
-1.3229287e-14
8.4357906e-06
7.1053033e-08
-5.8519311e-14
8.4087422e-06
5.6953482e-08
-8.7318963e-14
8.4070548e-06
3.3778346e-08
-6.5067797e-14
8.3990766e-06
5.0281964e-08
-8.858341e-14
8.3861079e-06
7.4332163e-08
1.544956e-14
8.3653066e-06
1.0797581e-07
1.4851753e-13
8.3331118e-06
1.4929266e-07
5.1532486e-13
8.2947844e-06
1.8559686e-07
8.605733e-13
8.2520209e-06
2.1807442e-07
1.2759098e-12
8.2058676e-06
2.4674648e-07
1.6236146e-12
8.1569641e-06
2.7192884e-07
2.0363999e-12
8.1053354e-06
2.941869e-07
2.3638104e-12
8.0502383e-06
3.1416354e-07
2.7301199e-12
7.9899244e-06
3.3259423e-07
2.9379705e-12
7.9211509e-06
3.5041187e-07
3.2388178e-12
7.8382228e-06
3.6895723e-07
3.3378305e-12
7.7311097e-06
3.9040937e-07
3.3669117e-12
7.5817347e-06
4.1864281e-07
3.2464693e-12
7.3570034e-06
4.6054693e-07
2.7763208e-12
5.3366049e-07
1.7581317e-12
9.3968146e-06
-2.2843695e-11
4.1549086e-14
9.5393815e-06
-5.008618e-11
1.2850626e-14
9.6788349e-06
-9.5209993e-11
7.6209403e-15
9.8186159e-06
-1.7432394e-10
2.6444095e-15
9.9581813e-06
-3.1386699e-10
-4.6051254e-16
1.0095219e-05
-5.6014057e-10
-1.133689e-14
1.0228509e-05
-9.935778e-10
-1.5466746e-14
1.0357702e-05
-1.7516319e-09
-1.2514458e-14
1.0482696e-05
-3.0629612e-09
-1.8129396e-14
1.0603249e-05
-5.2832767e-09
-1.9173503e-14
1.0718168e-05
-8.8634165e-09
-2.3812362e-14
1.0822692e-05
-1.3835657e-08
5.0443488e-15
1.0905189e-05
-1.8701046e-08
9.5853821e-15
1.09896e-05
-1.273153e-08
3.8013707e-14
1.1068584e-05
5.6311038e-09
-6.2132691e-14
1.1143572e-05
3.177362e-08
-1.7384776e-13
1.1214093e-05
6.2774e-08
-3.1797681e-13
1.1275806e-05
9.6489313e-08
-3.9225808e-13
1.1328196e-05
1.2939711e-07
-4.609106e-13
1.137084e-05
1.6129445e-07
-4.773172e-13
1.140325e-05
1.9226293e-07
-5.3499233e-13
1.1425165e-05
2.2233885e-07
-4.7126437e-13
1.14362e-05
2.5189208e-07
-4.4919347e-13
1.1435407e-05
2.8168654e-07
-4.2530103e-13
1.1420777e-05
3.1299937e-07
-4.2820664e-13
1.1388511e-05
3.4793621e-07
-4.2652871e-13
1.1331819e-05
3.9006496e-07
-4.7145453e-13
1.1238788e-05
4.4563074e-07
-6.1502077e-13
1.1088436e-05
5.2573208e-07
-9.2201003e-13
6.4946602e-07
-1.5534714e-12
9.3967896e-06
-1.1923566e-07
3.9609831e-14
9.5393191e-06
-1.2570929e-07
1.2365766e-14
9.6786986e-06
-1.1640726e-07
7.2714073e-15
9.8183405e-06
-1.124895e-07
3.7741178e-17
9.9576498e-06
-1.09326e-07
-6.4595784e-15
1.0094222e-05
-1.047218e-07
-1.0466037e-14
1.0226677e-05
-9.9609207e-08
-1.6952445e-14
1.0354399e-05
-9.4786138e-08
-1.1035244e-14
1.047688e-05
-9.0502076e-08
-2.5492772e-14
1.0593406e-05
-8.6876626e-08
-1.7190036e-14
1.0702829e-05
-8.4002201e-08
-2.1703903e-14
1.0803549e-05
-8.1724243e-08
4.2098842e-15
1.0894073e-05
-7.9173564e-08
2.8405553e-14
1.0979994e-05
-7.3679498e-08
2.1594134e-14
1.1066145e-05
-6.3077752e-08
-2.0568035e-14
1.1154965e-05
-4.8870453e-08
-9.41135e-14
1.1247857e-05
-3.1847604e-08
-1.669805e-13
1.1342096e-05
-1.3189629e-08
-2.2181423e-13
1.1435632e-05
7.0808114e-09
-3.2383725e-13
1.1525915e-05
2.8585301e-08
-4.4301151e-13
1.1611902e-05
5.0148536e-08
-5.1007198e-13
1.1692838e-05
7.1656293e-08
-5.8317798e-13
1.1767964e-05
9.3482475e-08
-6.7894289e-13
1.183645e-05
1.1632238e-07
-7.921014e-13
1.1897293e-05
1.41331e-07
-1.0338272e-12
1.1949259e-05
1.7041554e-07
-1.1737708e-12
1.1991046e-05
2.0657422e-07
-1.4016736e-12
1.2021918e-05
2.5423724e-07
-1.6429439e-12
1.2044571e-05
3.1948498e-07
-1.9982375e-12
4.0863699e-07
-2.4392675e-12
9.1580587e-06
3.8109713e-14
9.0485748e-06
1.3654552e-14
8.9541673e-06
6.5780344e-15
8.8674386e-06
7.2767183e-16
8.7862652e-06
1.6550814e-15
8.7111611e-06
-6.2723182e-15
8.641891e-06
-3.9456368e-15
8.5775302e-06
-1.629169e-14
8.5169926e-06
-1.4739441e-14
8.4591005e-06
-4.6226289e-14
8.4025064e-06
-5.3656561e-14
8.3458007e-06
-6.5235149e-14
8.2880652e-06
-7.4462375e-14
8.2305637e-06
-9.7837789e-14
8.1765561e-06
-1.5152815e-13
8.1288594e-06
-2.3143207e-13
8.086772e-06
-3.5662382e-13
8.052038e-06
-4.6249449e-13
8.026402e-06
-6.4406357e-13
8.0110804e-06
-8.6099501e-13
8.0057986e-06
-1.0870406e-12
8.0100326e-06
-1.3407077e-12
8.0235685e-06
-1.5870902e-12
8.0467734e-06
-1.79056e-12
8.0809229e-06
-2.0629858e-12
8.1286896e-06
-2.2325667e-12
8.1950604e-06
-2.4172645e-12
8.2892942e-06
-2.6360236e-12
8.4270492e-06
-2.8819811e-12
-3.0920256e-12
9.1581157e-06
1.192057e-07
-8.3521397e-09
9.0487004e-06
1.2564467e-07
-1.6229341e-08
8.9544219e-06
1.1628673e-07
-2.2008208e-08
8.8679282e-06
1.122717e-07
-2.5777996e-08
8.7871771e-06
1.0893811e-07
-2.8187063e-08
8.7128295e-06
1.0403469e-07
-2.9687089e-08
8.6449149e-06
9.8393244e-08
-3.0478636e-08
8.5829908e-06
9.2629736e-08
-3.0705624e-08
8.5268683e-06
8.6651717e-08
-3.0529134e-08
8.4770934e-06
7.990324e-08
-3.0128331e-08
8.4357905e-06
7.1053062e-08
-2.9750088e-08
8.4087421e-06
5.6953463e-08
-2.9904667e-08
8.4070549e-06
3.3778254e-08
-3.2084921e-08
8.3990768e-06
5.0281945e-08
-4.2131153e-08
8.3861083e-06
7.4332269e-08
-6.1044877e-08
8.3653071e-06
1.0797638e-07
-8.6735027e-08
8.3331123e-06
1.4929378e-07
-1.1656964e-07
8.2947849e-06
1.8559851e-07
-1.4669818e-07
8.2520215e-06
2.1807653e-07
-1.7472866e-07
8.2058681e-06
2.4674914e-07
-2.0002126e-07
8.1569646e-06
2.7193189e-07
-2.2247745e-07
8.1053357e-06
2.9419051e-07
-2.4204197e-07
8.0502386e-06
3.1416745e-07
-2.5858562e-07
7.9899245e-06
3.3259856e-07
-2.7183562e-07
7.9211509e-06
3.5041629e-07
-2.8122899e-07
7.8382223e-06
3.6896219e-07
-2.8565325e-07
7.7311083e-06
3.9041467e-07
-2.8295174e-07
7.5817319e-06
4.186484e-07
-2.6895186e-07
7.3569981e-06
4.605528e-07
-2.3552527e-07
5.3366682e-07
-1.7112796e-07
9.3968146e-06
-2.2846859e-11
-8.6252919e-09
9.5393815e-06
-5.0084106e-11
-1.6872125e-08
9.6788349e-06
-9.5214632e-11
-2.3071476e-08
9.8186159e-06
-1.7432509e-10
-2.73349e-08
9.9581813e-06
-3.1386974e-10
-3.0313424e-08
1.0095219e-05
-5.6014562e-10
-3.2442819e-08
1.0228509e-05
-9.93573e-10
-3.3903514e-08
1.0357703e-05
-1.75165e-09
-3.4811946e-08
1.0482696e-05
-3.0629386e-09
-3.5278828e-08
1.0603249e-05
-5.283294e-09
-3.5366319e-08
1.0718168e-05
-8.86338e-09
-3.5002815e-08
1.0822692e-05
-1.3835672e-08
-3.3735082e-08
1.0905189e-05
-1.870106e-08
-3.0016789e-08
1.09896e-05
-1.2731523e-08
-2.1393505e-08
1.1068583e-05
5.6311843e-09
-1.0270765e-08
1.1143571e-05
3.1773967e-08
1.2389685e-09
1.1214092e-05
6.2774662e-08
1.6041053e-08
1.1275804e-05
9.6490407e-08
2.7459513e-08
1.1328194e-05
1.2939871e-07
3.6374273e-08
1.1370837e-05
1.6129656e-07
4.2919069e-08
1.1403247e-05
1.9226556e-07
4.7388296e-08
1.1425161e-05
2.2234204e-07
5.0085188e-08
1.1436195e-05
2.5189581e-07
5.1405633e-08
1.1435401e-05
2.8169077e-07
5.1884094e-08
1.142077e-05
3.1300397e-07
5.2239091e-08
1.1388502e-05
3.4794146e-07
5.3492609e-08
1.1331809e-05
3.9007072e-07
5.7249809e-08
1.1238776e-05
4.4563699e-07
6.6261056e-08
1.1088421e-05
5.25739e-07
8.538962e-08
6.4947402e-07
1.2316574e-07
9.3967896e-06
-1.1923566e-07
-8.6244916e-09
9.5393191e-06
-1.257093e-07
-1.6870208e-08
9.6786986e-06
-1.1640726e-07
-2.3067469e-08
9.8183405e-06
-1.124895e-07
-2.7326779e-08
9.9576498e-06
-1.09326e-07
-3.0297135e-08
1.0094222e-05
-1.047218e-07
-3.2410401e-08
1.0226677e-05
-9.9609198e-08
-3.3839555e-08
1.0354399e-05
-9.4786165e-08
-3.4687422e-08
1.047688e-05
-9.0502058e-08
-3.5041668e-08
1.0593406e-05
-8.6876668e-08
-3.4933304e-08
1.0702829e-05
-8.4002174e-08
-3.4283674e-08
1.0803549e-05
-8.172424e-08
-3.2832074e-08
1.0894073e-05
-7.9173533e-08
-3.0051163e-08
1.0979994e-05
-7.3679511e-08
-2.4972838e-08
1.1066144e-05
-6.3077724e-08
-1.7441308e-08
1.1154964e-05
-4.8870368e-08
-8.1746854e-09
1.1247857e-05
-3.1847349e-08
1.7312419e-09
1.1342096e-05
-1.3189111e-08
1.5444485e-08
1.1435632e-05
7.0816129e-09
2.87871e-08
1.1525914e-05
2.8586438e-08
4.2438218e-08
1.1611902e-05
5.0150089e-08
5.6143689e-08
1.1692837e-05
7.1658156e-08
6.9769414e-08
1.1767962e-05
9.3484871e-08
8.331456e-08
1.1836448e-05
1.1632506e-07
9.6916154e-08
1.1897291e-05
1.4133401e-07
1.1087198e-07
1.1949256e-05
1.704189e-07
1.2561168e-07
1.1991043e-05
2.0657801e-07
1.4176976e-07
1.2021914e-05
2.5424143e-07
1.605995e-07
1.2044565e-05
3.1948979e-07
1.8368377e-07
4.0864274e-07
2.1165793e-07
9.1580588e-06
-8.3504605e-09
9.0485748e-06
-1.6225307e-08
8.9541673e-06
-2.199977e-08
8.8674386e-06
-2.5760853e-08
8.7862652e-06
-2.8152534e-08
8.711161e-06
-2.9617675e-08
8.641891e-06
-3.0339174e-08
8.5775302e-06
-3.0425342e-08
8.5169926e-06
-2.9964527e-08
8.4591005e-06
-2.8984545e-08
8.4025063e-06
-2.7408108e-08
8.3458007e-06
-2.5018641e-08
8.2880651e-06
-2.1438065e-08
8.2305636e-06
-1.6178037e-08
8.1765558e-06
-9.0700872e-09
8.1288591e-06
-1.1738122e-09
8.0867716e-06
1.0239817e-08
8.0520377e-06
2.1544536e-08
8.0264019e-06
3.2717135e-08
8.0110807e-06
4.390757e-08
8.0057995e-06
5.5431592e-08
8.0100341e-06
6.7424448e-08
8.0235707e-06
7.9950124e-08
8.0467765e-06
9.3122683e-08
8.0809268e-06
1.0718898e-07
8.1286942e-06
1.2265928e-07
8.1950659e-06
1.4021756e-07
8.2893004e-06
1.6002236e-07
8.4270562e-06
1.8175474e-07
2.0299066e-07
9.1609285e-06
1.1918158e-07
-1.9493007e-08
9.055918e-06
1.2557752e-07
-3.6796383e-08
8.9655302e-06
1.1625201e-07
-4.787243e-08
8.8818542e-06
1.1231846e-07
-5.4420481e-08
8.8031108e-06
1.0907862e-07
-5.8522257e-08
8.7301635e-06
1.0428158e-07
-6.1021397e-08
8.6631179e-06
9.8767417e-08
-6.2200499e-08
8.6015876e-06
9.3166205e-08
-6.2341537e-08
8.5453828e-06
8.7438708e-08
-6.176299e-08
8.4948464e-06
8.1175561e-08
-6.0767435e-08
8.4513384e-06
7.3462111e-08
-5.9704055e-08
8.4184048e-06
6.2202685e-08
-5.9173511e-08
8.4026643e-06
4.4239458e-08
-6.0579688e-08
8.3857862e-06
4.312025e-08
-6.8256963e-08
8.3664808e-06
4.2657383e-08
-8.4182049e-08
8.3423494e-06
4.4595396e-08
-1.0690379e-07
8.3121326e-06
4.7822602e-08
-1.3382186e-07
8.2771619e-06
5.0812332e-08
-1.6215255e-07
8.2389004e-06
5.3284102e-08
-1.8935194e-07
8.1986453e-06
5.4806175e-08
-2.1417666e-07
8.1570006e-06
5.5628007e-08
-2.3607989e-07
8.1141389e-06
5.607031e-08
-2.548909e-07
8.0697732e-06
5.6549939e-08
-2.704348e-07
8.0230075e-06
5.7626185e-08
-2.823865e-07
7.9721335e-06
6.006061e-08
-2.9013116e-07
7.9143586e-06
6.4939843e-08
-2.9255776e-07
7.8453888e-06
7.397068e-08
-2.8771436e-07
7.758671e-06
9.0199105e-08
-2.7221504e-07
7.6441615e-06
1.1938819e-07
-2.4020385e-07
1.7633457e-07
-1.8336869e-07
9.3996543e-06
-2.1638478e-11
-2.0115647e-08
9.5465566e-06