/*--------------------------------*- C++ -*----------------------------------*\
| =========                 |                                                 |
| \\      /  F ield         | OpenFOAM: The Open Source CFD Toolbox           |
|  \\    /   O peration     | Version:  2412                                  |
|   \\  /    A nd           | Website:  www.openfoam.com                      |
|    \\/     M anipulation  |                                                 |
\*---------------------------------------------------------------------------*/
FoamFile
{
    version     2.0;
    format      ascii;
    arch        "LSB;label=32;scalar=64";
    class       volScalarField;
    location    "20/topAir";
    object      rho;
}
// * * * * * * * * * * * * * * * * * * * * * * * * * * * * * * * * * * * * * //

dimensions      [1 -3 0 0 0 0 0];

internalField   nonuniform List<scalar> 
1200
(
1.1586212
1.1586212
1.1586212
1.1586211
1.1586211
1.1586211
1.1586211
1.1586211
1.1586211
1.1586211
1.158621
1.1586205
1.1586097
1.1583342
1.1580939
1.1579007
1.1577631
1.1576825
1.1576538
1.1576675
1.157711
1.157772
1.157841
1.1579114
1.1579791
1.1580418
1.1580987
1.1581495
1.1581943
1.1582322
1.1586201
1.1586201
1.1586201
1.1586201
1.1586201
1.1586201
1.1586201
1.1586201
1.1586201
1.1586201
1.1586201
1.15862
1.1586195
1.1586114
1.1585976
1.15858
1.1585606
1.1585412
1.1585232
1.1585068
1.1584922
1.1584799
1.1584698
1.1584618
1.1584558
1.1584514
1.1584484
1.1584466
1.1584456
1.1584452
1.158619
1.158619
1.158619
1.158619
1.158619
1.158619
1.158619
1.158619
1.158619
1.158619
1.158619
1.158619
1.158619
1.1586187
1.1586182
1.1586174
1.1586161
1.1586145
1.1586125
1.1586103
1.1586078
1.1586052
1.1586026
1.1585998
1.1585971
1.1585943
1.1585917
1.1585891
1.1585865
1.1585841
1.158618
1.158618
1.158618
1.158618
1.158618
1.158618
1.1586179
1.1586179
1.1586179
1.1586179
1.1586179
1.1586179
1.1586179
1.1586179
1.1586179
1.1586178
1.1586177
1.1586176
1.1586174
1.1586171
1.1586167
1.1586163
1.1586158
1.1586152
1.1586145
1.1586138
1.158613
1.1586121
1.1586112
1.1586103
1.1586212
1.1586212
1.1586212
1.1586211
1.1586211
1.1586211
1.1586211
1.1586211
1.1586211
1.158621
1.1586209
1.1586203
1.1586048
1.1581449
1.1577401
1.1574108
1.1571731
1.1570319
1.1569772
1.1569892
1.1570481
1.1571347
1.1572346
1.1573384
1.15744
1.1575363
1.1576255
1.1577068
1.1577799
1.1578429
1.1586201
1.1586201
1.1586201
1.1586201
1.1586201
1.1586201
1.1586201
1.1586201
1.1586201
1.1586201
1.1586201
1.15862
1.1586193
1.1586077
1.1585878
1.1585622
1.1585338
1.1585052
1.1584782
1.1584539
1.1584318
1.1584123
1.1583955
1.1583813
1.1583695
1.1583599
1.1583521
1.1583456
1.1583398
1.1583342
1.158619
1.158619
1.158619
1.158619
1.158619
1.158619
1.158619
1.158619
1.158619
1.158619
1.158619
1.158619
1.158619
1.1586187
1.1586181
1.158617
1.1586155
1.1586135
1.158611
1.1586083
1.1586052
1.1586019
1.1585985
1.1585949
1.1585911
1.1585873
1.1585834
1.1585794
1.1585752
1.158571
1.158618
1.158618
1.158618
1.158618
1.158618
1.158618
1.1586179
1.1586179
1.1586179
1.1586179
1.1586179
1.1586179
1.1586179
1.1586179
1.1586179
1.1586178
1.1586177
1.1586176
1.1586174
1.1586171
1.1586167
1.1586163
1.1586157
1.1586151
1.1586143
1.1586134
1.1586125
1.1586113
1.15861
1.1586086
1.1586212
1.1586212
1.1586212
1.1586211
1.1586211
1.1586211
1.1586211
1.1586211
1.158621
1.1586209
1.1586207
1.1586192
1.1585844
1.1575343
1.156612
1.1558645
1.1553376
1.1550525
1.1549732
1.1550429
1.1552059
1.1554181
1.1556497
1.1558822
1.156105
1.1563127
1.1565025
1.1566734
1.1568248
1.156953
1.1586201
1.1586201
1.1586201
1.1586201
1.1586201
1.1586201
1.1586201
1.1586201
1.1586201
1.1586201
1.1586201
1.15862
1.1586185
1.1585932
1.1585498
1.1584942
1.1584326
1.1583707
1.1583126
1.1582587
1.1582096
1.1581657
1.1581272
1.1580938
1.1580649
1.1580398
1.1580175
1.1579967
1.157976
1.1579544
1.158619
1.158619
1.158619
1.158619
1.158619
1.158619
1.158619
1.158619
1.158619
1.158619
1.158619
1.158619
1.1586189
1.1586184
1.1586171
1.1586148
1.1586115
1.1586073
1.1586021
1.1585961
1.1585894
1.158582
1.158574
1.1585653
1.1585561
1.1585463
1.1585358
1.1585243
1.1585117
1.1584978
1.158618
1.158618
1.158618
1.158618
1.158618
1.158618
1.1586179
1.1586179
1.1586179
1.1586179
1.1586179
1.1586179
1.1586179
1.1586179
1.1586178
1.1586177
1.1586175
1.1586172
1.1586168
1.1586162
1.1586154
1.1586144
1.1586132
1.1586117
1.1586098
1.1586076
1.1586049
1.1586017
1.1585978
1.1585931
1.1586212
1.1586212
1.1586211
1.1586211
1.1586211
1.1586211
1.1586211
1.158621
1.1586209
1.1586207
1.1586202
1.1586168
1.1585384
1.1561896
1.1541159
1.152422
1.1512455
1.1507116
1.1506621
1.1509164
1.1513367
1.1518321
1.1523477
1.1528527
1.153331
1.1537752
1.1541822
1.1545511
1.1548812
1.1551634
1.1586201
1.1586201
1.1586201
1.1586201
1.1586201
1.1586201
1.1586201
1.1586201
1.1586201
1.1586201
1.15862
1.1586199
1.1586166
1.1585607
1.1584613
1.1583275
1.1581701
1.1580034
1.1578388
1.1576839
1.1575426
1.1574166
1.1573058
1.1572095
1.1571264
1.1570545
1.1569918
1.1569351
1.1568805
1.1568229
1.158619
1.158619
1.158619
1.158619
1.158619
1.158619
1.158619
1.158619
1.158619
1.158619
1.158619
1.158619
1.1586189
1.1586177
1.1586147
1.1586094
1.1586013
1.1585903
1.1585761
1.1585587
1.1585384
1.1585152
1.1584891
1.1584602
1.1584283
1.1583929
1.1583533
1.1583082
1.1582556
1.1581941
1.158618
1.158618
1.158618
1.158618
1.158618
1.158618
1.1586179
1.1586179
1.1586179
1.1586179
1.1586179
1.1586179
1.1586179
1.1586179
1.1586178
1.1586175
1.158617
1.1586163
1.1586151
1.1586135
1.1586112
1.1586082
1.1586043
1.1585994
1.1585932
1.1585855
1.1585758
1.158563
1.1585463
1.1585254
1.1586212
1.1586212
1.1586211
1.1586211
1.1586211
1.1586211
1.1586211
1.158621
1.1586208
1.1586205
1.1586195
1.1586129
1.1584536
1.1536596
1.1494207
1.1458949
1.1434295
1.1428061
1.1431365
1.1439383
1.144946
1.1460145
1.147067
1.1480652
1.1489923
1.1498427
1.1506167
1.1513167
1.1519445
1.1524855
1.1586201
1.1586201
1.1586201
1.1586201
1.1586201
1.1586201
1.1586201
1.1586201
1.1586201
1.1586201
1.15862
1.1586197
1.158613
1.1584959
1.1582691
1.1579325
1.1575
1.1570336
1.1565737
1.1561456
1.1557633
1.1554332
1.1551565
1.1549312
1.1547536
1.1546189
1.1545217
1.1544565
1.1544172
1.1543962
1.158619
1.158619
1.158619
1.158619
1.158619
1.158619
1.158619
1.158619
1.158619
1.158619
1.158619
1.158619
1.1586188
1.1586164
1.1586096
1.1585954
1.15857
1.158531
1.1584772
1.1584089
1.1583271
1.1582334
1.1581296
1.1580175
1.1578989
1.1577748
1.1576453
1.1575093
1.1573636
1.157206
1.158618
1.158618
1.158618
1.158618
1.158618
1.158618
1.1586179
1.1586179
1.1586179
1.1586179
1.1586179
1.1586179
1.1586179
1.1586178
1.1586176
1.158617
1.1586157
1.1586135
1.1586099
1.1586041
1.1585956
1.1585836
1.1585677
1.1585473
1.1585218
1.1584905
1.1584524
1.1584059
1.1583486
1.1582799
1.1586212
1.1586212
1.1586211
1.1586211
1.1586211
1.1586211
1.1586211
1.158621
1.1586208
1.1586205
1.1586195
1.1586129
1.1584536
1.1536596
1.1494207
1.1458948
1.1434294
1.142806
1.1431363
1.1439382
1.1449459
1.1460144
1.1470669
1.1480651
1.1489922
1.1498426
1.1506167
1.1513166
1.1519444
1.1524855
1.1586201
1.1586201
1.1586201
1.1586201
1.1586201
1.1586201
1.1586201
1.1586201
1.1586201
1.1586201
1.15862
1.1586197
1.158613
1.1584959
1.1582691
1.1579325
1.1575
1.1570336
1.1565737
1.1561455
1.1557633
1.1554332
1.1551564
1.1549311
1.1547535
1.1546188
1.1545217
1.1544564
1.1544171
1.1543962
1.158619
1.158619
1.158619
1.158619
1.158619
1.158619
1.158619
1.158619
1.158619
1.158619
1.158619
1.158619
1.1586188
1.1586164
1.1586096
1.1585954
1.15857
1.158531
1.1584772
1.1584089
1.1583271
1.1582334
1.1581296
1.1580175
1.1578989
1.1577748
1.1576453
1.1575093
1.1573636
1.157206
1.158618
1.158618
1.158618
1.158618
1.158618
1.158618
1.1586179
1.1586179
1.1586179
1.1586179
1.1586179
1.1586179
1.1586179
1.1586178
1.1586176
1.158617
1.1586157
1.1586135
1.1586099
1.1586041
1.1585956
1.1585836
1.1585677
1.1585473
1.1585218
1.1584905
1.1584524
1.1584059
1.1583486
1.1582799
1.1586212
1.1586212
1.1586211
1.1586211
1.1586211
1.1586211
1.1586211
1.158621
1.1586209
1.1586207
1.1586202
1.1586168
1.1585384
1.1561896
1.1541159
1.152422
1.1512454
1.1507115
1.150662
1.1509163
1.1513366
1.151832
1.1523476
1.1528526
1.1533309
1.1537751
1.1541821
1.154551
1.1548811
1.1551634
1.1586201
1.1586201
1.1586201
1.1586201
1.1586201
1.1586201
1.1586201
1.1586201
1.1586201
1.1586201
1.15862
1.1586199
1.1586166
1.1585607
1.1584613
1.1583275
1.1581701
1.1580034
1.1578388
1.1576839
1.1575426
1.1574166
1.1573058
1.1572095
1.1571263
1.1570545
1.1569917
1.1569351
1.1568805
1.1568228
1.158619
1.158619
1.158619
1.158619
1.158619
1.158619
1.158619
1.158619
1.158619
1.158619
1.158619
1.158619
1.1586189
1.1586177
1.1586147
1.1586094
1.1586013
1.1585903
1.1585761
1.1585587
1.1585384
1.1585152
1.1584891
1.1584602
1.1584283
1.1583929
1.1583533
1.1583082
1.1582556
1.1581941
1.158618
1.158618
1.158618
1.158618
1.158618
1.158618
1.1586179
1.1586179
1.1586179
1.1586179
1.1586179
1.1586179
1.1586179
1.1586179
1.1586178
1.1586175
1.158617
1.1586163
1.1586151
1.1586135
1.1586112
1.1586082
1.1586043
1.1585994
1.1585932
1.1585855
1.1585758
1.158563
1.1585463
1.1585254
1.1586212
1.1586212
1.1586212
1.1586211
1.1586211
1.1586211
1.1586211
1.1586211
1.158621
1.1586209
1.1586207
1.1586192
1.1585844
1.1575344
1.156612
1.1558645
1.1553375
1.1550525
1.1549732
1.1550428
1.1552058
1.155418
1.1556496
1.1558821
1.1561049
1.1563126
1.1565025
1.1566734
1.1568248
1.156953
1.1586201
1.1586201
1.1586201
1.1586201
1.1586201
1.1586201
1.1586201
1.1586201
1.1586201
1.1586201
1.1586201
1.15862
1.1586185
1.1585932
1.1585498
1.1584942
1.1584326
1.1583707
1.1583126
1.1582587
1.1582096
1.1581657
1.1581272
1.1580938
1.1580649
1.1580398
1.1580174
1.1579966
1.157976
1.1579544
1.158619
1.158619
1.158619
1.158619
1.158619
1.158619
1.158619
1.158619
1.158619
1.158619
1.158619
1.158619
1.1586189
1.1586184
1.1586171
1.1586148
1.1586115
1.1586073
1.1586021
1.1585961
1.1585894
1.158582
1.158574
1.1585653
1.1585561
1.1585463
1.1585358
1.1585243
1.1585117
1.1584978
1.158618
1.158618
1.158618
1.158618
1.158618
1.158618
1.1586179
1.1586179
1.1586179
1.1586179
1.1586179
1.1586179
1.1586179
1.1586179
1.1586178
1.1586177
1.1586175
1.1586172
1.1586168
1.1586162
1.1586154
1.1586144
1.1586132
1.1586117
1.1586098
1.1586076
1.1586049
1.1586017
1.1585978
1.1585931
1.1586212
1.1586212
1.1586212
1.1586211
1.1586211
1.1586211
1.1586211
1.1586211
1.1586211
1.158621
1.1586209
1.1586203
1.1586048
1.1581449
1.1577401
1.1574108
1.157173
1.1570318
1.1569771
1.1569891
1.1570481
1.1571346
1.1572346
1.1573383
1.15744
1.1575363
1.1576254
1.1577068
1.1577799
1.1578429
1.1586201
1.1586201
1.1586201
1.1586201
1.1586201
1.1586201
1.1586201
1.1586201
1.1586201
1.1586201
1.1586201
1.15862
1.1586193
1.1586077
1.1585878
1.1585622
1.1585338
1.1585052
1.1584782
1.1584539
1.1584318
1.1584123
1.1583955
1.1583813
1.1583695
1.1583599
1.1583521
1.1583456
1.1583397
1.1583342
1.158619
1.158619
1.158619
1.158619
1.158619
1.158619
1.158619
1.158619
1.158619
1.158619
1.158619
1.158619
1.158619
1.1586187
1.1586181
1.158617
1.1586155
1.1586135
1.158611
1.1586083
1.1586052
1.1586019
1.1585985
1.1585949
1.1585911
1.1585873
1.1585834
1.1585794
1.1585752
1.158571
1.158618
1.158618
1.158618
1.158618
1.158618
1.158618
1.1586179
1.1586179
1.1586179
1.1586179
1.1586179
1.1586179
1.1586179
1.1586179
1.1586179
1.1586178
1.1586177
1.1586176
1.1586174
1.1586171
1.1586167
1.1586163
1.1586157
1.1586151
1.1586143
1.1586134
1.1586125
1.1586113
1.15861
1.1586086
1.1586212
1.1586212
1.1586212
1.1586211
1.1586211
1.1586211
1.1586211
1.1586211
1.1586211
1.1586211
1.158621
1.1586205
1.1586097
1.1583342
1.1580939
1.1579007
1.1577631
1.1576824
1.1576538
1.1576674
1.1577109
1.1577719
1.157841
1.1579114
1.1579791
1.1580418
1.1580986
1.1581494
1.1581943
1.1582322
1.1586201
1.1586201
1.1586201
1.1586201
1.1586201
1.1586201
1.1586201
1.1586201
1.1586201
1.1586201
1.1586201
1.15862
1.1586195
1.1586114
1.1585976
1.15858
1.1585606
1.1585412
1.1585232
1.1585068
1.1584922
1.1584799
1.1584698
1.1584618
1.1584558
1.1584514
1.1584484
1.1584466
1.1584456
1.1584452
1.158619
1.158619
1.158619
1.158619
1.158619
1.158619
1.158619
1.158619
1.158619
1.158619
1.158619
1.158619
1.158619
1.1586187
1.1586182
1.1586174
1.1586161
1.1586145
1.1586125
1.1586103
1.1586078
1.1586052
1.1586026
1.1585998
1.1585971
1.1585943
1.1585917
1.1585891
1.1585865
1.1585841
1.158618
1.158618
1.158618
1.158618
1.158618
1.158618
1.1586179
1.1586179
1.1586179
1.1586179
1.1586179
1.1586179
1.1586179
1.1586179
1.1586179
1.1586178
1.1586177
1.1586176
1.1586174
1.1586171
1.1586167
1.1586163
1.1586158
1.1586152
1.1586145
1.1586138
1.158613
1.1586121
1.1586112
1.1586103
)
;

boundaryField
{
    maxY
    {
        type            calculated;
        value           nonuniform List<scalar> 
300
(
1.1586175
1.1586175
1.1586175
1.1586175
1.1586175
1.1586175
1.1586175
1.1586175
1.1586175
1.1586175
1.1586175
1.1586175
1.1586175
1.1586175
1.1586175
1.1586175
1.1586175
1.1586175
1.1586175
1.1586175
1.1586174
1.1586174
1.1586174
1.1586174
1.1586174
1.1586174
1.1586174
1.1586174
1.1586174
1.1586174
1.1586174
1.1586174
1.1586174
1.1586174
1.1586174
1.1586174
1.1586174
1.1586174
1.1586174
1.1586174
1.1586174
1.1586174
1.1586174
1.1586174
1.1586174
1.1586174
1.1586174
1.1586174
1.1586174
1.1586174
1.1586174
1.1586174
1.1586174
1.1586174
1.1586174
1.1586174
1.1586174
1.1586174
1.1586174
1.1586174
1.1586174
1.1586174
1.1586174
1.1586174
1.1586174
1.1586174
1.1586174
1.1586174
1.1586174
1.1586174
1.1586174
1.1586174
1.1586174
1.1586174
1.1586174
1.1586174
1.1586174
1.1586174
1.1586174
1.1586174
1.1586174
1.1586174
1.1586174
1.1586174
1.1586174
1.1586174
1.1586174
1.1586174
1.1586174
1.1586174
1.1586174
1.1586174
1.1586174
1.1586174
1.1586174
1.1586174
1.1586174
1.1586174
1.1586174
1.1586174
1.1586174
1.1586174
1.1586174
1.1586174
1.1586174
1.1586174
1.1586174
1.1586174
1.1586174
1.1586174
1.1586174
1.1586174
1.1586174
1.1586174
1.1586174
1.1586174
1.1586174
1.1586174
1.1586174
1.1586174
1.1586174
1.1586174
1.1586174
1.1586174
1.1586174
1.1586174
1.1586174
1.1586174
1.1586174
1.1586174
1.1586174
1.1586174
1.1586174
1.1586173
1.1586173
1.1586173
1.1586173
1.1586174
1.1586174
1.1586174
1.1586173
1.1586173
1.1586173
1.1586172
1.1586171
1.1586171
1.1586172
1.1586173
1.1586173
1.1586173
1.1586173
1.1586173
1.1586172
1.158617
1.1586164
1.1586164
1.158617
1.1586172
1.1586173
1.1586173
1.1586172
1.1586172
1.158617
1.1586165
1.1586152
1.1586152
1.1586165
1.158617
1.1586172
1.1586172
1.158617
1.158617
1.1586167
1.1586158
1.158613
1.158613
1.1586158
1.1586167
1.158617
1.158617
1.1586168
1.1586168
1.1586163
1.1586146
1.1586094
1.1586094
1.1586146
1.1586163
1.1586168
1.1586168
1.1586166
1.1586166
1.1586157
1.158613
1.1586036
1.1586036
1.158613
1.1586157
1.1586165
1.1586166
1.1586162
1.1586162
1.1586149
1.1586107
1.1585951
1.1585951
1.1586107
1.1586149
1.1586162
1.1586162
1.1586158
1.1586157
1.1586139
1.1586077
1.1585831
1.1585831
1.1586077
1.1586139
1.1586157
1.1586158
1.1586153
1.1586152
1.1586127
1.1586038
1.1585672
1.1585672
1.1586038
1.1586127
1.1586152
1.1586153
1.1586147
1.1586145
1.1586111
1.1585989
1.1585468
1.1585468
1.1585989
1.1586111
1.1586145
1.1586147
1.158614
1.1586138
1.1586093
1.1585927
1.1585213
1.1585213
1.1585927
1.1586093
1.1586138
1.158614
1.1586133
1.1586129
1.1586071
1.1585849
1.15849
1.15849
1.1585849
1.1586071
1.1586129
1.1586133
1.1586125
1.1586119
1.1586044
1.1585752
1.1584519
1.1584519
1.1585752
1.1586044
1.1586119
1.1586125
1.1586116
1.1586108
1.1586012
1.1585625
1.1584054
1.1584053
1.1585625
1.1586012
1.1586108
1.1586116
1.1586107
1.1586095
1.1585973
1.1585458
1.1583481
1.1583481
1.1585458
1.1585973
1.1586095
1.1586107
1.1586098
1.1586081
1.1585926
1.1585249
1.1582794
1.1582794
1.1585249
1.1585926
1.1586081
1.1586098
)
;
    }
    minX
    {
        type            calculated;
        value           nonuniform List<scalar> 
40
(
1.1586212
1.1586201
1.158619
1.158618
1.1586212
1.1586201
1.158619
1.158618
1.1586212
1.1586201
1.158619
1.158618
1.1586212
1.1586201
1.158619
1.158618
1.1586211
1.1586201
1.158619
1.158618
1.1586211
1.1586201
1.158619
1.158618
1.1586212
1.1586201
1.158619
1.158618
1.1586212
1.1586201
1.158619
1.158618
1.1586212
1.1586201
1.158619
1.158618
1.1586212
1.1586201
1.158619
1.158618
)
;
    }
    maxX
    {
        type            calculated;
        value           nonuniform List<scalar> 
40
(
1.1582346
1.1584462
1.1585843
1.1586103
1.1578467
1.1583355
1.1585712
1.1586087
1.1569594
1.1579569
1.1584983
1.1585933
1.1551736
1.1568287
1.1581959
1.1585259
1.1525003
1.1544085
1.1572116
1.1582816
1.1525002
1.1544085
1.1572115
1.1582816
1.1551735
1.1568287
1.1581959
1.1585259
1.1569593
1.1579569
1.1584983
1.1585933
1.1578467
1.1583355
1.1585712
1.1586087
1.1582345
1.1584462
1.1585843
1.1586103
)
;
    }
    minZ
    {
        type            calculated;
        value           nonuniform List<scalar> 
120
(
1.1586212
1.1586201
1.158619
1.158618
1.1586212
1.1586201
1.158619
1.158618
1.1586212
1.1586201
1.158619
1.158618
1.1586211
1.1586201
1.158619
1.158618
1.1586211
1.1586201
1.158619
1.158618
1.1586211
1.1586201
1.158619
1.158618
1.1586211
1.1586201
1.158619
1.1586179
1.1586211
1.1586201
1.158619
1.1586179
1.1586211
1.1586201
1.158619
1.1586179
1.1586211
1.1586201
1.158619
1.1586179
1.158621
1.1586201
1.158619
1.1586179
1.1586205
1.15862
1.158619
1.1586179
1.1586097
1.1586195
1.158619
1.1586179
1.1583342
1.1586114
1.1586187
1.1586179
1.1580939
1.1585976
1.1586182
1.1586179
1.1579007
1.15858
1.1586174
1.1586178
1.1577631
1.1585606
1.1586161
1.1586177
1.1576825
1.1585412
1.1586145
1.1586176
1.1576538
1.1585232
1.1586125
1.1586174
1.1576675
1.1585068
1.1586103
1.1586171
1.157711
1.1584922
1.1586078
1.1586167
1.157772
1.1584799
1.1586052
1.1586163
1.157841
1.1584698
1.1586026
1.1586158
1.1579114
1.1584618
1.1585998
1.1586152
1.1579791
1.1584558
1.1585971
1.1586145
1.1580418
1.1584514
1.1585943
1.1586138
1.1580987
1.1584484
1.1585917
1.158613
1.1581495
1.1584466
1.1585891
1.1586121
1.1581943
1.1584456
1.1585865
1.1586112
1.1582322
1.1584452
1.1585841
1.1586103
)
;
    }
    maxZ
    {
        type            calculated;
        value           nonuniform List<scalar> 
120
(
1.1586212
1.1586201
1.158619
1.158618
1.1586212
1.1586201
1.158619
1.158618
1.1586212
1.1586201
1.158619
1.158618
1.1586211
1.1586201
1.158619
1.158618
1.1586211
1.1586201
1.158619
1.158618
1.1586211
1.1586201
1.158619
1.158618
1.1586211
1.1586201
1.158619
1.1586179
1.1586211
1.1586201
1.158619
1.1586179
1.1586211
1.1586201
1.158619
1.1586179
1.1586211
1.1586201
1.158619
1.1586179
1.158621
1.1586201
1.158619
1.1586179
1.1586205
1.15862
1.158619
1.1586179
1.1586097
1.1586195
1.158619
1.1586179
1.1583342
1.1586114
1.1586187
1.1586179
1.1580939
1.1585976
1.1586182
1.1586179
1.1579007
1.15858
1.1586174
1.1586178
1.1577631
1.1585606
1.1586161
1.1586177
1.1576824
1.1585412
1.1586145
1.1586176
1.1576538
1.1585232
1.1586125
1.1586174
1.1576674
1.1585068
1.1586103
1.1586171
1.1577109
1.1584922
1.1586078
1.1586167
1.1577719
1.1584799
1.1586052
1.1586163
1.157841
1.1584698
1.1586026
1.1586158
1.1579114
1.1584618
1.1585998
1.1586152
1.1579791
1.1584558
1.1585971
1.1586145
1.1580418
1.1584514
1.1585943
1.1586138
1.1580986
1.1584484
1.1585917
1.158613
1.1581494
1.1584466
1.1585891
1.1586121
1.1581943
1.1584456
1.1585865
1.1586112
1.1582322
1.1584452
1.1585841
1.1586103
)
;
    }
    topAir_to_rightSolid
    {
        type            calculated;
        value           nonuniform List<scalar> 
130
(
1.1559913
1.1567193
1.1573383
1.1578094
1.1581366
1.158347
1.1584734
1.1585449
1.1585833
1.1586029
1.1586125
1.1586169
1.1586185
1.1535288
1.1550561
1.156301
1.1572043
1.1578032
1.158172
1.1583854
1.1585023
1.1585632
1.1585935
1.158608
1.1586145
1.1586169
1.1473039
1.1510687
1.1539388
1.1558879
1.1571055
1.1578178
1.158212
1.1584199
1.1585248
1.1585757
1.1585994
1.1586098
1.1586137
1.1350949
1.1440413
1.1501404
1.1539242
1.1561257
1.1573435
1.1579883
1.1583165
1.1584774
1.1585536
1.1585885
1.1586037
1.1586094
1.1168602
1.1356097
1.1462242
1.1521063
1.1552863
1.1569592
1.157814
1.1582377
1.1584415
1.1585366
1.1585796
1.1585983
1.1586053
1.1168598
1.1356095
1.146224
1.1521062
1.1552863
1.1569592
1.157814
1.1582377
1.1584415
1.1585366
1.1585796
1.1585983
1.1586053
1.1350945
1.144041
1.1501402
1.1539241
1.1561257
1.1573435
1.1579883
1.1583165
1.1584774
1.1585536
1.1585885
1.1586037
1.1586094
1.1473034
1.1510683
1.1539386
1.1558878
1.1571055
1.1578177
1.158212
1.1584199
1.1585248
1.1585757
1.1585994
1.1586098
1.1586137
1.1535284
1.1550558
1.1563008
1.1572042
1.1578031
1.158172
1.1583854
1.1585023
1.1585632
1.1585935
1.158608
1.1586145
1.1586169
1.155991
1.156719
1.1573381
1.1578093
1.1581366
1.1583469
1.1584733
1.1585449
1.1585833
1.1586029
1.1586125
1.1586169
1.1586185
)
;
    }
    topAir_to_heater
    {
        type            calculated;
        value           nonuniform List<scalar> 
40
(
1.153855
1.1541016
1.1545797
1.1552444
1.1491014
1.1495817
1.1505417
1.1519269
1.1366566
1.1376783
1.1398344
1.1431786
1.1105841
1.1123911
1.1165976
1.1241124
1.0633716
1.0653829
1.0710699
1.0843564
1.0633714
1.0653823
1.0710691
1.0843555
1.1105844
1.1123908
1.1165969
1.1241114
1.1366568
1.1376781
1.1398339
1.1431778
1.1491016
1.1495816
1.1505414
1.1519264
1.1538552
1.1541015
1.1545795
1.155244
)
;
    }
    topAir_to_leftSolid
    {
        type            calculated;
        value           nonuniform List<scalar> 
130
(
1.1586217
1.1586217
1.1586217
1.1586217
1.1586216
1.1586216
1.1586216
1.1586215
1.1586213
1.1586211
1.1586207
1.1586204
1.15862
1.1586217
1.1586217
1.1586217
1.1586216
1.1586216
1.1586216
1.1586215
1.1586213
1.158621
1.1586205
1.1586197
1.1586187
1.1586178
1.1586217
1.1586217
1.1586217
1.1586216
1.1586216
1.1586215
1.1586213
1.1586209
1.1586202
1.158619
1.1586169
1.158614
1.1586107
1.1586217
1.1586217
1.1586217
1.1586216
1.1586215
1.1586214
1.1586211
1.1586204
1.158619
1.1586163
1.1586114
1.1586031
1.1585909
1.1586217
1.1586217
1.1586216
1.1586216
1.1586215
1.1586213
1.1586209
1.1586199
1.1586178
1.1586134
1.1586045
1.1585863
1.1585504
1.1586217
1.1586217
1.1586216
1.1586216
1.1586215
1.1586213
1.1586209
1.1586199
1.1586178
1.1586134
1.1586045
1.1585863
1.1585504
1.1586217
1.1586217
1.1586217
1.1586216
1.1586215
1.1586214
1.1586211
1.1586204
1.158619
1.1586163
1.1586114
1.1586031
1.1585909
1.1586217
1.1586217
1.1586217
1.1586216
1.1586216
1.1586215
1.1586213
1.1586209
1.1586202
1.158619
1.1586169
1.158614
1.1586107
1.1586217
1.1586217
1.1586217
1.1586216
1.1586216
1.1586216
1.1586215
1.1586213
1.158621
1.1586205
1.1586197
1.1586187
1.1586178
1.1586217
1.1586217
1.1586217
1.1586217
1.1586216
1.1586216
1.1586216
1.1586215
1.1586213
1.1586211
1.1586207
1.1586204
1.15862
)
;
    }
}


// ************************************************************************* //
