/*--------------------------------*- C++ -*----------------------------------*\
| =========                 |                                                 |
| \\      /  F ield         | OpenFOAM: The Open Source CFD Toolbox           |
|  \\    /   O peration     | Version:  2412                                  |
|   \\  /    A nd           | Website:  www.openfoam.com                      |
|    \\/     M anipulation  |                                                 |
\*---------------------------------------------------------------------------*/
FoamFile
{
    version     2.0;
    format      ascii;
    arch        "LSB;label=32;scalar=64";
    class       volScalarField;
    location    "20/topAir";
    object      T;
}
// * * * * * * * * * * * * * * * * * * * * * * * * * * * * * * * * * * * * * //

dimensions      [0 0 0 1 0 0 0];

internalField   nonuniform List<scalar> 
1200
(
300
300
300
300
300
300
300
300
300
300.00001
300.00003
300.00015
300.00296
300.0743
300.13657
300.18665
300.22233
300.24323
300.25067
300.24711
300.23584
300.22001
300.20211
300.18386
300.16632
300.15006
300.13532
300.12216
300.11053
300.10073
300
300
300
300
300
300
300
299.99999
299.99999
299.99999
300
300
300.00015
300.00224
300.00582
300.01037
300.01539
300.02041
300.02507
300.02933
300.0331
300.0363
300.03891
300.04097
300.04254
300.04367
300.04444
300.04492
300.04517
300.04527
300
300
300
300
300
300
300.00001
300.00001
300.00001
300.00001
300.00001
300.00001
300.00001
300.00007
300.0002
300.00042
300.00075
300.00117
300.00168
300.00225
300.00288
300.00356
300.00425
300.00496
300.00567
300.00638
300.00707
300.00774
300.0084
300.00901
300
300
300
300
300.00001
300.00001
300.00001
300.00001
300.00001
300.00001
300.00001
300.00001
300.00001
300.00001
300.00002
300.00003
300.00006
300.0001
300.00015
300.00022
300.00031
300.00042
300.00055
300.0007
300.00087
300.00106
300.00127
300.0015
300.00173
300.00197
300
300
300
300
300
300
300
300
300.00001
300.00002
300.00005
300.00021
300.00422
300.12335
300.22828
300.31372
300.37541
300.41206
300.42627
300.42315
300.40784
300.38536
300.35942
300.3325
300.30612
300.28114
300.25801
300.23692
300.21796
300.20162
300
300
300
300
300
299.99999
299.99999
299.99999
299.99999
299.99999
300
300.00001
300.00019
300.00319
300.00836
300.01498
300.02232
300.02974
300.03674
300.04303
300.04876
300.0538
300.05815
300.06182
300.06487
300.06737
300.06939
300.07107
300.07259
300.07403
300
300
300
300
300
300
300
300
300.00001
300.00001
300.00001
300.00001
300.00001
300.00008
300.00023
300.00051
300.00091
300.00143
300.00206
300.00277
300.00357
300.00442
300.00531
300.00624
300.00721
300.0082
300.00921
300.01025
300.01133
300.01243
300
300
300
300
300
300.00001
300.00001
300.00001
300.00001
300.00001
300.00001
300.00001
300.00001
300.00001
300.00002
300.00003
300.00006
300.0001
300.00015
300.00022
300.00032
300.00043
300.00057
300.00074
300.00093
300.00116
300.00142
300.00171
300.00204
300.00241
300
300
300
300
300
300
300
300.00001
300.00003
300.00006
300.00012
300.00049
300.00952
300.28166
300.52112
300.71546
300.85262
300.92686
300.94752
300.92937
300.88691
300.83164
300.77136
300.71087
300.65291
300.59891
300.54956
300.50515
300.46583
300.43252
300
300
300
300
300
299.99999
299.99999
299.99999
299.99999
300
300
300.00002
300.00041
300.00695
300.0182
300.03259
300.04854
300.06457
300.07964
300.09358
300.10632
300.11769
300.12766
300.13631
300.1438
300.15031
300.1561
300.16149
300.16684
300.17245
300
300
300
300
300
300
300
300
300.00001
300.00001
300.00001
300.00001
300.00002
300.00015
300.00049
300.00108
300.00193
300.00304
300.00437
300.00592
300.00766
300.00958
300.01166
300.01389
300.01627
300.01881
300.02154
300.0245
300.02778
300.03138
300
300
300
300
300
300.00001
300.00001
300.00001
300.00001
300.00001
300.00001
300.00001
300.00001
300.00002
300.00003
300.00006
300.00011
300.00018
300.0003
300.00045
300.00065
300.00091
300.00123
300.00162
300.0021
300.00267
300.00336
300.00419
300.00521
300.00641
300
300
300
300
300
300
300.00001
300.00002
300.00005
300.00011
300.00025
300.00111
300.02143
300.63092
301.17107
301.61376
301.92198
302.06207
302.07507
302.00832
301.89806
301.76821
301.63319
301.50107
301.37603
301.26001
301.15377
301.05755
300.9715
300.89797
300
300
300
300
300
300
299.99999
299.99999
300
300
300.00001
300.00005
300.00091
300.01537
300.04111
300.07576
300.11656
300.15975
300.20242
300.24258
300.27923
300.31194
300.34068
300.36567
300.38725
300.4059
300.4222
300.43691
300.45109
300.46605
300
300
300
300
300
300
300
300
300.00001
300.00001
300.00001
300.00001
300.00003
300.00033
300.0011
300.00249
300.00458
300.00744
300.01111
300.0156
300.02087
300.02688
300.03363
300.04111
300.04937
300.05854
300.06881
300.08049
300.09413
300.11004
300
300
300
300
300
300.00001
300.00001
300.00001
300.00001
300.00001
300.00001
300.00001
300.00001
300.00002
300.00005
300.00012
300.00023
300.00043
300.00073
300.00115
300.00173
300.00251
300.00352
300.0048
300.00641
300.0084
300.01092
300.01421
300.01854
300.02396
300
300
300
300
300
300
300.00001
300.00003
300.00007
300.00017
300.00041
300.00212
300.04337
301.2902
302.40131
303.33178
303.98579
304.15162
304.06372
303.8506
303.58316
303.30011
303.02182
302.75835
302.51407
302.29032
302.08697
301.90332
301.73878
301.59713
300
300
300
300
300
300
299.99999
300
300
300
300.00001
300.00011
300.00182
300.03214
300.0909
300.17813
300.29028
300.41133
300.53079
300.64208
300.74152
300.82744
300.8995
300.9582
301.00449
301.0396
301.06493
301.08194
301.0922
301.09766
300
300
300
300
300
300
300
300
300.00001
300.00001
300.00001
300.00001
300.00006
300.00069
300.00243
300.00612
300.01269
300.0228
300.03672
300.0544
300.07558
300.09987
300.12678
300.15581
300.18656
300.21874
300.25232
300.28759
300.3254
300.3663
300
300
300
300
300
300.00001
300.00001
300.00001
300.00001
300.00001
300.00001
300.00001
300.00001
300.00003
300.0001
300.00025
300.00057
300.00114
300.00208
300.00357
300.00579
300.00888
300.013
300.01829
300.02489
300.033
300.04287
300.05491
300.06975
300.08754
300
300
300
300
300
300
300.00001
300.00003
300.00007
300.00017
300.00041
300.00212
300.04337
301.29021
302.40132
303.3318
303.98582
304.15165
304.06375
303.85063
303.58319
303.30014
303.02185
302.75837
302.51409
302.29034
302.08699
301.90333
301.7388
301.59714
300
300
300
300
300
300
299.99999
300
300
300
300.00001
300.00011
300.00182
300.03214
300.0909
300.17813
300.29028
300.41133
300.53079
300.64209
300.74153
300.82745
300.89951
300.95821
301.0045
301.03961
301.06494
301.08196
301.09221
301.09767
300
300
300
300
300
300
300
300
300.00001
300.00001
300.00001
300.00001
300.00006
300.00069
300.00243
300.00612
300.01269
300.0228
300.03672
300.0544
300.07559
300.09987
300.12678
300.15581
300.18656
300.21875
300.25232
300.2876
300.3254
300.36631
300
300
300
300
300
300.00001
300.00001
300.00001
300.00001
300.00001
300.00001
300.00001
300.00001
300.00003
300.0001
300.00025
300.00057
300.00114
300.00208
300.00357
300.00579
300.00888
300.013
300.01829
300.02489
300.033
300.04287
300.05491
300.06975
300.08755
300
300
300
300
300
300
300.00001
300.00002
300.00005
300.00011
300.00025
300.00111
300.02143
300.63092
301.17107
301.61377
301.92201
302.06209
302.0751
302.00835
301.89809
301.76824
301.63322
301.50109
301.37605
301.26003
301.15379
301.05757
300.97152
300.89798
300
300
300
300
300
300
299.99999
299.99999
300
300
300.00001
300.00005
300.00091
300.01537
300.04111
300.07576
300.11656
300.15975
300.20242
300.24259
300.27923
300.31194
300.34069
300.36567
300.38726
300.40591
300.42221
300.43692
300.4511
300.46606
300
300
300
300
300
300
300
300
300.00001
300.00001
300.00001
300.00001
300.00003
300.00033
300.0011
300.00249
300.00458
300.00744
300.01111
300.0156
300.02087
300.02689
300.03363
300.04111
300.04937
300.05854
300.06881
300.08049
300.09413
300.11005
300
300
300
300
300
300.00001
300.00001
300.00001
300.00001
300.00001
300.00001
300.00001
300.00001
300.00002
300.00005
300.00012
300.00023
300.00043
300.00073
300.00115
300.00173
300.00251
300.00352
300.0048
300.00641
300.0084
300.01092
300.01421
300.01854
300.02396
300
300
300
300
300
300
300
300.00001
300.00003
300.00006
300.00012
300.00049
300.00952
300.28165
300.52112
300.71546
300.85263
300.92688
300.94754
300.92939
300.88693
300.83166
300.77138
300.71089
300.65292
300.59893
300.54958
300.50517
300.46584
300.43253
300
300
300
300
300
299.99999
299.99999
299.99999
299.99999
300
300
300.00002
300.00041
300.00695
300.0182
300.03259
300.04854
300.06457
300.07964
300.09358
300.10632
300.11769
300.12766
300.13632
300.1438
300.15031
300.15611
300.1615
300.16684
300.17246
300
300
300
300
300
300
300
300
300.00001
300.00001
300.00001
300.00001
300.00002
300.00015
300.00049
300.00108
300.00193
300.00304
300.00437
300.00592
300.00766
300.00958
300.01166
300.01389
300.01627
300.01881
300.02154
300.0245
300.02778
300.03138
300
300
300
300
300
300.00001
300.00001
300.00001
300.00001
300.00001
300.00001
300.00001
300.00001
300.00002
300.00003
300.00006
300.00011
300.00018
300.0003
300.00045
300.00065
300.00091
300.00123
300.00162
300.0021
300.00267
300.00336
300.00419
300.00521
300.00641
300
300
300
300
300
300
300
300
300.00001
300.00002
300.00005
300.00021
300.00422
300.12335
300.22828
300.31372
300.37542
300.41207
300.42629
300.42317
300.40786
300.38538
300.35944
300.33251
300.30613
300.28115
300.25802
300.23693
300.21797
300.20163
300
300
300
300
300
299.99999
299.99999
299.99999
299.99999
299.99999
300
300.00001
300.00019
300.00319
300.00836
300.01498
300.02232
300.02974
300.03674
300.04304
300.04876
300.05381
300.05815
300.06183
300.06487
300.06737
300.06939
300.07108
300.07259
300.07403
300
300
300
300
300
300
300
300
300.00001
300.00001
300.00001
300.00001
300.00001
300.00008
300.00023
300.00051
300.00091
300.00143
300.00206
300.00277
300.00357
300.00442
300.00531
300.00624
300.00721
300.0082
300.00921
300.01025
300.01133
300.01243
300
300
300
300
300
300.00001
300.00001
300.00001
300.00001
300.00001
300.00001
300.00001
300.00001
300.00001
300.00002
300.00003
300.00006
300.0001
300.00015
300.00022
300.00032
300.00043
300.00057
300.00074
300.00093
300.00116
300.00142
300.00171
300.00204
300.00241
300
300
300
300
300
300
300
300
300
300.00001
300.00003
300.00015
300.00296
300.0743
300.13657
300.18665
300.22234
300.24325
300.25068
300.24713
300.23586
300.22003
300.20212
300.18387
300.16633
300.15007
300.13533
300.12217
300.11054
300.10074
300
300
300
300
300
300
300
299.99999
299.99999
299.99999
300
300
300.00015
300.00224
300.00582
300.01037
300.01539
300.02041
300.02507
300.02933
300.0331
300.0363
300.03891
300.04098
300.04254
300.04367
300.04444
300.04492
300.04518
300.04528
300
300
300
300
300
300
300.00001
300.00001
300.00001
300.00001
300.00001
300.00001
300.00001
300.00007
300.0002
300.00042
300.00075
300.00117
300.00168
300.00225
300.00289
300.00356
300.00425
300.00496
300.00567
300.00638
300.00707
300.00774
300.0084
300.00901
300
300
300
300
300.00001
300.00001
300.00001
300.00001
300.00001
300.00001
300.00001
300.00001
300.00001
300.00001
300.00002
300.00003
300.00006
300.0001
300.00015
300.00022
300.00031
300.00042
300.00055
300.0007
300.00087
300.00106
300.00127
300.0015
300.00173
300.00197
)
;

boundaryField
{
    maxY
    {
        type            zeroGradient;
    }
    minX
    {
        type            fixedValue;
        value           uniform 300;
    }
    maxX
    {
        type            inletOutlet;
        inletValue      uniform 300;
        value           nonuniform List<scalar> 
40
(
300.10011
300.04501
300.00896
300.00196
300.20064
300.07368
300.01237
300.0024
300.43088
300.17179
300.03125
300.00638
300.89532
300.46453
300.10959
300.02384
301.59327
301.09445
300.36486
300.08711
301.59329
301.09447
300.36487
300.08711
300.89534
300.46454
300.10959
300.02384
300.43089
300.1718
300.03125
300.00638
300.20065
300.07368
300.01237
300.0024
300.10012
300.04501
300.00896
300.00196
)
;
    }
    minZ
    {
        type            zeroGradient;
    }
    maxZ
    {
        type            zeroGradient;
    }
    topAir_to_rightSolid
    {
        type            compressible::turbulentTemperatureRadCoupledMixed;
        refValue        nonuniform List<scalar> 
130
(
300.68275
300.49346
300.3327
300.21045
300.1256
300.07109
300.03835
300.01981
300.00987
300.00479
300.00232
300.00119
300.00076
301.3248
300.92622
300.60214
300.36742
300.21201
300.11638
300.06108
300.03082
300.01505
300.0072
300.00346
300.00178
300.00115
302.96004
301.96883
301.21752
300.70945
300.39293
300.2081
300.1059
300.05204
300.02488
300.01172
300.0056
300.0029
300.0019
306.21933
303.82394
302.21229
301.22103
300.64729
300.33088
300.16363
300.07862
300.03695
300.01724
300.00824
300.00433
300.00288
311.21981
306.07982
303.24456
301.69594
300.86531
300.43023
300.20845
300.09867
300.04593
300.02136
300.01026
300.00547
300.0037
311.21991
306.07988
303.24462
301.69595
300.86532
300.43023
300.20845
300.09867
300.04593
300.02136
300.01026
300.00547
300.0037
306.21945
303.82401
302.21235
301.22107
300.64731
300.33089
300.16365
300.07862
300.03695
300.01724
300.00824
300.00433
300.00288
302.96018
301.96892
301.21758
300.70948
300.39295
300.20811
300.10591
300.05205
300.02488
300.01172
300.0056
300.0029
300.0019
301.32491
300.9263
300.60219
300.36745
300.21203
300.11638
300.06109
300.03082
300.01505
300.0072
300.00346
300.00178
300.00115
300.68283
300.49352
300.33274
300.21047
300.12562
300.0711
300.03835
300.01981
300.00987
300.00479
300.00232
300.00119
300.00076
)
;
        refGradient     uniform 0;
        valueFraction   uniform 0.99967867;
        source          uniform 0;
        logInterval     -1;
        writePrecision  8;
        updateHeader    1;
        writeToFile     0;
        useUserTime     1;
        kappaMethod     fluidThermo;
        value           nonuniform List<scalar> 
130
(
300.68261
300.49338
300.33267
300.21045
300.12563
300.07113
300.03839
300.01986
300.00991
300.00483
300.00236
300.00123
300.00079
301.32451
300.92606
300.60208
300.36743
300.21206
300.11645
300.06117
300.0309
300.01513
300.00728
300.00353
300.00185
300.00121
302.95939
301.9685
301.21742
300.7095
300.39307
300.20828
300.10609
300.05224
300.02506
300.01189
300.00576
300.00305
300.00203
306.21799
303.82338
302.21222
301.22125
300.64765
300.3313
300.16406
300.07903
300.03734
300.0176
300.00858
300.00464
300.00316
311.21753
306.07917
303.24475
301.69655
300.86609
300.43106
300.20926
300.09944
300.04665
300.02202
300.01087
300.00603
300.00421
311.21764
306.07923
303.24481
301.69656
300.8661
300.43106
300.20927
300.09944
300.04665
300.02202
300.01087
300.00603
300.00421
306.21812
303.82345
302.21228
301.22128
300.64766
300.33131
300.16407
300.07903
300.03735
300.01761
300.00858
300.00464
300.00316
302.95953
301.96859
301.21748
300.70954
300.39309
300.20829
300.1061
300.05224
300.02506
300.01189
300.00576
300.00305
300.00203
301.32461
300.92613
300.60213
300.36746
300.21208
300.11646
300.06118
300.03091
300.01513
300.00728
300.00353
300.00185
300.00121
300.68269
300.49344
300.33271
300.21048
300.12565
300.07114
300.0384
300.01986
300.00991
300.00483
300.00236
300.00123
300.00079
)
;
    }
    topAir_to_heater
    {
        type            compressible::turbulentTemperatureRadCoupledMixed;
        refValue        nonuniform List<scalar> 
40
(
301.2397
301.17529
301.05051
300.87722
302.48625
302.35979
302.10739
301.74397
305.79906
305.52427
304.94608
304.05369
312.98025
312.4715
311.29383
309.21208
326.88031
326.26267
324.52951
320.55167
326.88038
326.26283
324.52974
320.55193
312.98019
312.47159
311.29403
309.21234
305.79898
305.52432
304.94622
304.0539
302.48619
302.35982
302.10748
301.74411
301.23965
301.17531
301.05058
300.87733
)
;
        refGradient     uniform 0;
        valueFraction   uniform 0.99967867;
        source          uniform 0;
        logInterval     -1;
        writePrecision  8;
        updateHeader    1;
        writeToFile     0;
        useUserTime     1;
        kappaMethod     fluidThermo;
        value           nonuniform List<scalar> 
40
(
301.23932
301.17496
301.05023
300.87701
302.48549
302.35911
302.10681
301.74353
305.79729
305.52266
304.94472
304.05266
312.97628
312.46787
311.29072
309.20974
326.87208
326.255
324.5227
320.54635
326.87216
326.25516
324.52292
320.5466
312.97622
312.46796
311.29092
309.20999
305.79721
305.52271
304.94486
304.05287
302.48543
302.35914
302.10691
301.74367
301.23928
301.17497
301.0503
300.87712
)
;
    }
    topAir_to_leftSolid
    {
        type            compressible::turbulentTemperatureRadCoupledMixed;
        refValue        nonuniform List<scalar> 
130
(
300
300
300
300
300.00001
300.00001
300.00003
300.00005
300.00009
300.00015
300.00023
300.00033
300.00042
300
300
300
300
300.00001
300.00002
300.00005
300.00009
300.00017
300.00031
300.0005
300.00075
300.00099
300
300
300
300.00001
300.00002
300.00004
300.00009
300.00019
300.00037
300.0007
300.00123
300.00198
300.00284
300
300
300.00001
300.00001
300.00003
300.00007
300.00015
300.00033
300.00069
300.00138
300.00265
300.0048
300.00796
300
300
300.00001
300.00002
300.00004
300.00009
300.00021
300.00046
300.001
300.00213
300.00444
300.00914
300.01845
300
300
300.00001
300.00002
300.00004
300.00009
300.00021
300.00046
300.001
300.00213
300.00444
300.00914
300.01845
300
300
300.00001
300.00001
300.00003
300.00007
300.00015
300.00033
300.00069
300.00138
300.00265
300.0048
300.00796
300
300
300
300.00001
300.00002
300.00004
300.00009
300.00019
300.00037
300.0007
300.00123
300.00198
300.00284
300
300
300
300
300.00001
300.00002
300.00005
300.00009
300.00017
300.00031
300.0005
300.00075
300.00099
300
300
300
300
300.00001
300.00001
300.00003
300.00005
300.00009
300.00015
300.00023
300.00033
300.00042
)
;
        refGradient     uniform 0;
        valueFraction   uniform 0.99967867;
        source          uniform 0;
        logInterval     -1;
        writePrecision  8;
        updateHeader    1;
        writeToFile     0;
        useUserTime     1;
        kappaMethod     fluidThermo;
        value           nonuniform List<scalar> 
130
(
300
300
300
300
300.00001
300.00001
300.00003
300.00005
300.00009
300.00015
300.00023
300.00033
300.00042
300
300
300
300
300.00001
300.00002
300.00005
300.00009
300.00017
300.00031
300.0005
300.00075
300.00099
300
300
300
300.00001
300.00002
300.00004
300.00009
300.00019
300.00037
300.0007
300.00122
300.00198
300.00285
300
300
300.00001
300.00001
300.00003
300.00007
300.00015
300.00033
300.00069
300.00138
300.00265
300.0048
300.00796
300
300
300.00001
300.00002
300.00004
300.00009
300.00021
300.00046
300.001
300.00213
300.00444
300.00914
300.01845
300
300
300.00001
300.00002
300.00004
300.00009
300.00021
300.00046
300.001
300.00213
300.00444
300.00914
300.01845
300
300
300.00001
300.00001
300.00003
300.00007
300.00015
300.00033
300.00069
300.00138
300.00265
300.0048
300.00796
300
300
300
300.00001
300.00002
300.00004
300.00009
300.00019
300.00037
300.0007
300.00122
300.00198
300.00285
300
300
300
300
300.00001
300.00002
300.00005
300.00009
300.00017
300.00031
300.0005
300.00075
300.00099
300
300
300
300
300.00001
300.00001
300.00003
300.00005
300.00009
300.00015
300.00023
300.00033
300.00042
)
;
    }
}


// ************************************************************************* //
