/*--------------------------------*- C++ -*----------------------------------*\
| =========                 |                                                 |
| \\      /  F ield         | OpenFOAM: The Open Source CFD Toolbox           |
|  \\    /   O peration     | Version:  2412                                  |
|   \\  /    A nd           | Website:  www.openfoam.com                      |
|    \\/     M anipulation  |                                                 |
\*---------------------------------------------------------------------------*/
FoamFile
{
    version     2.0;
    format      ascii;
    arch        "LSB;label=32;scalar=64";
    class       volVectorField;
    location    "20/topAir";
    object      U;
}
// * * * * * * * * * * * * * * * * * * * * * * * * * * * * * * * * * * * * * //

dimensions      [0 1 -1 0 0 0 0];

internalField   nonuniform List<vector> 
1200
(
(0.097229467 0.00096340672 0.00080060869)
(0.096222237 0.0012982673 0.0012014999)
(0.094369843 0.0013354873 0.0013573825)
(0.09189024 0.0013068306 0.0014216079)
(0.089350851 0.0012589105 0.0014439431)
(0.086944405 0.0011939659 0.0014341875)
(0.084661739 0.0011179558 0.0013995526)
(0.082477823 0.0010378682 0.0013485994)
(0.080391939 0.00095749121 0.001288216)
(0.078412415 0.00087783642 0.001223046)
(0.076545689 0.00079788481 0.0011564991)
(0.074797112 0.00071393382 0.0010918745)
(0.073178247 0.00061854041 0.0010334829)
(0.071685249 0.0005333595 0.00099088198)
(0.070289788 0.00044464983 0.00096911924)
(0.068967525 0.00034907221 0.000965852)
(0.067706044 0.00024586246 0.00097562)
(0.066502087 0.00013347145 0.00099215603)
(0.06535003 7.653968e-06 0.0010093849)
(0.064282275 -0.00012577479 0.0010270174)
(0.063308025 -0.00025816219 0.0010412223)
(0.062424568 -0.00038200736 0.0010505278)
(0.061629044 -0.0004910941 0.0010531272)
(0.060915897 -0.00058020942 0.0010464474)
(0.060277635 -0.00064489223 0.0010270006)
(0.059706577 -0.00068102465 0.00099005373)
(0.059196755 -0.0006843755 0.0009291793)
(0.058746045 -0.00065023939 0.00083540081)
(0.058355136 -0.00057446781 0.00069515559)
(0.057930721 -0.00044912502 0.00050163636)
(0.099371276 0.00097524106 0.00082665496)
(0.10013528 0.0013303774 0.0012554164)
(0.10060716 0.0014040026 0.0014394474)
(0.10061099 0.0014172376 0.001532694)
(0.10043532 0.0014082644 0.0015829588)
(0.10023259 0.0013783761 0.0016001416)
(0.10001116 0.0013337178 0.0015918414)
(0.099753831 0.0012806134 0.0015664246)
(0.099460561 0.0012217608 0.0015302812)
(0.099140802 0.0011569793 0.0014874412)
(0.098802852 0.0010840404 0.0014403429)
(0.098450939 0.00099847648 0.0013902576)
(0.098086382 0.0008942907 0.0013369184)
(0.09771364 0.00079293462 0.0012778932)
(0.097349705 0.00068224122 0.0012150166)
(0.096998858 0.00055841797 0.0011505143)
(0.096661753 0.0004212214 0.0010860677)
(0.096338178 0.00027110859 0.0010233015)
(0.096030341 0.00010792112 0.00096393142)
(0.095716546 -6.3113404e-05 0.00090670579)
(0.095387309 -0.00023362445 0.00085362455)
(0.095044992 -0.00039533632 0.00080328618)
(0.094694611 -0.00054074798 0.00075429223)
(0.094342484 -0.00066276333 0.00070507495)
(0.093996304 -0.00075466104 0.00065329498)
(0.093666013 -0.00081007906 0.00059617068)
(0.093364923 -0.00082170816 0.00053014477)
(0.093111228 -0.00078053697 0.00044968559)
(0.092932185 -0.00067781585 0.00034601343)
(0.092889743 -0.00051565045 0.00020613054)
(0.099371229 -0.00097561592 0.00082665199)
(0.10013507 -0.0013312329 0.0012554081)
(0.10060658 -0.001405602 0.0014394284)
(0.10060972 -0.0014200717 0.0015326526)
(0.10043284 -0.0014131737 0.0015828712)
(0.100228 -0.0013867688 0.0015999606)
(0.10000296 -0.0013479141 0.001591477)
(0.099739547 -0.0013043778 0.0015657082)
(0.099436255 -0.001261107 0.0015289099)
(0.099100411 -0.001221341 0.0014848986)
(0.098737638 -0.0011878747 0.0014358294)
(0.098349876 -0.0011630843 0.0013827694)
(0.097937422 -0.0011472736 0.0013259173)
(0.097503432 -0.0011354629 0.0012647636)
(0.097054411 -0.0011300546 0.0011994524)
(0.096594989 -0.0011332348 0.0011310434)
(0.096127071 -0.0011449391 0.0010608345)
(0.095651661 -0.001163417 0.00099010087)
(0.095170486 -0.001185061 0.00091995867)
(0.094684989 -0.0012084233 0.00085084654)
(0.094196042 -0.0012311968 0.00078302294)
(0.093706519 -0.0012499657 0.00071593446)
(0.093222506 -0.0012608157 0.00064889236)
(0.092752771 -0.0012588097 0.00058093564)
(0.0923092 -0.0012377229 0.00050955641)
(0.091906287 -0.0011949254 0.00043498207)
(0.091564149 -0.0011263542 0.00035694773)
(0.091306683 -0.0010264133 0.0002731655)
(0.091171427 -0.00089057035 0.00017925919)
(0.091258844 -0.00072414936 6.8850266e-05)
(0.09722937 -0.00096354314 0.00080060181)
(0.096221816 -0.0012985757 0.0012014803)
(0.094368769 -0.0013360585 0.0013573381)
(0.091888017 -0.0013078324 0.0014215138)
(0.089346676 -0.001260631 0.0014437489)
(0.086936962 -0.0011968897 0.0014337929)
(0.084648894 -0.0011228869 0.0013987619)
(0.082456145 -0.0010461265 0.0013470371)
(0.080355993 -0.00097123963 0.0012851711)
(0.078353682 -0.00090064315 0.0012171855)
(0.076450906 -0.0008357709 0.001145341)
(0.074645254 -0.00077745515 0.0010707913)
(0.072933121 -0.0007256971 0.00099391069)
(0.071312296 -0.00067941709 0.00091461307)
(0.069782845 -0.00063859418 0.00083301282)
(0.068345078 -0.00060377885 0.00074999176)
(0.06699735 -0.00057492158 0.000666913)
(0.06573633 -0.00055137712 0.00058524304)
(0.064558021 -0.00053220292 0.00050631384)
(0.063458309 -0.00051701923 0.00043097426)
(0.062433897 -0.00050516337 0.00035875589)
(0.0614839 -0.00049516589 0.00028858727)
(0.060611077 -0.0004849332 0.00021941978)
(0.0598219 -0.00047146119 0.00014764498)
(0.059140381 -0.00045035752 6.6835419e-05)
(0.058573529 -0.0004220511 -1.8310684e-05)
(0.058136304 -0.00038619402 -0.0001035374)
(0.057844405 -0.0003421262 -0.00018536319)
(0.057711731 -0.00028979474 -0.00025697337)
(0.05779426 -0.00022348545 -0.00030659526)
(0.098508459 0.00098741245 0.0010624857)
(0.098433241 0.0013425814 0.0016299485)
(0.097919713 0.0013967862 0.0018722544)
(0.09697751 0.0013841636 0.0019886439)
(0.095953262 0.0013501193 0.0020470534)
(0.094981966 0.001296899 0.0020610126)
(0.094059134 0.0012309374 0.002040055)
(0.093163863 0.0011594952 0.0019957585)
(0.09229285 0.0010864558 0.001937466)
(0.09145213 0.0010127737 0.0018715357)
(0.090648867 0.00093701422 0.0018031287)
(0.089891912 0.00085421875 0.001738456)
(0.089202087 0.00075408393 0.0016883348)
(0.088578434 0.00066783199 0.0016810344)
(0.087981854 0.00057635503 0.0017304232)
(0.087378251 0.00047641515 0.001829018)
(0.086752789 0.00036864363 0.0019607321)
(0.086103501 0.00025349661 0.0021083142)
(0.085435091 0.00013022684 0.0022564392)
(0.084749276 -1.7341256e-06 0.002393655)
(0.084103985 -0.00013138253 0.00251182)
(0.083503707 -0.000254743 0.0026069141)
(0.082952411 -0.00036737107 0.0026746762)
(0.082451435 -0.00046431869 0.0027095371)
(0.081999644 -0.0005408781 0.002703661)
(0.081593857 -0.000591628 0.0026456729)
(0.081229339 -0.00061020788 0.0025192985)
(0.080901182 -0.00058996839 0.0023025584)
(0.080602513 -0.00052547246 0.0019690581)
(0.080236105 -0.00041161812 0.0015078281)
(0.10070879 0.00099512728 0.0010946371)
(0.10246324 0.0013566155 0.0016840725)
(0.10434279 0.0014300645 0.0019458593)
(0.1059668 0.0014425867 0.0020848634)
(0.10741187 0.0014335484 0.0021687521)
(0.10877719 0.001404367 0.0022105398)
(0.11007638 0.0013611889 0.0022193647)
(0.11129694 0.001310302 0.0022060202)
(0.11243729 0.001254306 0.0021787835)
(0.11350487 0.0011927508 0.002142565)
(0.11450762 0.0011227884 0.0020998926)
(0.11545 0.0010387193 0.0020510455)
(0.11633356 0.00093265967 0.0019919298)
(0.11716675 0.00083600026 0.0019121495)
(0.11797454 0.0007313411 0.0018160718)
(0.11876416 0.00061421921 0.0017102082)
(0.11953829 0.00048498956 0.0015996626)
(0.12029909 0.00034474684 0.0014895442)
(0.12104758 0.00019460415 0.0013839088)
(0.12178558 3.6288623e-05 0.0012863626)
(0.12248313 -0.00012284684 0.0011972081)
(0.12313907 -0.00027700047 0.0011140223)
(0.1237585 -0.00042017307 0.0010335575)
(0.12434687 -0.00054593462 0.00095125392)
(0.12491105 -0.00064859146 0.00086097784)
(0.12546039 -0.00071901334 0.00075443829)
(0.12600623 -0.00074636137 0.00062114459)
(0.12656475 -0.0007183078 0.00044868443)
(0.12716046 -0.00062150773 0.00022403942)
(0.1280365 -0.00044813966 -5.4350649e-05)
(0.10070874 -0.00099552129 0.001094624)
(0.10246301 -0.0013575191 0.001684041)
(0.10434218 -0.0014317562 0.0019457943)
(0.10596548 -0.0014455833 0.0020847317)
(0.10740929 -0.0014387339 0.0021684873)
(0.10877241 -0.0014132252 0.002210013)
(0.11006784 -0.0013761743 0.0022183294)
(0.11128209 -0.0013354262 0.0022040179)
(0.11241202 -0.0012960391 0.002174989)
(0.11346291 -0.0012613657 0.0021355694)
(0.11444009 -0.0012342416 0.0020875215)
(0.11534633 -0.001216839 0.0020306999)
(0.1161836 -0.0012084161 0.0019630314)
(0.11695839 -0.0012011595 0.001881095)
(0.11768209 -0.0011980192 0.0017836806)
(0.11836353 -0.0012019589 0.0016727176)
(0.11900759 -0.0012134011 0.0015510698)
(0.11961741 -0.001231437 0.0014218685)
(0.12019562 -0.0012540802 0.0012882511)
(0.12074469 -0.0012785463 0.0011526613)
(0.12126573 -0.0013053608 0.0010155675)
(0.12176129 -0.0013311288 0.00087623228)
(0.1222372 -0.0013521043 0.00073304332)
(0.12269939 -0.0013654577 0.00058341445)
(0.12316337 -0.0013684187 0.00042452363)
(0.12364528 -0.0013530998 0.00025346004)
(0.12416281 -0.0013098535 6.7344969e-05)
(0.12473791 -0.001226175 -0.00013554227)
(0.12538772 -0.0010846493 -0.00035268244)
(0.12637743 -0.00086509088 -0.00056880867)
(0.098508359 -0.00098755538 0.0010624589)
(0.098432802 -0.0013429065 0.0016298837)
(0.097918593 -0.0013973903 0.0018721194)
(0.096975189 -0.001385224 0.0019883689)
(0.095948899 -0.0013519408 0.0020464978)
(0.094974178 -0.0012999958 0.0020598978)
(0.094045665 -0.0012361682 0.0020378378)
(0.093141062 -0.0011682851 0.0019913929)
(0.092254869 -0.0011011786 0.0019289585)
(0.091389681 -0.0010374382 0.0018551199)
(0.090547234 -0.00097860639 0.0017717315)
(0.089727156 -0.00092549495 0.0016787972)
(0.088929105 -0.00087785054 0.0015748911)
(0.088155359 -0.00083415129 0.0014578412)
(0.08741177 -0.00079437646 0.0013263393)
(0.086704742 -0.00075947256 0.001181505)
(0.086038038 -0.00072970923 0.0010260023)
(0.085412955 -0.00070468543 0.00086363007)
(0.084829123 -0.00068358847 0.00069838615)
(0.084284301 -0.00066563111 0.00053228357)
(0.083778464 -0.00065093225 0.00036604082)
(0.083315635 -0.000638425 0.00019870608)
(0.082897905 -0.00062633857 2.7759169e-05)
(0.082528077 -0.00061422444 -0.00015039126)
(0.082197998 -0.00060084768 -0.00033900721)
(0.081924476 -0.00058211966 -0.00053634181)
(0.081722976 -0.00055287944 -0.00073916087)
(0.081615107 -0.00050560132 -0.00094106315)
(0.081635079 -0.00042819552 -0.0011257879)
(0.081951162 -0.00029371028 -0.0012558505)
(0.098378664 0.00098241708 0.00041347652)
(0.098077256 0.0013315792 0.00071109995)
(0.097473277 0.0013794622 0.00088640913)
(0.096586407 0.0013621083 0.00099400921)
(0.095689839 0.0013248413 0.0010657872)
(0.094880103 0.0012692933 0.0011103809)
(0.094145412 0.0012016653 0.0011316337)
(0.093462052 0.0011290706 0.0011348422)
(0.092821379 0.0010550103 0.0011254926)
(0.09222467 0.00097951258 0.0011084379)
(0.091677769 0.00089897436 0.0010890861)
(0.091194392 0.00080322603 0.0010762795)
(0.090817933 0.00067180319 0.0010892857)
(0.090550296 0.00057982346 0.0011847304)
(0.090315808 0.000486603 0.0013875152)
(0.090051154 0.00038547733 0.0016795231)
(0.089732935 0.00027611448 0.0020268739)
(0.089360953 0.00015727748 0.00239326)
(0.088940909 2.7388685e-05 0.0027487705)
(0.088512041 -0.0001047687 0.0030712941)
(0.088103405 -0.00023397628 0.0033529233)
(0.087720527 -0.00035685975 0.0035899248)
(0.087364021 -0.00046850624 0.0037788117)
(0.087028854 -0.00056307616 0.0039142902)
(0.086703678 -0.00063378197 0.0039872162)
(0.086370419 -0.00067264644 0.0039819155)
(0.086004675 -0.00066877634 0.0038724818)
(0.085577408 -0.00060609338 0.0036179674)
(0.085054723 -0.00046435847 0.0031561212)
(0.084171946 -0.00020840269 0.0024184385)
(0.10057605 0.00099458591 0.00042583052)
(0.10210491 0.0013561874 0.0007378828)
(0.10389725 0.0014268131 0.00092891195)
(0.10557942 0.0014358891 0.0010546639)
(0.10715367 0.0014237195 0.001146735)
(0.10868204 0.0013915487 0.0012133554)
(0.11017185 0.0013453277 0.0012580368)
(0.11160845 0.0012911409 0.0012854387)
(0.11298542 0.0012310836 0.0012999499)
(0.11430505 0.0011635549 0.0013044143)
(0.11557066 0.0010833737 0.0012997743)
(0.11678067 0.00098034148 0.0012835186)
(0.11792798 0.00084061909 0.0012441126)
(0.11901963 0.00073971053 0.001157891)
(0.12009807 0.00064079946 0.0010349743)
(0.12116974 0.00053385721 0.00089081797)
(0.1222345 0.0004165358 0.00073577557)
(0.12329194 0.00028618326 0.00058420361)
(0.12434235 0.0001417244 0.00044623113)
(0.12536505 -1.1640114e-05 0.00032559258)
(0.12634037 -0.00016814623 0.0002215052)
(0.12726669 -0.00032199542 0.00013258553)
(0.12814538 -0.00046626679 5.4131612e-05)
(0.12897773 -0.00059251833 -2.1788712e-05)
(0.12976474 -0.00068843789 -0.00010626428)
(0.13050818 -0.00073938421 -0.00021507071)
(0.13121318 -0.00072460333 -0.00036987211)
(0.13188871 -0.00061453284 -0.00059755104)
(0.13255973 -0.00036956356 -0.00092705456)
(0.13353071 4.7604065e-05 -0.0013603436)
(0.100576 -0.00099501959 0.00042581029)
(0.10210465 -0.0013571885 0.00073783352)
(0.10389654 -0.0014287059 0.00092880963)
(0.10557787 -0.0014392831 0.0010544575)
(0.10715059 -0.0014296779 0.0011463238)
(0.10867626 -0.0014018938 0.0012125446)
(0.11016135 -0.0013631515 0.0012564547)
(0.1115898 -0.001321639 0.0012823941)
(0.11295302 -0.0012828988 0.0012941995)
(0.11425017 -0.0012508715 0.0012938567)
(0.11548104 -0.0012289813 0.0012813081)
(0.11664301 -0.0012192987 0.0012541894)
(0.11773328 -0.0012177763 0.0012071457)
(0.11875843 -0.0012058711 0.0011321267)
(0.11973522 -0.0011893755 0.0010265013)
(0.12067594 -0.0011753344 0.00089430482)
(0.12158569 -0.0011668908 0.00074080453)
(0.12246718 -0.0011657962 0.00057023164)
(0.12332187 -0.0011714692 0.00038928067)
(0.12414726 -0.001186009 0.00020151114)
(0.12494017 -0.0012063397 8.5744126e-06)
(0.12570084 -0.0012276345 -0.00018876974)
(0.12643225 -0.001245628 -0.00039155108)
(0.12714153 -0.0012544939 -0.00060234899)
(0.12783367 -0.0012455121 -0.00082354068)
(0.12852211 -0.0012052445 -0.0010628844)
(0.12923107 -0.0011146956 -0.0013306232)
(0.12999645 -0.00094857727 -0.0016340438)
(0.13087537 -0.000673083 -0.0019709549)
(0.13233005 -0.00025713053 -0.0023035549)
(0.098378551 -0.00098257427 0.00041343445)
(0.09807675 -0.0013319393 0.00071099714)
(0.097471967 -0.0013801386 0.00088619438)
(0.096583654 -0.0013633117 0.00099357503)
(0.095684573 -0.0013269408 0.0010649187)
(0.094870501 -0.0012729277 0.0011086548)
(0.094128377 -0.0012079324 0.0011282227)
(0.093432342 -0.0011398605 0.0011281405)
(0.092770138 -0.0010736137 0.0011123981)
(0.092136938 -0.0010118038 0.0010829678)
(0.091528087 -0.00095590869 0.0010396724)
(0.090937757 -0.00090637107 0.00098032004)
(0.090361202 -0.00086175732 0.00090086038)
(0.089798665 -0.00081847179 0.0007963471)
(0.089257306 -0.00077620842 0.00066415936)
(0.088745736 -0.00073718785 0.00050667649)
(0.088269245 -0.00070280991 0.00032668786)
(0.087829823 -0.00067299243 0.0001310205)
(0.087424194 -0.0006470142 -7.4382189e-05)
(0.087047886 -0.00062588916 -0.00028536143)
(0.086696224 -0.00060798917 -0.00049961652)
(0.086363703 -0.0005908628 -0.00071656622)
(0.086050298 -0.00057290331 -0.0009380604)
(0.085761623 -0.00055151028 -0.0011655388)
(0.085507654 -0.00052442023 -0.0013989301)
(0.085303549 -0.00048449618 -0.0016400138)
(0.085172789 -0.00042221123 -0.001886348)
(0.085156013 -0.00032622042 -0.0021348908)
(0.085328395 -0.00018314682 -0.0023778365)
(0.086079832 3.9295835e-05 -0.0025892578)
(0.098354536 0.00098477463 0.00022307606)
(0.09797834 0.0013371464 0.00042059017)
(0.097287489 0.0013873969 0.00056762634)
(0.096334554 0.0013714811 0.00066865546)
(0.095394623 0.0013349704 0.0007366074)
(0.09455629 0.0012794602 0.00078018602)
(0.09380479 0.0012110849 0.00080434112)
(0.093116672 0.0011368884 0.00081327653)
(0.092483456 0.0010600589 0.00081121667)
(0.091907007 0.0009795394 0.00080243754)
(0.091396945 0.00088853779 0.00079232794)
(0.09098009 0.0007681393 0.00079079262)
(0.090747034 0.00058073253 0.00082312141)
(0.090704953 0.00051196526 0.00097937658)
(0.090704699 0.00048166614 0.0013004043)
(0.090626847 0.00047813831 0.0017595894)
(0.090430893 0.00049079935 0.0023067415)
(0.090120662 0.00050423952 0.0028759119)
(0.089723583 0.0005127532 0.0034155566)
(0.089272362 0.00051237022 0.0039034223)
(0.088791413 0.00050354707 0.004333193)
(0.088293034 0.00048901789 0.0047031263)
(0.087780489 0.00047296856 0.0050115014)
(0.087249618 0.00046082058 0.0052540884)
(0.086687925 0.00045946864 0.0054214259)
(0.086072307 0.00047811025 0.0054945538)
(0.085366028 0.00053090743 0.0054374841)
(0.084513915 0.00064324582 0.0051832263)
(0.08341317 0.00086032493 0.0046083682)
(0.081233344 0.0013243096 0.0035284503)
(0.10055228 0.00099481829 0.00023006452)
(0.10200678 0.0013577434 0.0004365896)
(0.10371298 0.0014292488 0.00059382733)
(0.10532989 0.0014384782 0.00070674605)
(0.10686073 0.0014259575 0.00078834963)
(0.10835937 0.0013929019 0.00084708163)
(0.10983007 0.0013450673 0.00088752061)
(0.11125808 0.0012882089 0.00091328833)
(0.11263632 0.0012237425 0.00092756567)
(0.11396525 0.0011485653 0.00093241914)
(0.11524461 0.0010542438 0.0009276487)
(0.11646372 0.00092385169 0.00090721111)
(0.11760065 0.00073578068 0.00084838604)
(0.11866022 0.00067301741 0.00070727617)
(0.1197173 0.00066412762 0.00049823049)
(0.12076892 0.00069055596 0.00025040791)
(0.12180779 0.00074262092 -3.7829051e-06)
(0.12283241 0.00079731809 -0.00023511278)
(0.12382483 0.0008454686 -0.00043143735)
(0.12477212 0.00088384099 -0.00059258017)
(0.12566844 0.00091312644 -0.00071952164)
(0.12650772 0.00093709158 -0.00081537739)
(0.12728373 0.00096237658 -0.00088681807)
(0.12798855 0.00099876773 -0.00094360512)
(0.12860972 0.0010602457 -0.00099917536)
(0.12912774 0.0011662188 -0.001072439)
(0.12951465 0.0013458176 -0.0011918841)
(0.12973349 0.0016494186 -0.0014024738)
(0.12975442 0.0021628747 -0.0017754891)
(0.12941449 0.0030209037 -0.0024008137)
(0.10055222 -0.00099529119 0.00023004767)
(0.10200648 -0.0013588427 0.00043654817)
(0.10371217 -0.0014313486 0.00059374033)
(0.10532809 -0.0014422901 0.00070656943)
(0.10685713 -0.0014327443 0.00078799543)
(0.1083525 -0.0014048716 0.00084637806)
(0.10981737 -0.0013660502 0.00088613687)
(0.11123515 -0.001324802 0.00091060277)
(0.11259581 -0.0012872175 0.00092245712)
(0.1138957 -0.0012579513 0.00092303477)
(0.11513066 -0.0012409743 0.00091158827)
(0.11629297 -0.0012371889 0.00088418721)
(0.11737457 -0.0012344285 0.00083217786)
(0.11838664 -0.0011917213 0.00073996105)
(0.11936119 -0.001120193 0.00060007732)
(0.12031967 -0.0010347666 0.00041651719)
(0.12126619 -0.00094319382 0.00019979635)
(0.12220664 -0.00085486256 -3.8039945e-05)
(0.12314227 -0.00077498872 -0.00029166596)
(0.12406651 -0.00070264642 -0.00055622853)
(0.12497369 -0.00063669323 -0.00082615129)
(0.12585979 -0.00057378076 -0.0010979614)
(0.1267232 -0.00050756526 -0.0013708692)
(0.12756527 -0.00042790477 -0.0016467599)
(0.12838996 -0.00031891399 -0.0019316863)
(0.12920711 -0.0001547554 -0.0022341904)
(0.13002008 0.00010415802 -0.0025675446)
(0.13081953 0.00050919036 -0.0029500011)
(0.13167027 0.0011255429 -0.0034010255)
(0.13308122 0.0019982368 -0.0039080803)
(0.098354408 -0.00098494592 0.00022304111)
(0.097977761 -0.0013375418 0.00042050372)
(0.097285978 -0.0013881478 0.00056744415)
(0.096331342 -0.0013728344 0.00066828442)
(0.095388384 -0.0013373674 0.00073585984)
(0.094544705 -0.0012836815 0.00077868715)
(0.093783793 -0.0012185086 0.00080134577)
(0.093079123 -0.0011499678 0.00080730399)
(0.092416776 -0.0010832482 0.00079931516)
(0.091788854 -0.001021228 0.00077867712)
(0.091186923 -0.00096546687 0.00074460528)
(0.090601155 -0.00091584759 0.00069372764)
(0.090023629 -0.00086888031 0.00061966942)
(0.089455428 -0.00081645703 0.0005135203)
(0.088910204 -0.00075759358 0.00036863904)
(0.088399621 -0.00069669657 0.00018665799)
(0.087931333 -0.00063887178 -2.1385578e-05)
(0.087510456 -0.00058155305 -0.00024505239)
(0.087132218 -0.00052654459 -0.00047460667)
(0.086788364 -0.00047386256 -0.00070614976)
(0.086471899 -0.00042363792 -0.00094194017)
(0.086180074 -0.00037520672 -0.0011844344)
(0.085914033 -0.00032645277 -0.0014348776)
(0.085679552 -0.00027319017 -0.0016953997)
(0.085490353 -0.00020757658 -0.0019697487)
(0.085370815 -0.00011311343 -0.0022631944)
(0.085382068 3.6907945e-05 -0.0025817525)
(0.085650806 0.0002673388 -0.0029309239)
(0.086297775 0.0005936733 -0.0033116681)
(0.088041029 0.0010261749 -0.0036954051)
(0.09834214 0.00098482333 6.648141e-05)
(0.097929214 0.0013371997 0.00012507077)
(0.09719095 0.0013868789 0.00016709357)
(0.096197792 0.0013699168 0.00019288932)
(0.095230488 0.001332171 0.00020699949)
(0.094374472 0.0012753182 0.00021334003)
(0.09361153 0.0012054525 0.00021421674)
(0.092916912 0.0011294901 0.000211207)
(0.092282028 0.0010502365 0.00020572953)
(0.091709784 0.0009654222 0.00019926525)
(0.091214355 0.00086452068 0.00019390459)
(0.090839406 0.00071757108 0.0001941564)
(0.090749308 0.0004661823 0.00021336554)
(0.090968368 0.00052123963 0.0003055664)
(0.091245135 0.00072088321 0.00049738831)
(0.091379781 0.0010363726 0.00077667549)
(0.091289576 0.0014426145 0.0011179912)
(0.0909716 0.0018265537 0.0014814127)
(0.090495506 0.0021643793 0.0018355551)
(0.08993485 0.0024511725 0.0021667203)
(0.089330484 0.0026890003 0.0024701462)
(0.08869722 0.0028837732 0.0027434355)
(0.088035293 0.0030432414 0.002984049)
(0.0873338 0.0031762247 0.0031880858)
(0.086567889 0.0032930134 0.0033487349)
(0.085691563 0.003406963 0.0034534686)
(0.08462438 0.0035381555 0.003478745)
(0.083225901 0.0037206986 0.0033796845)
(0.081205765 0.0040066635 0.0030710319)
(0.076541579 0.0045925906 0.0024229902)
(0.10053993 0.00099483195 6.8532713e-05)
(0.1019578 0.0013582083 0.00012978302)
(0.10361701 0.0014298841 0.00017483564)
(0.10519448 0.0014388211 0.00020422035)
(0.10669842 0.0014256635 0.00022251371)
(0.10817925 0.0013916633 0.00023350671)
(0.10963771 0.0013424785 0.00023932801)
(0.11105747 0.0012836038 0.0002413086)
(0.11243035 0.0012158696 0.00024041977)
(0.11375471 0.0011348038 0.0002370889)
(0.11502457 0.0010287778 0.00023048979)
(0.11621197 0.00087377135 0.00021618062)
(0.11726336 0.0006433257 0.00017895463)
(0.11816355 0.00073574712 9.020194e-05)
(0.119041 0.0010148499 -4.2097003e-05)
(0.11990413 0.0014397581 -0.00019721197)
(0.12073126 0.001975506 -0.0003455156)
(0.12149897 0.0025147594 -0.00046730365)
(0.12217106 0.0030254806 -0.00055772822)
(0.12273273 0.003498657 -0.00061593718)
(0.12317997 0.0039345225 -0.00064391675)
(0.12350991 0.0043376448 -0.00064532829)
(0.12371917 0.0047155717 -0.00062526359)
(0.12380131 0.0050788095 -0.00059020177)
(0.12374206 0.0054423472 -0.00054846005)
(0.12351256 0.0058292426 -0.00051144154)
(0.12305989 0.0062778013 -0.00049665963)
(0.12229162 0.0068558576 -0.00053429716)
(0.12104126 0.0076889439 -0.00068026079)
(0.11796636 0.0090011053 -0.0010316399)
(0.10053986 -0.00099533127 6.852592e-05)
(0.10195747 -0.0013593731 0.00012976639)
(0.10361612 -0.0014321218 0.00017480058)
(0.10519251 -0.0014429121 0.00020414894)
(0.10669446 -0.0014330063 0.00022236991)
(0.10817163 -0.0014047323 0.00023321959)
(0.1096235 -0.0013656252 0.00023875998)
(0.11103157 -0.0013244398 0.00024019954)
(0.1123842 -0.0012876285 0.00023829995)
(0.11367523 -0.0012602432 0.00023320228)
(0.11489628 -0.0012461241 0.0002240034)
(0.11603303 -0.0012429084 0.00020800104)
(0.11706708 -0.0012229354 0.00017960837)
(0.11801338 -0.0011043731 0.00012812171)
(0.11892948 -0.00089981243 4.7281192e-05)
(0.11986407 -0.00063141061 -6.2084524e-05)
(0.12084224 -0.00031720922 -0.00019259483)
(0.12186183 1.960083e-05 -0.00033327891)
(0.12289391 0.00037186122 -0.00048282319)
(0.12389407 0.00073527542 -0.00063831736)
(0.1248556 0.001104469 -0.00079556366)
(0.1257688 0.0014776677 -0.00095160305)
(0.12662455 0.0018581943 -0.0011051739)
(0.1274142 0.0022546622 -0.0012567764)
(0.12812815 0.0026827599 -0.0014088301)
(0.12875473 0.0031694802 -0.0015652554)
(0.12928064 0.0037600662 -0.0017322581)
(0.12969528 0.004529168 -0.0019222256)
(0.13002086 0.0056000606 -0.0021542649)
(0.13033917 0.0071383839 -0.0024415081)
(0.098342002 -0.00098500413 6.6467289e-05)
(0.097928588 -0.0013376186 0.00012503596)
(0.097189306 -0.0013876792 0.00016702007)
(0.096194271 -0.00137137 0.00019273899)
(0.095223588 -0.0013347677 0.00020669517)
(0.094361518 -0.0012799374 0.00021272568)
(0.093587738 -0.0012136744 0.00021297826)
(0.09287367 -0.0011441924 0.00020870801)
(0.092203689 -0.0010768114 0.00020067288)
(0.091567417 -0.0010144803 0.00018896082)
(0.090952815 -0.00095853997 0.00017264987)
(0.090345153 -0.00090767722 0.00014939586)
(0.089730755 -0.00085506042 0.00011497895)
(0.089108792 -0.00078345243 6.318932e-05)
(0.088501722 -0.0006889336 -1.1465534e-05)
(0.087944829 -0.00057772718 -0.00010926774)
(0.087456408 -0.00045303771 -0.0002198079)
(0.087035586 -0.00032061225 -0.00033730061)
(0.08669825 -0.0001746788 -0.0004562708)
(0.086483158 -1.4867944e-05 -0.000576078)
(0.086376376 0.00015187484 -0.00069959242)
(0.08637277 0.00032175743 -0.00082894972)
(0.086469915 0.00049597175 -0.00096533753)
(0.086668452 0.0006800558 -0.0011101254)
(0.086976104 0.00088456028 -0.0012658722)
(0.087412763 0.0011274767 -0.0014380338)
(0.088017601 0.0014373698 -0.001635258)
(0.088863418 0.0018558917 -0.001863049)
(0.090107372 0.0024337335 -0.0021205601)
(0.092799894 0.0032421905 -0.0023823391)
(0.09834214 0.00098482333 -6.6480036e-05)
(0.097929214 0.0013371997 -0.00012507027)
(0.09719095 0.0013868789 -0.00016709322)
(0.096197793 0.0013699167 -0.00019288907)
(0.095230488 0.001332171 -0.00020699941)
(0.094374472 0.0012753182 -0.00021334005)
(0.09361153 0.0012054525 -0.00021421695)
(0.092916912 0.0011294901 -0.00021120698)
(0.092282029 0.0010502367 -0.00020573036)
(0.091709783 0.00096542223 -0.00019926592)
(0.091214355 0.00086452123 -0.00019390663)
(0.090839407 0.00071757074 -0.00019415839)
(0.090749308 0.00046618072 -0.00021336648)
(0.090968371 0.00052123903 -0.00030556828)
(0.091245141 0.00072088207 -0.00049738762)
(0.091379791 0.0010363767 -0.00077667244)
(0.091289591 0.0014426236 -0.0011179788)
(0.090971615 0.0018265692 -0.0014813914)
(0.09049552 0.0021644014 -0.0018355229)
(0.089934866 0.0024512013 -0.0021666788)
(0.089330498 0.0026890327 -0.0024700923)
(0.088697232 0.0028838133 -0.0027433724)
(0.088035304 0.0030432839 -0.0029839748)
(0.087333808 0.0031762714 -0.0031880049)
(0.0865679 0.0032930604 -0.0033486423)
(0.085691565 0.0034070127 -0.003453371)
(0.084624374 0.0035382084 -0.0034786458)
(0.083225885 0.003720754 -0.0033795872)
(0.081205728 0.0040067213 -0.0030709443)
(0.076541484 0.0045926523 -0.002422925)
(0.10053993 0.00099483192 -6.8531351e-05)
(0.1019578 0.0013582083 -0.00012978265)
(0.10361701 0.001429884 -0.00017483545)
(0.10519448 0.0014388211 -0.00020422034)
(0.10669842 0.0014256636 -0.0002225139)
(0.10817925 0.0013916633 -0.00023350714)
(0.10963771 0.0013424785 -0.00023932854)
(0.11105747 0.0012836039 -0.00024130909)
(0.11243035 0.0012158698 -0.00024042049)
(0.11375471 0.0011348041 -0.00023708957)
(0.11502457 0.0010287784 -0.00023049038)
(0.11621197 0.00087377104 -0.00021618005)
(0.11726336 0.00064332436 -0.00017895353)
(0.11816354 0.00073574563 -9.0199423e-05)
(0.119041 0.0010148491 4.2096743e-05)
(0.11990412 0.001439762 0.00019720911)
(0.12073125 0.0019755165 0.00034550876)
(0.12149895 0.0025147781 0.00046729458)
(0.12217104 0.0030255075 0.00055771724)
(0.12273271 0.0034986926 0.00061592513)
(0.12317994 0.0039345659 0.00064390251)
(0.12350988 0.0043376976 0.00064531634)
(0.12371912 0.0047156306 0.00062525184)
(0.12380126 0.0050788756 0.00059019143)
(0.12374199 0.0054424138 0.00054844975)
(0.12351248 0.0058293175 0.00051143084)
(0.12305979 0.0062778816 0.00049664771)
(0.12229151 0.0068559435 0.00053428201)
(0.12104112 0.0076890361 0.00068023871)
(0.11796617 0.0090012077 0.001031604)
(0.10053986 -0.00099533129 -6.8524646e-05)
(0.10195747 -0.001359373 -0.00012976604)
(0.10361612 -0.0014321219 -0.0001748004)
(0.10519251 -0.0014429121 -0.00020414894)
(0.10669446 -0.0014330062 -0.00022237009)
(0.10817163 -0.0014047324 -0.00023321995)
(0.1096235 -0.0013656251 -0.00023876057)
(0.11103157 -0.0013244402 -0.00024019992)
(0.1123842 -0.0012876281 -0.0002383008)
(0.11367523 -0.0012602436 -0.00023320275)
(0.11489628 -0.0012461239 -0.00022400384)
(0.11603303 -0.0012429088 -0.0002080006)
(0.11706708 -0.0012229353 -0.00017960709)
(0.11801338 -0.0011043736 -0.00012812073)
(0.11892948 -0.00089981113 -4.7281434e-05)
(0.11986406 -0.00063140785 6.2082397e-05)
(0.12084223 -0.00031720295 0.00019259104)
(0.12186182 1.961114e-05 0.00033327421)
(0.12289391 0.00037187631 0.00048281618)
(0.12389407 0.00073529612 0.00063830732)
(0.1248556 0.0011044971 0.00079555242)
(0.12576879 0.0014777005 0.00095159042)
(0.12662454 0.0018582358 0.001105159)
(0.12741419 0.0022547085 0.001256759)
(0.12812813 0.0026828121 0.0014088043)
(0.12875471 0.0031695404 0.0015652246)
(0.12928061 0.0037601339 0.0017322206)
(0.12969524 0.0045292426 0.0019221817)
(0.13002081 0.0056001448 0.0021542118)
(0.13033909 0.0071384826 0.0024414445)
(0.098342002 -0.00098500413 -6.646605e-05)
(0.097928588 -0.0013376187 -0.00012503555)
(0.097189306 -0.0013876792 -0.00016701985)
(0.096194271 -0.0013713701 -0.00019273889)
(0.095223588 -0.0013347677 -0.00020669509)
(0.094361518 -0.0012799375 -0.00021272586)
(0.093587738 -0.0012136743 -0.00021297833)
(0.092873671 -0.0011441928 -0.00020870855)
(0.092203688 -0.001076811 -0.00020067325)
(0.091567416 -0.0010144809 -0.00018896208)
(0.090952815 -0.0009585396 -0.00017265126)
(0.090345153 -0.0009076775 -0.00014939761)
(0.089730754 -0.00085506043 -0.00011498116)
(0.08910879 -0.00078345206 -6.3192483e-05)
(0.08850172 -0.00068893314 1.1460536e-05)
(0.087944825 -0.00057772575 0.00010926066)
(0.087456404 -0.00045303574 0.0002197975)
(0.087035581 -0.00032060905 0.00033728745)