/*--------------------------------*- C++ -*----------------------------------*\
| =========                 |                                                 |
| \\      /  F ield         | OpenFOAM: The Open Source CFD Toolbox           |
|  \\    /   O peration     | Version:  2412                                  |
|   \\  /    A nd           | Website:  www.openfoam.com                      |
|    \\/     M anipulation  |                                                 |
\*---------------------------------------------------------------------------*/
FoamFile
{
    version     2.0;
    format      ascii;
    arch        "LSB;label=32;scalar=64";
    class       volVectorField;
    location    "3";
    object      flux;
}
// * * * * * * * * * * * * * * * * * * * * * * * * * * * * * * * * * * * * * //

dimensions      [0 1 -1 1 0 0 0];

internalField   nonuniform List<vector> 
5712
(
(-0.306233 0.499053 0.281153)
(-0.373928 0.274174 0.854839)
(-0.700738 0.870282 0.213046)
(-1.09321 0.569251 0.935862)
(-1.05762 0.837611 0.11675)
(-2.06315 0.711457 0.992474)
(-0.732719 1.23659 0.199792)
(-2.20294 1.52935 1.57517)
(-0.755868 1.88066 0.326973)
(-1.76672 2.37814 1.97856)
(-0.92886 0.99559 0.334762)
(-1.52612 0.873818 1.40183)
(-0.711003 0.613238 0.357034)
(-0.938918 0.422067 1.24497)
(-0.382332 0.404297 0.351682)
(-0.387601 0.230125 1.06867)
(-0.495026 0.833451 0.165384)
(-0.558192 0.75687 0.0890102)
(-0.681125 0.751909 0.498523)
(-0.616769 0.747538 0.234004)
(-0.475334 0.956969 0.154294)
(-0.716222 0.922519 0.0705618)
(-0.708971 1.10295 0.53848)
(-0.710955 0.953044 0.216305)
(-0.199596 0.294587 0.214547)
(-0.143739 0.207722 0.157182)
(-0.270802 0.153223 0.633866)
(-0.192912 0.106041 0.46105)
(-0.452167 0.429743 0.143729)
(-0.290862 0.278783 0.112226)
(-0.838023 0.237911 0.637756)
(-0.581988 0.154177 0.480473)
(-0.698656 0.842448 0.322501)
(-0.706411 0.89459 0.116843)
(-0.706669 0.758906 0.242819)
(-0.709538 0.623757 0.0872771)
(-0.159639 0.615795 0.110384)
(-0.144673 0.478468 0.297933)
(-1.63039 0.519344 1.5385)
(-2.0171 0.495456 0.470435)
(-0.866901 0.695948 0.460847)
(-1.15783 0.682713 0.213386)
(-2.10646 1.41096 1.87101)
(-2.59234 1.55293 0.587048)
(-0.976829 1.01455 0.43147)
(-1.20171 1.0711 0.203372)
(-1.21874 0.726657 1.01608)
(-1.59438 0.571947 0.338878)
(-0.970046 0.744726 0.517245)
(-1.34534 0.523536 0.235972)
(-0.555931 0.316287 0.824781)
(-0.705555 0.272536 0.262514)
(-0.112589 0.234283 0.184718)
(-0.0355249 0.341976 0.100345)
(-0.146795 0.116373 0.333158)
(-0.0507117 0.156487 0.134183)
(-0.251706 0.310918 0.162949)
(-0.103291 0.457583 0.103761)
(-0.438639 0.194879 0.350111)
(-0.160591 0.264501 0.13141)
(-0.285793 0.31821 0.219745)
(-0.0948612 0.549515 0.139802)
(-0.291403 0.242105 0.218873)
(-0.0823414 0.393762 0.0912003)
(-0.574498 0.0761044 0.39337)
(-0.167021 0.265249 0.141578)
(-0.754067 0.0135548 0.155039)
(-0.235978 0.190259 0.0570877)
(-0.977704 0.720464 0.478692)
(-0.557121 0.867383 0.358073)
(-0.828152 0.75241 0.291262)
(-0.572199 0.856325 0.260036)
(-1.0084 0.911506 0.542428)
(-0.649415 0.931435 0.474682)
(-0.800617 0.924981 0.294348)
(-0.649684 0.905925 0.314052)
(-0.637818 0.667043 0.267753)
(-0.459378 0.806496 0.227941)
(-0.697603 0.669516 0.34583)
(-0.439475 0.796463 0.293979)
(-0.805228 0.752205 0.217692)
(-0.595719 0.848343 0.18656)
(-0.832346 0.737324 0.127017)
(-0.61241 0.841731 0.108736)
(-0.784892 0.929513 0.218875)
(-0.666891 0.890885 0.218366)
(-0.815449 0.928246 0.125844)
(-0.681286 0.882302 0.125859)
(-0.659977 0.625427 0.207218)
(-0.489268 0.807145 0.161169)
(-0.712323 0.570251 0.121611)
(-0.508728 0.803087 0.0849968)
(-0.701134 0.681143 0.228644)
(-0.286211 0.723401 0.128439)
(-0.397604 0.858415 0.227989)
(-0.451509 1.19127 0.253226)
(-0.752448 0.712257 0.301122)
(-0.328635 0.830335 0.229635)
(-0.391506 0.852694 0.324199)
(-0.468938 1.29494 0.431107)
(-0.704628 0.645184 0.168183)
(-0.268065 0.643077 0.071672)
(-0.418592 0.854672 0.147104)
(-0.447364 1.13466 0.152825)
(-0.729257 0.620452 0.0956719)
(-0.270311 0.591683 0.0332433)
(-0.441461 0.853868 0.0674878)
(-0.452742 1.10698 0.058643)
(-0.108728 0.167556 0.207564)
(-0.121781 0.209871 0.423272)
(-0.0380952 0.455338 0.152617)
(-0.0743737 0.734868 0.479798)
(-0.313847 0.202145 0.224354)
(-0.367477 0.224918 0.429648)
(-0.127803 0.565765 0.182165)
(-0.240443 0.828874 0.511826)
(-0.509799 0.242539 0.298185)
(-0.604945 0.252193 0.428591)
(-0.226249 0.694693 0.25372)
(-0.403398 0.941379 0.52291)
(-0.689022 0.981378 0.339067)
(-0.365217 1.10147 0.415653)
(-0.688999 0.815917 0.254793)
(-0.817927 0.738226 0.254296)
(-0.406834 0.986797 0.314781)
(-0.269985 1.12409 0.274114)
(-0.431645 0.964215 0.295386)
(-0.482257 0.818303 0.403036)
(-0.830508 0.684475 0.46761)
(-0.517066 1.1099 0.688556)
(-0.388729 1.0305 0.36963)
(-0.505155 0.942177 0.292323)
(-0.554717 0.78233 0.274644)
(-0.531399 0.789842 0.34827)
(-0.65837 1.45223 0.559595)
(-0.121041 0.0613671 0.527963)
(-0.124595 0.0807258 0.51116)
(-0.0742918 0.162143 0.617515)
(-0.0795072 0.328879 0.621171)
(-0.359143 0.0873479 0.516442)
(-0.345629 0.120446 0.517533)
(-0.228129 0.217117 0.620465)
(-0.232689 0.387849 0.616981)
(-0.538963 0.132544 0.478194)
(-0.49871 0.128092 0.496664)
(-0.336651 0.293173 0.596681)
(-0.340064 0.46654 0.602335)
(-0.384127 1.1031 0.345494)
(-0.430941 1.11392 0.366697)
(-0.607191 0.908666 0.330616)
(-0.644408 0.880404 0.348738)
(-0.665196 0.755936 0.399625)
(-0.627022 0.681983 0.398239)
(-0.783348 0.547281 0.464995)
(-0.722379 0.490108 0.451002)
(-0.530634 0.413885 0.585143)
(-0.52998 0.609817 0.590798)
(-0.513954 0.974712 0.315653)
(-0.565034 0.891058 0.345673)
(-0.66067 0.893306 0.352195)
(-0.614077 0.847852 0.372995)
(-0.617488 0.746493 0.389544)
(-0.526194 0.698054 0.417112)
(-0.547931 0.633902 0.446297)
(-0.44731 0.566478 0.486511)
(-0.600406 0.494654 0.586363)
(-0.482985 0.672827 0.633972)
(-0.56249 0.913183 0.367729)
(-0.312601 0.975794 0.250665)
(-0.440689 0.942836 0.297956)
(-0.43408 1.03807 0.302147)
(-0.621732 0.928231 0.416262)
(-0.7307 0.861884 0.476935)
(-0.635071 0.938911 0.33854)
(-0.832313 0.903918 0.450728)
(-0.369854 0.816946 0.271033)
(-0.369657 0.828345 0.277342)
(-0.507574 0.806621 0.344269)
(-0.242639 0.804702 0.246568)
(-0.423896 0.957821 0.124347)
(-0.673296 1.06265 0.218221)
(-0.436589 0.949183 0.0508144)
(-0.715997 1.05066 0.08108)
(-0.643619 0.949041 0.209584)
(-1.01784 0.940224 0.334551)
(-0.66357 0.936213 0.08226)
(-1.03813 0.931402 0.125357)
(-0.356071 0.809259 0.102783)
(-0.587505 0.822077 0.189798)
(-0.366433 0.818547 0.0379996)
(-0.634045 0.827371 0.0688128)
(-0.436885 0.694846 0.256278)
(-0.331004 0.688578 0.219396)
(-0.55411 0.474478 0.260859)
(-0.255341 0.565539 0.162476)
(-0.475697 0.700484 0.360303)
(-0.191158 0.678193 0.256232)
(-0.525022 0.487021 0.408526)
(-0.140771 0.582617 0.271517)
(-0.451345 0.676244 0.118345)
(-0.46848 0.679177 0.139811)
(-0.578968 0.469251 0.148109)
(-0.301496 0.567218 0.0835052)
(-0.405436 0.682294 0.0921196)
(-0.53787 0.671691 0.101351)
(-0.530612 0.465026 0.103076)
(-0.381894 0.554078 0.0782872)
(-0.117762 0.0709454 0.442677)
(-0.110642 0.0589207 0.290521)
(-0.0971975 0.0441134 0.0945192)
(-0.0758558 0.0401587 0.479575)
(-0.0748095 0.0351659 0.300743)
(-0.066267 0.0347469 0.103777)
(-0.321073 0.105619 0.436685)
(-0.28122 0.0769538 0.284364)
(-0.249395 0.061179 0.0961353)
(-0.207325 0.0931371 0.479946)
(-0.176305 0.0844259 0.300155)
(-0.151199 0.0742643 0.10138)
(-0.423048 0.114095 0.41841)
(-0.365086 0.113374 0.268209)
(-0.338007 0.122132 0.0897132)
(-0.298035 0.168286 0.47311)
(-0.244865 0.149024 0.296042)
(-0.224932 0.138251 0.101605)
(-0.391467 1.07967 0.260564)
(-0.324777 0.978976 0.147307)
(-0.312247 0.905471 0.0376926)
(-0.605546 0.892337 0.303606)
(-0.461732 0.850442 0.206971)
(-0.381399 0.812262 0.0671273)
(-0.538017 0.606202 0.345119)
(-0.403593 0.589086 0.243267)
(-0.319185 0.580679 0.0819342)
(-0.594619 0.42474 0.379486)
(-0.475609 0.409232 0.246095)
(-0.407207 0.403848 0.0803535)
(-0.45017 0.273255 0.459458)
(-0.312454 0.206541 0.287396)
(-0.237875 0.17157 0.101602)
(-0.731871 0.853122 0.289142)
(-0.606167 0.800617 0.157369)
(-0.545921 0.760404 0.0511521)
(-0.531551 0.844921 0.272026)
(-0.429779 0.800774 0.174978)
(-0.362902 0.774613 0.0602843)
(-0.462979 0.625453 0.302569)
(-0.355753 0.566451 0.19858)
(-0.285787 0.533416 0.0674038)
(-0.407894 0.446279 0.358803)
(-0.311714 0.400834 0.22962)
(-0.25305 0.380761 0.0780277)
(-0.431404 0.290772 0.435431)
(-0.263706 0.219749 0.252331)
(-0.16876 0.182451 0.0869795)
(-0.450585 1.1093 -0.0197561)
(-0.737082 1.15655 0.0394524)
(-0.380528 1.17741 0.0174214)
(-0.547327 1.08647 0.104939)
(-0.362741 1.08082 0.0688948)
(-0.749702 1.08593 0.0703555)
(-0.302736 1.28608 0.17826)
(-0.613266 1.11294 0.157225)
(-0.00889209 0.708667 0.0237868)
(-0.0695792 0.78305 0.0389939)
(0.00832018 0.705049 0.0252119)
(-0.0407294 0.696041 0.040915)
(-0.143253 0.940907 0.0132101)
(-0.267803 0.830921 0.0376194)
(-0.089956 0.91798 0.0247234)
(-0.160852 0.726254 0.05524)
(-0.0763787 1.01015 0.0752356)
(-0.160973 1.0579 0.0450577)
(-0.436894 0.869099 0.152646)
(-0.654256 0.981318 0.107707)
(-0.346405 1.14316 0.0700763)
(-0.254077 0.998459 0.115068)
(-0.457124 1.12723 0.116324)
(-0.399528 1.168 0.0342213)
(-0.608919 1.19153 0.229852)
(-0.65097 1.27475 0.0736832)
(0.0195144 0.966107 -0.159769)
(0.211717 0.990091 -0.0212959)
(-0.332388 0.842647 0.0293584)
(-0.234814 0.829609 0.0300171)
(-0.254544 0.961069 0.00308977)
(-0.146934 0.926391 0.00990244)
(-0.06423 0.652382 0.414285)
(-0.0412474 0.362771 0.187581)
(-0.0508704 0.606984 0.110265)
(-0.0308476 0.402314 0.0673475)
(-0.157624 0.63311 0.408449)
(-0.0530647 0.354574 0.190604)
(-0.0779134 0.583655 0.120132)
(-0.0101499 0.388626 0.0793974)
(-0.398416 0.579518 0.397131)
(-0.123785 0.327572 0.21027)
(-0.296136 0.542232 0.162877)
(-0.0934249 0.369099 0.118828)
(-0.333779 0.531613 0.123802)
(-0.10117 0.383853 0.0828956)
(-0.377411 0.509756 0.0708342)
(-0.125639 0.383206 0.0650174)
(-0.487707 0.894329 0.522814)
(-0.485397 0.711758 0.457891)
(-0.380524 0.871061 0.229817)
(-0.483215 0.712802 0.293799)
(-0.727829 0.998751 0.578352)
(-0.659325 0.899789 0.540604)
(-0.59681 0.995945 0.281515)
(-0.629145 0.880577 0.338207)
(-0.288003 0.802216 0.212426)
(-0.3821 0.560779 0.25658)
(-0.33604 0.838906 0.449162)
(-0.352077 0.544854 0.372832)
(-0.356551 0.884209 0.146711)
(-0.482228 0.71268 0.191965)
(-0.374773 0.905864 0.0853548)
(-0.487899 0.709854 0.112092)
(-0.570069 1.01582 0.188526)
(-0.6191 0.872122 0.220649)
(-0.590834 1.03078 0.109603)
(-0.624745 0.866623 0.1269)
(-0.255229 0.777485 0.121797)
(-0.389065 0.565959 0.169497)
(-0.247752 0.770294 0.0693694)
(-0.395092 0.56493 0.103281)
(-0.0458278 0.473428 0.192066)
(-0.0717661 0.318433 0.141094)
(-0.316459 0.421567 0.219435)
(-0.191303 0.255147 0.153861)
(-0.045974 0.438835 0.328679)
(-0.0636027 0.283498 0.204451)
(-0.277389 0.395875 0.295087)
(-0.163219 0.231911 0.203103)
(-0.0441848 0.483107 0.115106)
(-0.06436 0.338656 0.0961644)
(-0.334957 0.432491 0.152244)
(-0.210029 0.268153 0.10546)
(-0.0560489 0.485309 0.0656848)
(-0.0689245 0.352403 0.0607714)
(-0.339313 0.43496 0.0961119)
(-0.221551 0.275927 0.0645296)
(0.00477486 0.102849 0.488839)
(0.00994735 0.0545298 0.339049)
(-0.0206316 0.18519 0.248101)
(-0.0157988 0.0961516 0.267423)
(0.027466 0.106494 0.485092)
(0.0474938 0.0635832 0.337222)
(-0.0361285 0.187269 0.246206)
(-0.028159 0.10724 0.262779)
(-0.058421 0.116489 0.491369)
(-0.0186376 0.0862576 0.322425)
(-0.114302 0.184925 0.252208)
(-0.105072 0.12581 0.244612)
(0.304574 0.540173 0.526988)
(0.155612 0.90479 0.502872)
(0.173302 0.345592 0.497667)
(0.105381 0.310404 0.388733)
(-0.0153949 0.209532 0.234063)
(0.281627 0.927522 0.30724)
(0.414358 0.598176 0.376399)
(0.193508 0.331309 0.405479)
(0.186788 0.292992 0.387835)
(-0.0145535 0.158615 0.284558)
(-0.369308 0.894172 0.435338)
(-0.276703 0.649203 0.395921)
(-0.236646 0.474612 0.333876)
(-0.250787 0.342644 0.276205)
(-0.160653 0.194589 0.189401)
(0.0191358 0.0391852 0.302591)
(0.0147463 0.0392034 0.310728)
(-0.0102384 0.0616825 0.310696)
(-0.0164122 0.059121 0.387852)
(0.0529443 0.0494365 0.299379)
(0.0616302 0.0381468 0.298553)
(-0.0299612 0.0775815 0.302729)
(-0.0417685 0.0713137 0.377954)
(0.0403854 0.070972 0.28212)
(0.068221 0.0640222 0.277695)
(-0.0719414 0.0969162 0.286286)
(-0.0911251 0.0865113 0.359445)
(0.12607 0.946052 0.345985)
(0.069736 0.915993 0.327554)
(0.323418 0.605962 0.329192)
(0.233721 0.563059 0.285579)
(0.167527 0.378712 0.253878)
(0.122086 0.372746 0.257794)
(0.144401 0.287886 0.252501)
(0.121369 0.283321 0.268485)
(-0.0306652 0.143882 0.249974)
(-0.0689704 0.129535 0.336968)
(-0.194832 0.825057 0.253143)
(-0.133809 0.717506 0.28734)
(0.0172952 0.604484 0.216503)
(0.0908303 0.529192 0.247519)
(0.0183258 0.451597 0.198746)
(0.074838 0.42036 0.229262)
(-0.0318584 0.314926 0.201824)
(0.0143298 0.311404 0.245912)
(-0.0565758 0.179485 0.192285)
(-0.0782358 0.211579 0.309313)
(-0.166494 0.570221 0.190243)
(-0.184453 0.460075 0.152883)
(-0.394415 0.574167 0.129998)
(-0.252008 0.432863 0.0684523)
(-0.343447 0.724226 0.286724)
(-0.337526 0.543011 0.218298)
(-0.518165 0.732271 0.231558)
(-0.407348 0.531592 0.145341)
(-0.312272 0.468538 0.102688)
(-0.196633 0.386543 0.0598418)
(-0.111974 0.463943 0.152127)
(-0.140158 0.413365 0.138376)
(-0.46659 0.59132 0.169501)
(-0.198656 0.411672 0.0731919)
(-0.499887 0.5949 0.0792501)
(-0.182646 0.414939 0.0435692)
(-0.595374 0.765658 0.217343)
(-0.39156 0.54385 0.123583)
(-0.632855 0.762066 0.0896962)
(-0.37465 0.546563 0.0617091)
(-0.374466 0.471183 0.14039)
(-0.146106 0.362037 0.0610436)
(-0.406272 0.477706 0.0715147)
(-0.127193 0.376086 0.0362389)
(-0.251033 0.329332 0.0915359)
(-0.212563 0.310683 0.111156)
(-0.208703 0.201905 0.116821)
(-0.359154 0.289898 0.198928)
(-0.132526 0.334442 0.13786)
(-0.173658 0.326634 0.170218)
(-0.144622 0.205662 0.142844)
(-0.30501 0.286688 0.260207)
(-0.274942 0.328165 0.106438)
(-0.201858 0.301648 0.0803772)
(-0.24919 0.195406 0.0844702)
(-0.410718 0.30401 0.141012)
(-0.326331 0.345302 0.0491964)
(-0.193962 0.303644 0.0209753)
(-0.286852 0.204369 0.0205842)
(-0.409526 0.300412 0.0374182)
(0.0227428 0.107058 0.248563)
(0.0324869 0.0862288 0.113976)
(0.0390629 0.0677175 0.0326658)
(-0.0106786 0.413417 0.272198)
(0.00582101 0.200835 0.0724603)
(0.00862916 0.153401 0.0190551)
(0.0852232 0.0972164 0.239594)
(0.109263 0.0921103 0.117362)
(0.120088 0.0786521 0.0364636)
(-0.0174839 0.428844 0.26902)
(0.025515 0.231745 0.0741724)
(0.0322466 0.186556 0.0203938)
(0.102004 0.11915 0.214776)
(0.155699 0.127905 0.10571)
(0.178963 0.128786 0.0271568)
(-0.0506751 0.445016 0.254362)
(0.0450519 0.282588 0.0682461)
(0.0652693 0.247744 0.0153516)
(0.0421937 0.838218 0.220938)
(0.0651201 0.771434 0.119948)
(0.0595559 0.721266 0.0312746)
(0.188447 0.542222 0.191553)
(0.206444 0.518529 0.102165)
(0.193508 0.500842 0.0282553)
(0.146515 0.396717 0.194028)
(0.178207 0.38789 0.0969161)
(0.17452 0.382266 0.0274455)
(0.152769 0.352742 0.197452)
(0.202962 0.338509 0.09292)
(0.213442 0.332336 0.02132)
(-0.0352243 0.504606 0.239409)
(0.0656904 0.366029 0.0596695)
(0.0647573 0.328675 0.0101016)
(-0.155922 0.621892 0.245709)
(-0.0734458 0.567524 0.128621)
(-0.0400591 0.529635 0.0395409)
(0.0629001 0.478979 0.21733)
(0.116847 0.445006 0.118298)
(0.134329 0.424284 0.0388823)
(0.0695236 0.425988 0.202141)
(0.130886 0.390542 0.105615)
(0.14688 0.363123 0.0345819)
(0.0377081 0.412989 0.200963)
(0.114476 0.373753 0.0815269)
(0.131219 0.352086 0.0218066)
(-0.0910676 0.64708 0.24649)
(0.0442612 0.4544 0.0604702)
(0.0549584 0.416305 0.0190017)
(-0.00346185 0.186497 0.0741656)
(0.000265631 0.109638 0.0285957)
(0.00169817 0.0828303 0.0131825)
(0.003711 0.0835386 2.93087e-06)
(0.00439087 0.21196 0.0299919)
(0.00447852 0.119901 0.0122359)
(0.00523914 0.0867708 0.00615899)
(0.00556347 0.0857135 0.00109307)
(-0.00950251 0.180213 0.0768249)
(0.000203313 0.107527 0.0307085)
(0.00450983 0.0824213 0.0157196)
(0.00977335 0.0845468 0.00270662)
(0.0100731 0.210112 0.0363566)
(0.0103065 0.120149 0.0164934)
(0.0114983 0.0875577 0.0103582)
(0.0127673 0.0860717 0.00485148)
(-0.0192907 0.169071 0.0884993)
(-0.0024909 0.104288 0.0368345)
(0.00500101 0.0826013 0.0206274)
(0.0150154 0.0826991 0.00623344)
(0.000804489 0.203796 0.0628413)
(0.00846629 0.121091 0.0327218)
(0.0107262 0.0895181 0.0189079)
(0.0148848 0.0838074 0.00902226)
(0.0013825 0.21484 0.0463934)
(0.00556638 0.12685 0.0294308)
(0.00461401 0.0908744 0.0152973)
(0.00512444 0.0899811 0.00538412)
(-0.00738601 0.22146 0.0484971)
(-0.000482237 0.132821 0.033701)
(0.00230086 0.0952901 0.0205909)
(0.00531506 0.0940732 0.0118356)
(-0.0474244 0.181039 0.0745073)
(-0.014042 0.111224 0.035598)
(-0.00397444 0.0857381 0.0185473)
(0.00923078 0.0835951 0.00195357)
(-0.0714767 0.138524 0.0715583)
(-0.0222808 0.0933843 0.0329123)
(-0.0110849 0.0782364 0.0189167)
(0.0128303 0.0787253 -0.00186029)
(-0.0405921 0.152934 0.0939454)
(-0.0107725 0.0982635 0.0395419)
(-0.000754455 0.0806746 0.0223469)
(0.0147856 0.0759536 0.00478253)
(-0.0585423 0.120762 0.0848147)
(-0.0178412 0.0849921 0.034945)
(-0.00941263 0.0741334 0.0204163)
(0.0128681 0.0745907 -0.00319614)
(-0.0437 0.197574 0.0565129)
(-0.0134911 0.120564 0.0312257)
(-0.00404027 0.089839 0.0167464)
(0.00776248 0.0885426 0.00234188)
(-0.0786345 0.149383 0.0555965)
(-0.0246798 0.0998917 0.0291972)
(-0.0118033 0.081331 0.017856)
(0.0158067 0.0815514 0.002989)
(-0.0462128 0.206943 0.0419815)
(-0.0157365 0.127065 0.0272848)
(-0.00415934 0.0934136 0.0177335)
(0.0100773 0.0908995 0.0105696)
(-0.0822775 0.155435 0.0385447)
(-0.0260834 0.104621 0.0244911)
(-0.01251 0.0840102 0.0171295)
(0.0172975 0.0825588 0.0101077)
(-0.00355042 0.134977 0.0957756)
(-0.00025739 0.092193 0.0349513)
(0.000738054 0.0763488 0.0158192)
(0.00338325 0.0784943 -0.00416314)
(-0.00325146 0.0785402 0.101675)
(-0.000172205 0.070947 0.0342282)
(0.000260321 0.0678381 0.0168501)
(0.00353968 0.0722128 -0.0118565)
(-0.00979356 0.129702 0.0956256)
(-0.000948758 0.0902188 0.0354857)
(0.00207109 0.0759943 0.0171628)
(0.00892734 0.0783924 -0.00277817)
(-0.00608373 0.0773954 0.0976612)
(0.000521048 0.0705004 0.0330579)
(0.00127751 0.0676267 0.0167961)
(0.00964722 0.0726128 -0.0110244)
(-0.0329495 0.121491 0.0965362)
(-0.00826888 0.0870851 0.0365663)
(-0.000729715 0.0754778 0.0197768)
(0.0138706 0.077615 -0.000643112)
(-0.0263569 0.0797513 0.0875719)
(-0.00543987 0.0714503 0.0299778)
(-0.000461829 0.0675835 0.0166659)
(0.0153564 0.0741347 -0.00814728)
(-0.0185783 0.11184 0.0895614)
(-0.0020663 0.0820469 0.0352289)
(0.00310366 0.073105 0.0219288)
(0.0149338 0.0771404 0.00540125)
(-0.0126447 0.0798231 0.0964061)
(-0.000738278 0.0712062 0.0339405)
(0.000962782 0.0684451 0.0215859)
(0.0148234 0.0740558 -0.0081432)
(-0.0504346 0.0972512 0.0702953)
(-0.0139779 0.0766011 0.0274532)
(-0.00635435 0.0691503 0.0173268)
(0.0172395 0.0717963 0.00160005)
(0.00119294 0.0141633 0.0853284)
(0.00122868 0.0505233 0.0252282)
(0.00103255 0.0522235 0.0122691)
(0.00273903 0.0163807 -0.0110412)
(0.00537894 -0.0640054 0.0338399)
(0.00240533 0.0388462 0.00897634)
(0.0014848 0.044107 0.00373952)
(0.00165726 0.0157763 -0.00273361)
(-0.000133804 0.021371 0.0839287)
(0.00229678 0.0531625 0.0255513)
(0.00212492 0.053231 0.0127545)
(0.00727167 0.0173736 -0.00991452)
(0.0128598 -0.052596 0.0343394)
(0.00617149 0.041988 0.00943686)
(0.00376354 0.0449701 0.00419837)
(0.00442185 0.0160601 -0.00214377)
(-0.0057876 0.0328198 0.0783128)
(0.00144351 0.0570685 0.0248508)
(0.00241484 0.0542856 0.013423)
(0.0113949 0.0173181 -0.00782732)
(0.0165709 -0.0351743 0.0328138)
(0.00875967 0.0469296 0.00950334)
(0.00564298 0.0460921 0.00477085)
(0.00680849 0.016149 -0.00127811)
(-0.00822591 0.0479608 0.065762)
(0.00180736 0.0616933 0.0213262)
(0.00306876 0.0555231 0.0129714)
(0.01514 0.0184201 -0.00553336)
(0.0155981 -0.0161884 0.028838)
(0.0101286 0.0527461 0.00842988)
(0.00650738 0.0477586 0.00513901)
(0.00813808 0.0167403 -0.000156456)
(-0.0184917 0.0681465 0.0575907)
(-0.000242029 0.067684 0.0199567)
(0.000468192 0.0578541 0.0129163)
(0.0150707 0.0206285 -0.00238768)
(0.00609829 -7.75277e-05 0.0257343)
(0.00892797 0.0578427 0.00852372)
(0.00536751 0.0493727 0.00594436)
(0.0076985 0.0172292 0.00150565)
(-0.052988 0.0812359 0.0455496)
(-0.00658592 0.0744165 0.0195414)
(-0.0031553 0.0595259 0.0115186)
(0.0147141 0.0190921 0.000711999)
(-0.0170697 -0.00806472 0.0234351)
(0.00277162 0.0628695 0.0119319)
(0.00234134 0.0527073 0.00753565)
(0.00586689 0.0179807 0.00416925)
(-0.0364969 0.0798493 0.0487375)
(-0.00250801 0.0714935 0.0177126)
(-0.00152407 0.0580394 0.0110918)
(0.0148006 0.0191949 -0.000827281)
(-0.00849622 -0.00474511 0.0232747)
(0.00589155 0.0610385 0.00952915)
(0.00385147 0.050912 0.00652425)
(0.00689263 0.0174826 0.00294515)
(-0.0667362 0.0796427 0.040286)
(-0.0122265 0.0765854 0.0210445)
(-0.00573908 0.0613106 0.0128534)
(0.0158287 0.0179556 0.00330237)
(-0.0228576 -0.0137564 0.0238557)
(-0.000632616 0.0646574 0.0142558)
(0.000642789 0.0543106 0.00904309)
(0.00528297 0.0180927 0.00580054)
(-0.0762892 0.0790981 0.0311287)
(-0.0183907 0.0796499 0.0203901)
(-0.00890994 0.0642945 0.0140078)
(0.0156679 0.0186969 0.00865635)
(-0.0285045 -0.00662629 0.0220474)
(-0.00506938 0.0678071 0.0154687)
(-0.0015761 0.0565272 0.0107605)
(0.00448613 0.0187068 0.00820176)
(0.00153299 0.0850925 0.000590136)
(0.000749123 0.0680843 0.000536137)
(0.000411667 0.0490948 0.000370334)
(0.000254982 0.0295333 0.00025152)
(0.000191786 0.00984795 0.000195265)
(0.00208003 0.0852064 0.00035769)
(0.00113169 0.0681404 0.000279256)
(0.000652449 0.0491479 0.000188999)
(0.000413164 0.0295649 0.000128928)
(0.000312868 0.00985806 0.000100835)
(0.00329535 0.0866048 0.00156538)
(0.00159395 0.0686366 0.00113888)
(0.000871893 0.0493527 0.000737557)
(0.000541768 0.0296518 0.000490872)
(0.000410526 0.00988246 0.000378174)
(0.00549899 0.0864602 0.00171985)
(0.00307899 0.0687823 0.00112616)
(0.00180327 0.0494769 0.000702138)
(0.00115471 0.0297218 0.00046137)
(0.000879327 0.00990455 0.000354122)
(0.00467739 0.0875555 0.00384882)
(0.00229104 0.0692412 0.00261407)
(0.00127632 0.0496404 0.00165151)
(0.000802809 0.029784 0.00109458)
(0.000612078 0.00992089 0.000843529)
(0.00788648 0.0868847 0.00775726)
(0.0043726 0.0696892 0.00485691)
(0.0025854 0.0499726 0.0030127)
(0.00166928 0.0299648 0.00198151)
(0.0012764 0.00997769 0.00152153)
(0.00268367 0.0898677 0.00801954)
(0.00143944 0.0709097 0.00513434)
(0.000852079 0.0506725 0.00322249)
(0.00055256 0.030324 0.00213143)
(0.00042322 0.0100881 0.0016423)
(0.00154341 0.0915489 0.00876308)
(0.000787197 0.072069 0.00542692)
(0.000452713 0.0513795 0.0033658)
(0.000291053 0.030693 0.00221811)
(0.00022187 0.010202 0.0017092)
(0.00412498 0.0899285 0.00516628)
(0.00190302 0.0704626 0.00350892)
(0.00106397 0.0502879 0.00223521)
(0.000674059 0.0301049 0.00148492)
(0.000511851 0.0100184 0.00114074)
(0.000979252 0.0926875 0.00408867)
(0.000287327 0.0708644 0.00276)
(0.000126071 0.0503591 0.00175967)
(7.1229e-05 0.0301198 0.00117255)
(5.18995e-05 0.0100209 0.000902181)
(0.00601617 0.0884271 0.00534025)
(0.00312639 0.0698942 0.00349512)
(0.0018195 0.0499429 0.00219105)
(0.00117016 0.0299241 0.00145279)
(0.000894201 0.0099619 0.00111816)
(0.00169605 0.092066 0.00416557)
(0.000699641 0.0705034 0.00247252)
(0.000375054 0.0501483 0.00152149)
(0.000232825 0.0300101 0.00100567)
(0.000174578 0.00998655 0.000770928)
(0.00151325 0.091114 0.00582975)
(0.00041623 0.0711429 0.00411963)
(0.000169366 0.0507082 0.00265073)
(9.3034e-05 0.0303267 0.00176764)
(6.74252e-05 0.0100875 0.00136347)
(0.00102334 0.0938128 0.00567364)
(0.000321665 0.0715384 0.00381213)
(0.000150222 0.050767 0.00242538)
(8.90735e-05 0.0303343 0.00161395)
(6.63427e-05 0.0100877 0.00124364)
(0.00147081 0.0922401 0.00781582)
(0.00038324 0.0723565 0.00495733)
(0.000147347 0.0514747 0.0030887)
(7.89367e-05 0.0307294 0.00203783)
(5.51517e-05 0.0102122 0.00156969)
(0.00075875 0.0951312 0.00751119)
(0.000116189 0.0727178 0.00478158)
(1.84203e-05 0.051513 0.00298319)
(1.62846e-06 0.0307281 0.00196863)
(-2.07048e-06 0.0102104 0.00151438)
(0.00124961 0.0851077 0.000187169)
(0.000565883 0.0680627 0.0004211)
(0.000298105 0.0490421 0.000306826)
(0.000179895 0.0294993 0.000210346)
(0.00013385 0.00983696 0.000163928)
(0.00114805 0.0866138 -5.50517e-05)
(0.000529974 0.068135 0.000156832)
(0.000281593 0.0490164 0.000120812)
(0.000170289 0.0294796 8.46558e-05)
(0.000126779 0.00983048 6.70989e-05)
(0.00286693 0.0861369 0.000767989)
(0.00128126 0.0685094 0.000752586)
(0.000677257 0.0492397 0.000507994)
(0.000410549 0.0295868 0.00034263)
(0.000307158 0.00986185 0.000266545)
(0.00266357 0.0875491 7.20738e-05)
(0.00120308 0.0685348 0.000233501)
(0.000641492 0.0491904 0.000167652)
(0.000389332 0.0295559 0.000115428)
(0.000290131 0.0098522 9.14963e-05)
(0.00373806 0.0877227 0.0013719)
(0.00156747 0.0691118 0.001168)
(0.000821982 0.0494974 0.000765891)
(0.000497097 0.0297011 0.000515456)
(0.00037225 0.00989437 0.000402299)
(0.00320033 0.0894985 0.000804283)
(0.00147945 0.0691092 0.000614243)
(0.000808123 0.0494297 0.000385441)
(0.000495613 0.0296614 0.000253489)
(0.000373354 0.00988214 0.000197924)
(0.00431055 0.0900833 0.00445518)
(0.00221034 0.0697727 0.00288188)
(0.00127835 0.0497818 0.0017884)
(0.000816884 0.0298305 0.00118876)
(0.000624802 0.00993166 0.000921014)
(0.00211676 0.0914542 0.0022172)
(0.00108072 0.0696456 0.00143201)
(0.000614439 0.0496836 0.000879397)
(0.000384021 0.0297792 0.000582114)
(0.000293528 0.00991556 0.000452166)
(0.00248206 0.0915606 0.00573276)
(0.0013297 0.0701899 0.00317971)
(0.000784185 0.0499819 0.00190726)
(0.000507617 0.0299263 0.00124934)
(0.000388769 0.00996029 0.000958555)
(-0.0203092 0.31697 0.0902474)
(-0.0241962 0.488875 0.156488)
(-0.0558481 0.335346 0.0847666)
(-0.0685533 0.504247 0.151653)
(-0.0853257 0.365912 0.0784434)
(-0.109404 0.529394 0.14083)
(-0.103986 0.402442 0.0760469)
(-0.144918 0.571912 0.135122)
(-0.10488 0.443846 0.0837281)
(-0.145919 0.644351 0.155616)
(-0.094483 0.41481 0.048288)
(-0.123175 0.512184 0.072568)
(-0.089491 0.424042 0.0682472)
(-0.107028 0.545737 0.109321)
(-0.104974 0.413813 0.03138)
(-0.141107 0.507524 0.0430689)
(-0.107483 0.409546 0.0116183)
(-0.146306 0.506933 0.0168264)
(-0.0186201 0.253521 0.267166)
(-0.00406054 0.0452935 0.0641659)
(-0.000880627 0.00993693 0.014674)
(-0.000186212 0.00222719 0.00324075)
(-4.5039e-05 0.000391722 0.000808734)
(-0.00829177 0.301485 0.0710151)
(-0.00291581 0.083089 0.0187875)
(-0.000330453 0.0201824 0.00502095)
(-9.1744e-05 0.004566 0.00112142)
(-3.59269e-05 0.000796123 0.000248945)
(-0.0601117 0.260183 0.26568)
(-0.0132068 0.0448236 0.0629113)
(-0.00288095 0.00964995 0.0142786)
(-0.000613852 0.00214269 0.00312993)
(-0.000149549 0.000374672 0.000777412)
(-0.0215883 0.308614 0.0733331)
(-0.00459677 0.0837824 0.0213195)
(-0.000931408 0.0200844 0.00522852)
(-0.00018159 0.00448409 0.00120887)
(-3.89366e-05 0.000778987 0.000301723)
(-0.106087 0.272358 0.257359)
(-0.0234445 0.0451619 0.0598801)
(-0.00514389 0.00947745 0.0134398)
(-0.0011059 0.0020761 0.00292263)
(-0.000271775 0.000360529 0.000721702)
(-0.0375518 0.322282 0.0711876)
(-0.00886282 0.0855659 0.0206418)
(-0.00194681 0.020135 0.00502441)
(-0.000421686 0.00444111 0.00114993)
(-0.000101338 0.000765886 0.000284287)
(-0.152734 0.287224 0.242761)
(-0.0339435 0.0453829 0.0553588)
(-0.00751995 0.00928277 0.0123078)
(-0.00163521 0.00201322 0.00266557)
(-0.000406838 0.000348528 0.000657551)
(-0.0525839 0.339922 0.0686116)
(-0.0135085 0.0878423 0.0194561)
(-0.00316899 0.0203474 0.00464071)
(-0.00072174 0.00445429 0.00104495)
(-0.000181879 0.000765768 0.000254654)
(-0.213936 0.300303 0.214249)
(-0.048901 0.0455829 0.0480931)
(-0.0110644 0.00926064 0.0106781)
(-0.00244991 0.00201825 0.00232096)
(-0.00062009 0.000351536 0.000576279)
(-0.0698104 0.356748 0.0641898)
(-0.0202472 0.0899254 0.0173666)
(-0.00503626 0.0207938 0.00404728)
(-0.0011854 0.00457548 0.000899758)
(-0.000306866 0.000790997 0.000217218)
(-0.290823 0.295511 0.121402)
(-0.0725442 0.053273 0.0290739)
(-0.0173222 0.0120017 0.00668016)
(-0.00399105 0.00277763 0.00148476)
(-0.00104132 0.00050088 0.00037486)
(-0.0806111 0.333205 0.0325678)
(-0.0248786 0.0945323 0.00826027)
(-0.0064004 0.023585 0.00178777)
(-0.00153527 0.00548441 0.000367226)
(-0.000404258 0.000983841 8.32769e-05)
(-0.263942 0.298924 0.168865)
(-0.0638021 0.0502174 0.039318)
(-0.0148693 0.0107831 0.00887574)
(-0.00335987 0.00242028 0.00194904)
(-0.000863228 0.000428491 0.000488246)
(-0.0782814 0.343322 0.0455996)
(-0.0243285 0.0928695 0.0119214)
(-0.00624478 0.022298 0.0027195)
(-0.00149393 0.00503217 0.000597079)
(-0.000389997 0.000884738 0.000143359)
(-0.303853 0.293966 0.076225)
(-0.0768366 0.0553297 0.0187207)
(-0.0185766 0.0128236 0.00436245)
(-0.00432729 0.00302817 0.000978799)
(-0.00113888 0.000553224 0.00024844)
(-0.0820657 0.330743 0.0207115)
(-0.0246664 0.0956517 0.00536653)
(-0.00625276 0.0243731 0.00113846)
(-0.00148361 0.00577745 0.000221551)
(-0.000389591 0.00105138 4.76263e-05)
(-0.313481 0.292747 0.0278978)
(-0.0790596 0.0546781 0.00692886)
(-0.0192001 0.0127294 0.00162593)
(-0.00449765 0.00303067 0.000367049)
(-0.00118984 0.000557357 9.36021e-05)
(-0.0818596 0.329316 0.00998177)
(-0.024697 0.095141 0.00232741)
(-0.00625859 0.0244144 0.000458704)
(-0.00137864 0.00583299 0.000125101)
(-0.000383923 0.00106737 1.69027e-05)
(-0.0111445 1.38367 -0.0470243)
(-0.254623 1.92211 0.0251671)
(-0.250498 1.72171 0.16242)
(-0.142991 1.30246 -0.138444)
(0.143217 0.729455 0.0381536)
(0.197309 0.765116 0.0406909)
(0.39808 1.16263 0.101766)
(0.523374 1.16425 0.124082)
(0.223483 0.782704 0.0834639)
(0.454653 0.834598 0.135118)
(0.0876803 1.24702 0.111471)
(0.276236 1.65734 0.168592)
(0.223588 1.84066 0.106184)
(0.37107 2.49435 0.138801)
(0.406303 0.938857 0.0507639)
(0.560425 1.02968 0.0740964)
(0.490915 0.7602 0.0555832)
(0.558138 0.740181 0.0647139)
(0.280337 0.527302 0.0389021)
(0.317075 0.541549 0.0403054)
(-0.751034 0.167318 0.113573)
(-0.563902 0.121006 0.0902402)
(-0.184283 0.0368974 -0.0167113)