/*--------------------------------*- C++ -*----------------------------------*\
| =========                 |                                                 |
| \\      /  F ield         | OpenFOAM: The Open Source CFD Toolbox           |
|  \\    /   O peration     | Version:  2412                                  |
|   \\  /    A nd           | Website:  www.openfoam.com                      |
|    \\/     M anipulation  |                                                 |
\*---------------------------------------------------------------------------*/
FoamFile
{
    version     2.0;
    format      ascii;
    arch        "LSB;label=32;scalar=64";
    class       volScalarField;
    location    "3";
    object      gradTy;
}
// * * * * * * * * * * * * * * * * * * * * * * * * * * * * * * * * * * * * * //

dimensions      [0 -1 0 1 0 0 0];

internalField   nonuniform List<scalar> 
5712
(
12476.3
6854.34
21757.1
14231.3
20940.3
17786.4
30914.8
38233.8
47016.6
59453.5
24889.7
21845.4
15330.9
10551.7
10107.4
5753.13
20836.3
18921.7
18797.7
18688.4
23924.2
23063
27573.8
23826.1
7364.68
5193.04
3830.57
2651.01
10743.6
6969.58
5947.78
3854.42
21061.2
22364.7
18972.6
15593.9
15394.9
11961.7
12983.6
12386.4
17398.7
17067.8
35274
38823.3
25363.7
26777.5
18166.4
14298.7
18618.1
13088.4
7907.16
6813.41
5857.08
8549.41
2909.32
3912.17
7772.94
11439.6
4871.97
6612.52
7955.24
13737.9
6052.62
9844.06
1902.61
6631.23
338.87
4756.47
18011.6
21684.6
18810.3
21408.1
22787.7
23285.9
23124.5
22648.1
16676.1
20162.4
16737.9
19911.6
18805.1
21208.6
18433.1
21043.3
23237.8
22272.1
23206.1
22057.5
15635.7
20178.6
14256.3
20077.2
17028.6
18085
21460.4
29781.8
17806.4
20758.4
21317.3
32373.5
16129.6
16076.9
21366.8
28366.5
15511.3
14792.1
21346.7
27674.6
4188.91
5246.76
11383.5
18371.7
5053.63
5622.95
14144.1
20721.8
6063.48
6304.83
17367.3
23534.5
24534.5
27536.6
20397.9
18455.7
24669.9
28102.3
24105.4
20457.6
17111.9
27747.4
25762.6
23554.4
19558.2
19746.1
36305.9
1534.18
2018.14
4053.58
8221.98
2183.7
3011.14
5427.93
9696.23
3313.6
3202.29
7329.33
11663.5
27577.6
27847.9
22716.7
22010.1
18898.4
17049.6
13682
12252.7
10347.1
15245.4
24367.8
22276.5
22332.7
21196.3
18662.3
17451.4
15847.5
14162
12366.4
16820.7
22829.6
24394.8
23570.9
25951.7
23205.8
21547.1
23472.8
22597.9
20423.7
20708.6
20165.5
20117.5
23945.5
26566.3
23729.6
26266.6
23726
23505.6
23405.3
23285.1
20231.5
20551.9
20463.7
20684.3
17371.1
17214.4
11862
14138.5
17512.1
16954.8
12175.5
14565.4
16906.1
16979.4
11731.3
14180.5
17057.3
16792.3
11625.6
13851.9
1773.64
1473.02
1102.84
1003.97
879.148
868.672
2640.48
1923.84
1529.48
2328.43
2110.65
1856.61
2852.37
2834.34
3053.29
4207.15
3725.61
3456.27
26991.8
24474.4
22636.8
22308.4
21261
20306.6
15155.1
14727.2
14517
10618.5
10230.8
10096.2
6831.37
5163.54
4289.26
21328.1
20015.4
19010.1
21123
20019.4
19365.3
15636.3
14161.3
13335.4
11157
10020.9
9519.02
7269.31
5493.74
4561.29
27732.6
28913.8
29435.3
27161.7
27020.5
27148.2
32151.9
27823.4
17716.7
19576.3
17626.2
17401
23522.7
20773
22949.5
18156.3
25253.7
26447.4
21727.5
24533
28579
24961.5
28180.7
29200.1
29788.2
31868.7
24152.7
24752.3
21066.2
20740.2
24026.7
23159.8
16309.6
9069.27
15174.6
10057.9
15827.7
8864.35
14591.4
9715.65
14488
8189.29
13555.8
9227.46
13290.3
9596.33
12743.9
9580.15
22358.2
17794
21776.5
17820.1
24968.8
22494.7
24898.6
22014.4
20055.4
14019.5
20972.7
13621.3
22105.2
17817
22646.6
17746.3
25395.6
21803
25769.5
21665.6
19437.1
14149
19257.3
14123.3
11835.7
7960.82
10539.2
6378.68
10970.9
7087.45
9896.88
5797.77
12077.7
8466.41
10812.3
6703.84
12132.7
8810.08
10874
6898.18
2571.23
1363.25
4629.76
2403.79
2662.35
1589.58
4681.73
2680.99
2912.23
2156.44
4623.14
3145.25
13504.3
22619.8
8639.81
7760.09
5238.3
23188
14954.4
8282.73
7324.81
3965.38
22354.3
16230.1
11865.3
8566.11
4864.74
979.629
980.084
1542.06
1478.03
1235.91
953.671
1939.54
1782.84
1774.3
1600.56
2422.91
2162.78
23651.3
22899.8
15149
14076.5
9467.8
9318.65
7197.14
7083.03
3597.05
3238.38
20626.4
17937.6
15112.1
13229.8
11289.9
10509
7873.15
7785.1
4487.12
5289.49
14255.5
11501.9
14354.2
10821.6
18105.6
13575.3
18306.8
13289.8
11713.4
9663.58
11598.6
10334.1
14783
10291.8
14872.5
10373.5
19141.5
13596.3
19051.7
13664.1
11779.6
9050.92
11942.6
9402.15
8233.3
7767.08
5047.62
7247.45
8361.05
8165.86
5141.56
7167.2
8204.12
7541.19
4885.16
7600.24
8632.56
7591.09
5109.23
7510.31
2676.46
2155.72
1692.94
10335.4
5020.88
3835.02
2430.41
2302.76
1966.3
10721.1
5793.62
4663.9
2978.74
3197.63
3219.66
11125.4
7064.69
6193.59
20955.5
19285.8
18031.7
13555.5
12963.2
12521
9917.92
9697.24
9556.64
8818.55
8462.72
8308.4
12615.2
9150.72
8216.88
15547.3
14188.1
13240.9
11974.5
11125.1
10607.1
10649.7
9763.54
9078.06
10324.7
9343.81
8802.14
16177
11360
10407.6
4662.43
2740.96
2070.76
2088.46
5299.01
2997.53
2169.27
2142.84
4505.32
2688.17
2060.53
2113.67
5252.8
3003.72
2188.94
2151.79
4226.79
2607.21
2065.03
2067.48
5094.89
3027.28
2237.95
2095.18
5370.99
3171.25
2271.86
2249.53
5536.5
3320.52
2382.25
2351.83
4525.97
2780.61
2143.45
2089.88
3463.09
2334.61
1955.91
1968.13
3823.34
2456.59
2016.87
1898.84
3019.05
2124.8
1853.34
1864.77
4939.34
3014.1
2245.98
2213.56
3734.58
2497.29
2033.27
2038.79
5173.59
3176.63
2335.34
2272.49
3885.87
2615.54
2100.25
2063.97
3374.43
2304.83
1908.72
1962.36
1963.51
1773.67
1695.95
1805.32
3242.55
2255.47
1899.86
1959.81
1934.89
1762.51
1690.67
1815.32
3037.28
2177.13
1886.94
1940.38
1993.78
1786.26
1689.59
1853.37
2795.99
2051.17
1827.62
1928.51
1995.58
1780.16
1711.13
1851.39
2431.28
1915.03
1728.76
1794.91
354.084
1263.08
1305.59
409.518
-1600.14
971.154
1102.67
394.406
534.275
1329.06
1330.78
434.34
-1314.9
1049.7
1124.25
401.502
820.496
1426.71
1357.14
432.952
-879.358
1173.24
1152.3
403.726
1199.02
1542.33
1388.08
460.503
-404.71
1318.65
1193.97
418.509
1703.66
1692.1
1446.35
515.713
-1.93819
1446.07
1234.32
430.731
2030.9
1860.41
1488.15
477.302
-201.618
1571.74
1317.68
449.518
1996.23
1787.34
1450.98
479.873
-118.628
1525.96
1272.8
437.066
1991.07
1914.64
1532.77
448.89
-343.909
1616.44
1357.76
452.317
1977.45
1991.25
1607.36
467.423
-165.657
1695.18
1413.18
467.67
2127.31
1702.11
1227.37
738.332
246.199
2130.16
1703.51
1228.7
739.121
246.452
2165.12
1715.91
1233.82
741.295
247.061
2161.5
1719.56
1236.92
743.045
247.614
2188.89
1731.03
1241.01
744.6
248.022
2172.12
1742.23
1249.32
749.12
249.442
2246.69
1772.74
1266.81
758.1
252.202
2288.72
1801.73
1284.49
767.326
255.05
2248.21
1761.56
1257.2
752.623
250.46
2317.19
1771.61
1258.98
752.994
250.522
2210.68
1747.36
1248.57
748.102
249.047
2301.65
1762.58
1253.71
750.252
249.664
2277.85
1778.57
1267.71
758.168
252.187
2345.32
1788.46
1269.18
758.357
252.194
2306
1808.91
1286.87
768.235
255.306
2378.28
1817.95
1287.82
768.202
255.26
2127.69
1701.57
1226.05
737.483
245.924
2165.34
1703.38
1225.41
736.99
245.762
2153.42
1712.73
1230.99
739.671
246.546
2188.73
1713.37
1229.76
738.899
246.305
2193.07
1727.79
1237.44
742.526
247.359
2237.46
1727.73
1235.74
741.535
247.053
2252.08
1744.32
1244.54
745.763
248.291
2286.35
1741.14
1242.09
744.48
247.889
2289.01
1754.75
1249.55
748.156
249.007
7924.25
12221.9
8383.65
12606.2
9147.8
13234.8
10061.1
14297.8
11096.1
16108.8
10370.3
12804.6
10601.1
13643.4
10345.3
12688.1
10238.7
12673.3
6338.04
1132.34
248.423
55.6798
9.79305
7537.12
2077.22
504.56
114.15
19.9031
6504.58
1120.59
241.249
53.5672
9.36681
7715.35
2094.56
502.109
112.102
19.4747
6808.96
1129.05
236.936
51.9024
9.01323
8057.06
2139.15
503.376
111.028
19.1471
7180.59
1134.57
232.069
50.3305
8.7132
8498.06
2196.06
508.685
111.357
19.1442
7507.57
1139.57
231.516
50.4561
8.7884
8918.69
2248.13
519.844
114.387
19.7749
7387.78
1331.82
300.042
69.4408
12.522
8330.12
2363.31
589.625
137.11
24.596
7473.11
1255.43
269.577
60.5069
10.7123
8583.05
2321.74
557.449
125.804
22.1185
7349.15
1383.24
320.589
75.7042
13.8306
8268.57
2391.29
609.329
144.436
26.2846
7318.68
1366.95
318.235
75.7666
13.9339
8232.91
2378.52
610.36
145.825
26.6844
34591.7
48052.6
43042.7
32561.5
18236.4
19127.9
29065.8
29106.3
19567.6
20865
31175.6
41433.5
46016.6
62358.8
23471.4
25742
19005
18504.5
13182.6
13538.7
4182.96
3025.14
922.435
746.656
879.938
766.753
911.032
4231.31
4385.51
2861.39
3829.38
3504.53
1697.92
2325.54
2060.79
1433.02
1611.56
1365.54
3677.09
2266.9
1522.33
1406.19
1686.86
1475.63
1183.17
1194.74
1139.24
1032.29
1295.88
1218.73
3751.19
2483.57
2626.76
1894.1
1624.27
2204.48
1219.34
1006.09
1342.32
8908.59
9478.91
9978.13
12625.6
22714.7
6877.03
8034.45
8973.97
10765.9
12825.5
2439.28
3514.79
4355.74
4944.09
5251.63
1984.98
2882.01
3590.83
4083.93
4338.36
2333.04
3372.74
4184.16
4742.58
5028.81
2038.01
2957.48
3681.55
4182.53
4439.73
2411.88
3480.01
4313.36
4890.55
5188.93
9423.6
10329.6
10510.2
12224.1
20638.3
9452.53
10040.4
10222.3
11325.9
13819.3
6677.36
7975.19
8720.66
9737.76
10806.3
8415.73
9194.4
9401.07
9980.49
11094.6
7809.77
8714.41
8907.72
9335.52
10047.5
4273.78
5731.61
6729.15
7446.31
7872.78
5587.64
6993.21
7835.13
8565.27
9133.06
5042.98
6467.66
7324.77
7949.3
8348.39
3684
5090.75
6096.35
6782.67
7151.87
4081.84
5517.02
6495.3
7164.48
7535.98
3529.82
4914.49
5912.52
6583.29
6934.13
8397.21
9556.69
10018.2
11936.7
20277.1
5516.96
7018.19
8026.19
9085.4
9989.58
3893.88
5345.6
6390.74
7144.47
7579.35
3627.65
5043.02
6089.38
6845.1
7273.84
4266.07
5761.47
6836.85
7692.94
8249.19
3796.37
5254.68
6340.02
7159.53
7639.06
3092.81
4382.97
5373.66
6088.49
6478.83
3123.84
4427.42
5419.16
6118.3
6493.68
2988.99
4253.77
5208.07
5855.75
6188.76
2721.31
3900.84
4806.15
5426.46
5745.97
3366.83
4725.47
5729.76
6420.2
6786.97
3182.48
4500.88
5493.79
6183.57
6550.31
8304.54
9205.33
9743.51
12043.9
20950.9
5879.83
7261.5
8311.23
9741.39
11171.2
6633.64
8292.57
9149.92
10850.1
12690.7
4750.85
6310.49
7455
8545.07
9295.03
4147.52
5666.32
6791.22
7707.97
8268.2
5461.99
7013.31
8042.67
9217.16
10023.6
3182.89
4500.96
5505.62
6224.79
6616.74
2653.08
3806.07
4696.51
5313.26
5634.15
3478.87
4868.28
5908.99
6660.41
7080.21
18479.2
12010.8
19600.2
14765.3
23727.8
33438.2
25271.7
34824.5
20506.3
20144.5
18079.8
18818.7
21703.9
21626.6
26558.7
22869.8
14145.8
12341.9
6329.49
4979.32
16506.8
13088.5
8781.43
5855.34
21234
23405.6
19535.7
17448.7
20267.7
13556.9
12815.3
12380.2
17397.5
17066.5
35134.9
38819.5
24920.8
26659.9
18574.1
14411.2
19082.3
13177.9
8294.01
6886.11
12896.5
15394.4
5226.75
6300.96
13847.3
17230.1
7043.79
8858.7
12121.7
17527.2
7590.23
11587.9
2156.37
7250.3
355.547
4877.73
18261.2
20135.3
18510.4
20563.2
21196.5
21178.4
22122
21481.7
17089.7
19792.1
18313.5
19230.9
18606.5
20772.9
18364.2
20900.8
22726.3
21673.9
23059.5
21864.3
15739.6
19979.3
14263.5
20009.4
17569.2
19162
21582
30216.6
18741.3
22807.8
21578.4
33287.7
16374.2
16562.9
21408.9
28558.9
15574.9
14922
21354.4
27730.1
17204.4
19647
22561.7
31761.2
16442
17786.2
23304.8
31538.6
14393.4
14902.6
23484.2
30282.1
18466.6
20478.9
18724.3
19017.6
27744.5
20094.4
17458.5
19748.7
17662.3
31535.9
20345.2
19261.3
17751.2
20168.8
38042.9
12554.8
12105.1
10374.3
12927.9
12233.9
11912
10594.9
13405
11263.4
10329
10475.1
13494.6
19779
19363.9
17015
16360.8
18050.3
16716
14203.5
12721.8
11628.5
15405.1
19682.1
18571.7
18651
18313.1
16912.6
15877.3
15794.8
13730.1
12539
15973.3
20809.6
22511.7
22413.1
24793.7
20869.1
19739.7
22185.5
21568
19714.1
19926.7
18972.3
18865
23381.6
26024.7
23559.5
26104.6
23109.5
23040.2
23221.8
23146.9
19866.9
20151.9
20350.9
20565.6
17069
16778.9
11788.6
13938.8
17124.2
16330.3
12173.6
14285
16729
16735.4
11668.1
14054.3
16998.1
16714.9
11601.1
13807.7
11782.4
12754.1
4529.61
4656.74
11483.4
11611.3
5193.09
5410.08
9295.59
9093.29
5661.02
5520.9
19004.4
18169.3
16938.1
16812.8
15052
14645.5
10978.9
10137
7140.65
5580.49
18578.1
17885.1
19159.1
18299.2
14484.1
13286.2
10773.2
9697.32
6513.6
5099.85
23187.3
23275.5
27224.4
24508.7
24495.4
23767.2
31879.4
26322.5
18873.2
14806.5
20130.5
15833
19742.5
14878.5
20975.9
15815.2
21732.8
20187.9
19226.7
18779.3
20435.6
21616.4
26874.2
28806.8
28970.2
31617.5
22465.6
24219.9
19967.5
20428.9
22269.6
22636.5
12365.5
9755.13
13323.1
10127.1
12048.6
9478.88
12986.9
9801.41
11498.6
8726.89
12291.7
9225.72
12553.1
9519.32
12524.8
9543.27
18337.2
16472.2
19863.6
16913.5
21723.3
20215.8
23292.8
20717.2
18133
13626.5
16993.8
13328.3
21166.8
17303.4
22365.3
17574.1
24592
21125.5
25531.3
21445.1
18519.7
13877.8
18993.2
14024.1
11347.3
8245.24
10651.1
6784.83
10710.9
7972.12
10452.4
6685.2
11731.8
8541.27
10806
6891.34
12009.9
8814.88
10867.7
6967.51
10825.7
11419.1
9025.37
8686.48
10366.4
11092.3
8685.94
8351.27
9764.11
10321
7858.89
7449.15
16357.6
20323.6
14393.2
10082.8
7572.85
19800.9
17508.1
15977.9
10348.8
7122.04
19838.9
16397.4
13329.7
10625.7
6698.34
13375.4
16443.5
9460.38
11168.4
12584.4
14833.3
8817.75
10207.6
11191.2
12546.7
7391.09
7868.94
19271.6
18158.5
15877
15112.1
14684.1
15506.8
10814.5
11888.2
6980.27
7162.51
17972.8
15639.2
14900.6
13131.9
12738.8
12218.9
10201.9
10484.4
6365.01
7533.91
13799.1
11499.7
14060
10889.4
16573.5
12673.8
17435.6
12862.6
11895.2
10088.5
12014.9
11103.3
14588.5
10318.7
14803.5
10376.4
18693.8
13401.5
18914.1
13607.1
11802.9
9211.66
11917.9
9432.53
8649.61
8372.62
5526.72
8058.21
9296.44
9374.61
6155.27
8698.25
8353.87
7794.4
5099.24
8014.55
8685.47
7674.09
5199.73
7644.42
22287.7
23560.4
28815.4
23683.1
19271.9
20459
26983.4
22291.8
15689.9
16628.3
23319.4
19636
17122.6
16345
15140.3
15036.7
16597.9
16996.8
14469.1
14277.1
21968.5
18979.9
13625.4
13243.9
12295.4
12405.4
12899.2
12921.9
13977.4
13634.7
23293
19229.2
6052.18
3708.98
2675.24
2566.28
6273.44
3811.33
2721.45
2592.56
5773.91
3591.85
2609.94
2555.08
6086.87
3716.53
2665.16
2544.37
5310.27
3409.91
2532.45
2432.63
5714.55
3599.79
2636.62
2412.45
5726.15
3534.22
2562.28
2486.57
5651.44
3445.07
2478.14
2434.61
5093.51
3242.08
2457.89
2356.3
3961.85
2731.31
2205.99
2183.4
4777.97
3129.66
2419.72
2210.7
3841.71
2728.28
2196.57
2128.68
5237.86
3279.74
2436.73
2381.96
4003.42
2719.68
2191.89
2188.79
5261.79
3265.93
2404.35
2333.5
3974.17
2688.15
2156.47
2115.62
5580.41
3502.09
2589.11
2467.71
4805.95
3181.34
2453.38
2324.53
5253.5
3390.29
2536.9
2435.67
4490.01
3091.71
2412.52
2318.34
4769.07
3212.24
2462.59
2369.35
4059.45
2954.44
2334.54
2316.07
4237.28
2940.31
2303.81
2275.55
3729.76
2812.32
2258.43
2234.47
3654.28
2704.82
2162.58
2074.06
3443.85
2770.79
2015.22
574.498
1038.93
2491.57
1818.37
584.185
3269.61
2737.16
2005.66
597.498
1038.47
2466.49
1806.2
584.687
3010.69
2659.48
1954.83
574.972
999.891
2411.7
1764.72
568.954
2985.83
2589.05
1927.4
599.24
1159.31
2357.85
1727.96
566.049
2994.8
2501.97
1897.46
644.376
1218.27
2264.45
1674.04
557.187
2454.98
2243.82
1805.86
598.011
28.422
1938.33
1569.43
532.001
2778.94
2376.62
1851.05
609.694
435.487
2098.42
1617.44
541.45
2189.18
2126.13
1736.21
531.711
-282.431
1815.59
1510.19
504.619
2024.7
2057.64
1676.03
495.922
-160.416
1756.71
1463.22
485.184
2522.9
1944.88
1365.51
808.223
267.472
2499.06
1936.92
1362.86
807.212
267.194
2543.24
1941.7
1361.39
805.718
266.662
2495.19
1928.67
1356.59
803.698
266.086
2539.12
1936.76
1356.5
802.828
265.732
2443.52
1910.92
1345.66
797.956
264.318
2422.35
1878.06
1327.4
788.934
261.608
2354.6
1842.85
1308.34
779.506
258.774
2488.6
1908.64
1340.92
795.033
263.378
2560.5
1918.82
1342.35
795.171
263.365
2522.78
1929.85
1350.81
799.65
264.728
2608.67
1932.22
1348.33
797.957
264.177
2439.83
1884.27
1328.83
789.278
261.676
2503.33
1894.26
1330.55
789.599
261.725
2360.48
1844.71
1307.81
778.953
258.587
2431.75
1855.23
1309.82
779.48
258.718
2561.05
1956.15
1368.8
809.392
267.786
2644.91
1966.59
1371.04
810.117
267.977
2576.12
1955.66
1366.19
807.637
267.2
2658.84
1966.46
1368.87
808.625
267.478
2600.11
1954.16
1362.35
805.213
266.402
2690.44
1965.22
1365.34
806.395
266.743
2637.01
1949.04
1357.08
802.244
265.453
2711.53
1957.03
1359.94
803.526
265.822
2643.03
1941.1
1352.55
799.959
264.757
10430.4
13943.9
10399.7
13923.5
10443.9
13936.4
10821.2
14535.1
11342.5
15840.5
10378.1
12733.6
10679.5
13547.2
10332.4
12635.6
10232.1
12654.8
7448.91
1287.64
276.892
61.3174
10.7088
8623.35
2341.24
561.45
125.739
21.7757
7450.55
1252.58
265.651
58.448
10.1642
8614.58
2320.58
551.638
122.267
21.132
7486.5
1225.82
255.37
55.6851
9.64129
8663.48
2304.73
541.237
119.024
20.4728
7592.99
1194.55
244.088
52.9121
9.15449
8824.2
2298.3
533.919
116.963
20.1027
7691.81
1169.06
238.15
52.0032
9.06576
9012
2299.27
534.524
117.919
20.407
7407.79
1337.06
301.856
69.9938
12.637
8325.6
2370.37
592.992
138.181
24.8204
7544.27
1269.3
273.333
61.4964
10.9022
8607.74
2343.79
565.121
127.884
22.5187
7349.84
1384.5
321.296
75.9629
13.8892
8256.08
2392.17
610.483
144.898
26.3915
7317.19
1367.02
318.386
75.8334
13.9501
8227.4
2378.32
610.597
145.944
26.7141
34156.8
47915.2
42736.8
31277.6
23454.3
27755.6
23303.2
27795.9
26132
40436.1
28145.7
43959.4
285.897
303.639
343.124
405.841
492.34
603.404
300.889
318.376
357.028
417.674
501.112
608.679
273.592
267.427
291.723
285.554
332.583
326.733
399.432
396.052
492.144
495.764
613.494
631.222
738.581
913.137
1154.81
1515.25
1868.38
2151.46
742.937
910.133
1116.88
1357.09
1578.05
1724.93
765.644
1123.76
1412.85
1615.63
1720.11
812.968
1192.8
1499.16
1713.91
1824.5
918.304
1346.48
1691.28
1932.69
2056.93
1085.39
1589.77
1994.93
2278.13
2423.78
1315.23
1923.16
2409.79
2749.34
2923.91
1609
2346.51
2934.08
3343.58
3554.39
805.673
1182.27
1486.14
1699.22
1808.99
852.272
1250.14
1570.88
1795.61
1911.33
955.274
1400.19
1758.22
2008.81
2137.77
1116.65
1634.77
2050.66
2341.35
2490.9
1338.05
1955.32
2449.12
2793.88
2971.35
1622.09
2363.82
2954.61
3367.12
3580.06
732.737
1075.6
1352.47
1546.73
1646.84
716.238
1051.43
1322.16
1512.14
1610.05
781.145
1146.31
1440.97
1647.57
1753.99
764.654
1122.19
1410.77
1613.15
1717.39
890.218
1305.6
1640.26
1874.63
1995.26
874.616
1282.86
1611.88
1842.33
1960.95
1068.42
1565.29
1964.57
2243.67
2387.18
1059.46
1552.33
1948.5
2225.43
2367.81
1314.88
1922.97
2409.71
2749.12
2923.47
1324.54
1937.01
2427.1
2768.65
2944.01
1635.95
2385.72
2982.5
3397.67
3610.99
1682.84
2453.07
3065.07
3489.93
3707.83
1963.5
2851.3
3554.27
4044.96
4299.05
2414.44
3480.07
4317.02
4906.89
5217.73
3021.61
4293.21
5281.39
6001.54
6399.7
3884.65
5366.1
6504.46
7420.74
7989.94
4663.44
6227.1
7436.2
8559.34
9388.26
5254.87
6823.95
8055.21
9361.87
10439.2
1973.73
2863.91
3569.15
4063.21
4320.26
2405.95
3467.76
4303.75
4895.56
5209.01
2929.84
4179.72
5157.47
5866.62
6255.92
3521.25
4951.65
6065.33
6910.67
7403.64
4045.87
5603.94
6817.83
7793.85
8406.72
4385.28
6010.68
7282.07
8352.29
9059.4
289.132
313.459
359.987
430.415
525.271
645.167
304.166
328.293
373.886
441.841
532.772
647.504
276.781
270.582
301.464
295.214
349.468
343.548
424.477
421.223
526.392
530.353
659.124
679.664
788.067
967.269
1207.23
1554.48
1890.69
2157.95
787.412
957.112
1161.3
1392.59
1600.43
1732.44
774.33
1136.59
1429.1
1634.33
1740.08
839.397
1231.92
1548.76
1771.03
1885.56
963.74
1413.85
1776.89
2031.44
2162.58
1151.73
1688.47
2120.78
2423.72
2579.79
1404.42
2056.54
2580.76
2947.96
3137.27
1722.63
2517.69
3155.13
3601.94
3832.85
814.487
1195.31
1502.69
1718.29
1829.37
878.985
1289.74
1621.16
1853.59
1973.35
1000.74
1467.7
1844.13
2108.03
2244
1181.94
1732.02
2174.82
2485.13
2645.06
1423.83
2083.68
2613.78
2985.29
3177.02
1727.72
2522.93
3160.06
3607.24
3838.86
741.301
1088.24
1368.46
1565.12
1666.47
724.71
1063.93
1337.96
1530.3
1629.43
807.341
1185.03
1490.01
1704
1814.27
790.624
1160.56
1459.33
1668.99
1777.03
935.687
1372.94
1725.75
1973.16
2100.63
919.878
1349.86
1696.88
1940.25
2065.63
1136.02
1665.81
2092.69
2391.83
2545.91
1127.39
1653.33
2077.2
2374.24
2527.22
1407.69
2061.86
2587.89
2956.26
3146.07
1418.37
2077.68
2607.88
2979.12
3170.34
1760.3
2573.48
3225.52
3682.24
3918.03
1815.22
2653.85
3326.16
3796.79
4039.61
2099.1
3057.82
3823.82
4362.72
4643.17
2564.59
3712.91
4626.14
5276.23
5620.74
3170.57
4531.95
5607.66
6400.37
6840.54
4002.63
5567.68
6793.77
7788.79
8406.44
4736.45
6361.17
7637.2
8825.56
9699.49
5278.34
6870.14
8127.07
9460.76
10558.1
2095.47
3049.03
3810.44
4347.36
4627.81
2535.75
3667.92
4568.17
5210.31
5551.78
3054.39
4375.85
5421.57
6185.85
6606.64
3623.11
5116.85
6293.42
7192.1
7716.68
4111.82
5714.14
6973.54
7989.9
8627.88
4407.86
6049.24
7337.42
8423.03
9140.05
4166.51
3025.7
987.014
802.589
959.354
833.301
985.797
3936.68
3862.57
2776.32
3265.26
1746.8
2259.96
1516.73
1684.96
1447.73
3561.32
2286.55
1596.55
1486.43
1751.21
1545.39
1249.27
1275.78
1247.8
1133.08
1386.59
1308.03
3707.74
2497.08
2613.24
1933.07
1681.14
2231.73
1293.24
1090.63
1420.92
8903.6
9521.36
10070.2
12809.3
23091
6894.99
8087.53
9067.55
10912.2
13018.7
2619.34
3796.15
4731.9
5395.88
5745.97
2138.58
3116.75
3898.32
4447.46
4732.67
2553.91
3716.87
4643.43
5293.66
5631.61
2221.15
3238.36
4050.88
4620.65
4915.93
2620.4
3806.06
4749.62
5414.83
5762.79
9162.61
10727.5
11631.4
14264.1
24466.9
9056.42
10730.4
11911.6
14277.4
18413
6734.65
8539.25
9878.35
11539.2
13134.9
8132.07
10169.3
11379.6
13192.8
15575
4514.11
6299.37
7673.89
8743.87
9402.28
5677.4
7579.68
8992.47
10290.9
11278.2
3971.38
5648.06
6955.7
7915.21
8454.97
4377.6
6156.46
7530.89
8569.76
9182.5
3805.56
5441.92
6722.54
7647.61
8155.18
8329.78
9862.03
10759.9
13235.9
22731.3
5683.77
7480.36
8843.91
10269.9
11444.2
4153.26
5854.67
7180.3
8190
8786.37
3881.76
5502.6
6772.75
7728.5
8280.56
4498.24
6227.97
7571.55
8680.73
9402.92
4015.75
5648.61
6924.13
7915.22
8500.82
3284.11
4696.8
5810.63
6629.65
7081.03
3361.09
4822.49
5975.45
6811.88
7268.19
3302.79
4768.75
5926.52
6747.41
7183
3005.82
4353.5
5421.91
6176.79
6574.16
3648.69
5226.15
6465.31
7361.72
7852.91
3448.22
4951.93
6137.37
6992.56
7457.52
8306.96
9362.35
10058
12597.3
22069.2
5951.56
7428.68
8587.15
10139.3
11668.8
6715.22
8603.26
9725.16
11745
13851.3
4887.05
6575.12
7865.12
9098.18
9939.36
4331.06
6002.49
7295.78
8368.7
9026.06
5618.14
7394.19
8688.44
10141.3
11134.5
3399.55
4862.18
6014.73
6860.38
7327.12
2891.89
4186.18
5213.09
5941.52
6326.47
3719
5287.41
6518.83
7438.16
7959.8
9965.69
9253.21
8125.13
6700.16
4834.58
1879.41
18584.4
19791.4
21260.2
21861.6
20090.5
20400.5
20515.3
21110.3
16138.5
18332.3
18289.2
18330.9
24365.5
16989.4
26291.8
17568.3
18839
20033.4
20248.2
19373.2
20597.5
19675.3
20848.5
16661
24276
18786.4
23651.1
25237.7
20656.1
30348.4
16432.5
17530.9
18326.8
18187.3
18343.8
20041.4
18439
20224.7
18836.6
23545.4
21150.9
23223.5
26411.2
23185.8
29266.7
15331
16354.6
16720.8
16375.6
17454.3
19701.5
17209
19564.1
17183.2
21761.3
19164.4
20705.2
23353.7
20565.3
26448.3
14230.2
15281.9
15459.1
15055.2
16659.4
19322.3
15985.8
18265.2
15289.6
17795.3
17303.6
16685
20487.1
17553.3
21435.3
13159.9
14189.1
14440.1
14026.1
15349.1
17543.6
14971.3
16947.4
13258.2
14434.2
15191.1
14041.5
18114.4
14919.8
18827.4
21607.8
21766.7
22421.1
23376.5
22407.8
23158.7
21554.9
22417.7
18627.4
11832.7
19775.8
11694.4
19859.1
16537.4
16869.1
20748.8
21211.8
20913.9
21383.3
21872.3
22698.3
20469.2
21490.6
16667.5
11836.3
17447
11569.5
17259.1
15607.8
15661.6
18354.7
18842.1
18824.1
18853.2
19643.3
20337.7
18857
20208.2
15502.6
12655.9
16398.6
12047.2
16866.2
14164.7
16351.4
16071.1
16715.8
16903.1
16652.2
17738
18460.8
17458.1
18940.3
13859.7
13911.2
14840.8
13056.4
15479.6
13049.2
17481.8
14565.3
15359.5
15502.3
15165.3
16538.7
17840.7
16087.1
17475.8
13064.6
15637.1
14475
15497.9
15868.8
14549.5
20237.5
13198.9
14100.1
14418.3
14040.7
15775.9
17556.5
15022.6
16644.3
12822.5
17024.4
14705.4
17683.9
16742.5
15447.6
22713.9
12200.4
6577.22
21740.9
14190.7
20935.9
17772
30909.2
38222.9
47011.2
59437
24895.1
21835.7
15336.5
10531.3
9764.77
5436.7
20831.6
18919.1
18792.4
18686.1
23920.6
23060.7
27569.1
23823.9
7194.32
5104.25
3710.69
2597.03
10735.8
6963.33
5948.61
3858.76
21056.3
22358.8
18969.9
15591.8
15391.6
11962.5
12981.9
12385.8
17397.5
17067.1
35272
38822.2
25362.3
26776.5
18166
14298.8
18617.6
13088.2
7907.12
6813.4
5755.57
8382.55
2844.59
3807.99
7777
11449.8
4881.12
6624.98
7957.67
13742.8
6056.21
9848.59
1903.12
6632.87
338.868
4757.01
18010.3
21683.8
18809.3
21407.6
22786.3
23285.1
23123.3
22647.4
16675.9
20162.2
16737
19911.2
18804.4
21208.2
18432.6
21042.9
23236.9
22271.6
23205.4
22057
15635.4
20178.5
14256.1
20077.1
17029
18086.9
21460.8
29782.8
17806.9
20760.8
21317.9
32374.7
16130
16078
21367.1
28367.2
15511.6
14792.8
21347
27675.1
4134.6
5204.72
11219.8
18224.8
5062.24
5632.4
14157.8
20739.5
6067.01
6308.38
17373.4
23539.9
24533.3
27535.7
20396.4
18456.1
24672.6
28101.3
24104.2
20455.7
17112.2
27750.1
25761.7
23553.6
19557.7
19746.8
36307.5
1509.45
1988.64
4001.27
8151.86
2192.54
3016.18
5439.06
9706.62
3316.72
3204.6
7334.02
11667.5
27576.8
27847.2
22715.7
22009.4
18897.3
17048.8
13682.8
12253.4
10349.4
15247.3
24367.2
22276
22332.1
21195.9
18662
17451.3
15848.1
14162.4
12367.3
16821.5
22829.1
24394.5
23570.6
25951.4
23205.3
21546.8
23472.4
22597.7
20423.5
20708.5
20165.3
20117.4
23945.3
26566.1
23729.3
26266.4
23725.7
23505.4
23405
23284.9
20231.4
20551.8
20463.6
20684.2
17371.3
17214.5
11862.2
14138.7
17512.3
16955
12176
14565.8
16906.2
16979.5
11731.4
14180.6
17057.4
16792.3
11625.8
13852
1739.35
1445.91
1084.04
992.428
870.374
861.965
2642.69
1925.58
1531.92
2333.27
2114.86
1860.8
2853.61
2835.41
3054.38
4209.02
3727.24
3458.06
26991.2
24474
22636.5
22308
21260.8
20306.5
15154.7
14727
14517
10618.9
10231.1
10096.7
6832.29
5164.28
4290.03
21327.7
20015.2
19009.9
21122.8
20019.2
19365.3
15636.3
14161.3
13335.5
11157.3
10021.1
9519.35
7269.69
5494.07
4561.64
27736.9
28915.8
29439.1
27163.2
27018.2
27147.3
32148.7
27822.4
17577.4
19542.6
17452.3
17359.5
23544.6
20767
22975.5
18149.9
25259.1
26453.7
21729.7
24535.5
28578.8
24961.3
28181.2
29199.9
29787.4
31867.8
24154.4
24752.7
21066.9
20740.3
24027.4
23160.2
16293.1
9050.6
15155.5
10042.7
15824.8
8865.12
14588.6
9715.64
14487
8189.29
13555.1
9227.32
13290.4
9596.32
12744.2
9580.31
22359
17793.9
21777
17820
24968.3
22494.3
24898.1
22014
20055.9
14019.6
20973.1
13621.5
22105.3
17816.9
22646.4
17746.1
25395
21802.6
25768.9
21665.1
19437.4
14149
19257.5
14123.2
11836.1
7960.86
10539.3
6378.75
10971.3
7087.54
9897.06
5797.87
12077.9
8466.49
10812.4
6703.9
12132.9
8810.22
10874.1
6898.24
2558.79
1349.54
4615.55
2385.75
2664.79
1591.89
4682.87
2682.27
2913.06
2157.17
4623.5
3145.77
13504.2
22619.1
8639.95
7760.45
5238.54
23187.4
14954.1
8282.52
7324.93
3965.74
22353.8
16229.9
11865.3
8566.28
4864.89
961.106
960.455
1519.23
1468.93
1236.87
954.242
1940.52
1782.95
1774.82
1600.93
2423.38
2162.91
23650.6
22899.2
15148.5
14075.7
9467.21
9317.73
7196.99
7082.69
3597.34
3238.47
20625.9
17937.2
15111.8
13229.4
11289.8
10508.7
7873.23
7785.08
4487.26
5289.49
14255.4
11501.7
14354.1
10821.5
18105.3
13575.1
18306.5
13289.6
11713.4
9663.56
11598.6
10334.1
14782.9
10291.7
14872.3
10373.4
19141.2
13596.1
19051.4
13663.9
11779.6
9050.89
11942.6
9402.11
8233.35
7767.12
5047.67
7247.52
8361.13
8165.9
5141.65
7167.33
8204.14
7541.2
4885.18
7600.28
8632.56
7591.08
5109.24
7510.34
2640.16
2124.23
1667.67
10278
4979.24
3797.73
2429.33
2302.51
1966.97
10728.5
5799.97
4669.44
2979.2
3198.03
3220.01
11128.2
7067.2
6196.02
20954.8
19285.3
18031.2
13554.7
12962.5
12520.4
9916.75
9696.21
9555.83
8818.17
8462.28
8308.02
12616.7
9152.19
8218.42
15546.9
14187.8
13240.6
11974.1
11124.8
10606.8
10649.5
9763.33
9077.88
10324.8
9343.84
8802.19
16177.9
11360.9
10408.7
4662.74
2742.55
2071.44
2087.91
5297.79
2998.13
2169.53
2141.53
4503.97
2687.9
2060.47
2113.55
5251.97
3003.78
2189.02
2151.79
4226.27
2607.1
2065.02
2067.43
5094.52
3027.27
2237.99
2095.17
5370.84
3171.26
2271.89
2249.54
5536.51
3320.58
2382.32
2351.86
4525.86
2780.62
2143.48
2089.89
3463.1
2334.66
1955.96
1968.16
3823.2
2456.59
2016.88
1898.84
3019.07
2124.87
1853.39
1864.79
4939.31
3014.14
2246.02
2213.59
3734.6
2497.35
2033.33
2038.82
5173.64
3176.71
2335.41
2272.53
3885.92
2615.61
2100.32
2064.02
3374.66
2306.46
1909.68
1962.14
1960.05
1773.48
1696.41
1804.46
3241.2
2255.21
1899.75
1959.68
1934.08
1762.56
1690.59
1815.31
3036.83
2177.07
1886.92
1940.34
1993.74
1786.42
1689.64
1853.39
2795.95
2051.24
1827.68
1928.53
1995.7
1780.33
1711.22
1851.43
2431.36
1915.13
1728.83
1794.95
349.758
1262.93
1306.45
409.659
-1604.1
969.708
1102.51
394.3
535.535
1330
1331.11
434.57
-1312.9
1050.73
1124.72
401.657
821.106
1427.17
1357.35
433.057
-878.352
1173.83
1152.59
403.821
1199.37
1542.6
1388.21
460.56
-404.147
1318.99
1194.14
418.567
1703.85
1692.25
1446.45
515.75
-1.64546
1446.26
1234.43
430.768
2030.93
1860.48
1488.19
477.313
-201.607
1571.8
1317.74
449.535
1996.31
1787.43
1451.05
479.891
-118.548
1526.07
1272.87
437.089
1991.08
1914.69
1532.81
448.9
-343.929
1616.49
1357.81
452.333
1977.47
1991.31
1607.42
467.439
-165.687
1695.23
1413.24
467.688
2125.81
1701.36
1227.02
738.167
246.15
2128.11
1702.65
1228.27
738.922
246.391
2165.04
1715.86
1233.79
741.28
247.057
2161.48
1719.52
1236.91
743.042
247.616
2188.84
1730.99
1240.98
744.589
248.02
2172.1
1742.2
1249.3
749.115
249.444
2246.69
1772.73
1266.8
758.095
252.202
2288.73
1801.72
1284.48
767.321
255.049
2248.2
1761.54
1257.18
752.615
250.459
2317.18
1771.59
1258.96
752.985
250.519
2210.65
1747.32
1248.55
748.092
249.045
2301.63
1762.56
1253.69
750.242
249.661
2277.85
1778.56
1267.69
758.161
252.185
2345.33
1788.45
1269.16
758.349
252.192
2306.02
1808.91
1286.86
768.229
255.305
2378.3
1817.94
1287.82
768.196
255.258
2126.54
1700.93
1225.75
737.346
245.883
2164.27
1702.8
1225.14
736.876
245.733
2153.35
1712.67
1230.95
739.654
246.543
2188.68
1713.31
1229.72
738.887
246.308
2193.01
1727.75
1237.4
742.514
247.357
2237.41
1727.68
1235.71
741.524
247.054
2252.04
1744.28
1244.52
745.752
248.289
2286.31
1741.1
1242.06
744.468
247.888
2288.99
1754.72
1249.52
748.146
249.005
7892.05
12184.9
8384.49
12608.5
9148.67
13236
10061.6
14298.4
11096.5
16109.1
10370.4
12804.8
10601.3
13643.7
10345.5
12688.2
10238.8
12673.5
6327.5
1126.74
247.069
55.3773
9.74067
7523.81
2072.96
503.509
113.909
19.8616
6502.49
1118.71
240.627
53.4022
9.33527
7713.46
2092.49
501.31
111.874
19.4289
6807.91
1128.38
236.676
51.8244
8.99723
8056.32
2138.16
502.938
110.89
19.1182
7180.16