/*--------------------------------*- C++ -*----------------------------------*\
| =========                 |                                                 |
| \\      /  F ield         | OpenFOAM: The Open Source CFD Toolbox           |
|  \\    /   O peration     | Version:  2412                                  |
|   \\  /    A nd           | Website:  www.openfoam.com                      |
|    \\/     M anipulation  |                                                 |
\*---------------------------------------------------------------------------*/
FoamFile
{
    version     2.0;
    format      ascii;
    arch        "LSB;label=32;scalar=64";
    class       volScalarField;
    location    "3";
    object      gradTx;
}
// * * * * * * * * * * * * * * * * * * * * * * * * * * * * * * * * * * * * * //

dimensions      [0 -1 0 1 0 0 0];

internalField   nonuniform List<scalar> 
5712
(
-7655.82
-9348.19
-17518.5
-27330.4
-26440.5
-51578.7
-18318
-55073.6
-18896.7
-44168.1
-23221.5
-38152.9
-17775.1
-23472.9
-9558.31
-9690.03
-12375.7
-13954.8
-17028.1
-15419.2
-11883.4
-17905.5
-17724.3
-17773.9
-4989.89
-3593.47
-6770.06
-4822.8
-11304.2
-7271.56
-20950.6
-14549.7
-17466.4
-17660.3
-17666.7
-17738.5
-3990.98
-3616.83
-40759.8
-50427.6
-21672.5
-28945.9
-52661.6
-64808.4
-24420.7
-30042.7
-30468.5
-39859.5
-24251.1
-33633.4
-13898.3
-17638.9
-2814.72
-888.122
-3669.88
-1267.79
-6292.64
-2582.28
-10966
-4014.77
-7144.83
-2371.53
-7285.08
-2058.53
-14362.4
-4175.53
-18851.7
-5899.44
-24442.6
-13928
-20703.8
-14305
-25209.9
-16235.4
-20015.4
-16242.1
-15945.5
-11484.4
-17440.1
-10986.9
-20130.7
-14893
-20808.7
-15310.3
-19622.3
-16672.3
-20386.2
-17032.1
-16499.4
-12231.7
-17808.1
-12718.2
-17528.4
-7155.28
-9940.1
-11287.7
-18811.2
-8215.88
-9787.66
-11723.5
-17615.7
-6701.63
-10464.8
-11184.1
-18231.4
-6757.79
-11036.5
-11318.5
-2718.2
-3044.52
-952.379
-1859.34
-7846.18
-9186.93
-3195.06
-6011.08
-12745
-15123.6
-5656.23
-10084.9
-17225.5
-9130.42
-17225
-20448.2
-10170.9
-6749.62
-10791.1
-12056.4
-20762.7
-12926.7
-9718.22
-12628.9
-13867.9
-13285
-16459.3
-3026.03
-3114.87
-1857.29
-1987.68
-8978.58
-8640.72
-5703.23
-5817.24
-13474.1
-12467.7
-8416.26
-8501.59
-9603.18
-10773.5
-15179.8
-16110.2
-16629.9
-15675.5
-19583.7
-18059.5
-13265.8
-13249.5
-12848.8
-14125.9
-16516.7
-15351.9
-15437.2
-13154.8
-13698.3
-11182.8
-15010.1
-12074.6
-14062.3
-7815.03
-11017.2
-10852
-15543.3
-18267.5
-15876.8
-20807.8
-9246.36
-9241.42
-12689.3
-6065.98
-10597.4
-16832.4
-10914.7
-17899.9
-16090.5
-25446
-16589.2
-25953.3
-8901.77
-14687.6
-9160.82
-15851.1
-10922.1
-8275.11
-13852.7
-6383.53
-11892.4
-4778.96
-13125.5
-3519.26
-11283.6
-11712
-14474.2
-7537.4
-10135.9
-13446.8
-13265.3
-9547.35
-2944.06
-2766.06
-2429.94
-1896.39
-1870.24
-1656.67
-8026.83
-7030.51
-6234.86
-5183.12
-4407.62
-3779.96
-10576.2
-9127.15
-8450.17
-7450.87
-6121.63
-5623.31
-9786.67
-8119.42
-7806.16
-15138.7
-11543.3
-9534.98
-13450.4
-10089.8
-7979.62
-14865.5
-11890.2
-10180.2
-11254.3
-7811.35
-5946.86
-18296.8
-15154.2
-13648
-13288.8
-10744.5
-9072.55
-11574.5
-8893.83
-7144.69
-10197.3
-7792.86
-6326.25
-10785.1
-6592.65
-4219.01
-11264.6
-18427.1
-9513.21
-13683.2
-9068.52
-18742.5
-7568.41
-15331.7
-222.302
-1739.48
208.004
-1018.24
-3581.31
-6695.06
-2248.9
-4021.29
-1909.47
-4024.32
-10922.3
-16356.4
-8660.13
-6351.92
-11428.1
-9988.21
-15223
-16274.3
487.86
5292.92
-8309.71
-5870.34
-6363.59
-3673.36
-1605.75
-1031.19
-1271.76
-771.189
-3940.6
-1326.62
-1947.84
-253.747
-9960.41
-3094.62
-7403.41
-2335.62
-8344.46
-2529.24
-9435.28
-3140.98
-12192.7
-12134.9
-9513.09
-12080.4
-18195.7
-16483.1
-14920.2
-15728.6
-7200.08
-9552.5
-8401
-8801.93
-8913.77
-12055.7
-9369.33
-12197.5
-14251.7
-15477.5
-14770.9
-15618.6
-6380.74
-9726.62
-6193.81
-9877.29
-1145.69
-1794.15
-7911.47
-4782.59
-1149.35
-1590.07
-6934.73
-4080.48
-1104.62
-1609
-8373.92
-5250.72
-1401.22
-1723.11
-8482.82
-5538.77
119.371
248.684
-515.79
-394.97
686.649
1187.35
-903.212
-703.974
-1460.53
-465.941
-2857.55
-2626.8
7614.35
3890.29
4332.56
2634.53
-384.874
7040.67
10359
4837.71
4669.69
-363.838
-9232.69
-6917.56
-5916.16
-6269.68
-4016.33
478.395
368.657
-255.961
-410.306
1323.61
1540.76
-749.03
-1044.21
1009.64
1705.52
-1798.53
-2278.13
3151.75
1743.4
8085.45
5843.03
4188.17
3052.16
3610.03
3034.22
-766.629
-1724.26
-4870.79
-3345.23
432.379
2270.76
458.144
1870.95
-796.461
358.244
-1414.39
-1955.89
-4162.34
-4611.33
-9860.38
-6300.19
-8586.17
-8438.16
-12954.1
-10183.7
-7806.81
-4915.83
-2799.35
-3503.96
-11664.8
-4966.4
-12497.2
-4566.16
-14884.3
-9789
-15821.4
-9366.24
-9361.65
-3652.66
-10156.8
-3179.82
-6275.83
-5314.09
-5217.58
-8978.85
-3313.14
-4341.45
-3615.55
-7625.24
-6873.55
-5046.45
-6229.76
-10268
-8158.27
-4849.05
-7171.3
-10238.2
568.57
812.172
976.574
-266.965
145.525
215.729
2130.58
2731.58
3002.21
-437.097
637.876
806.164
2550.1
3892.47
4474.09
-1266.88
1126.3
1631.73
1054.84
1628
1488.9
4711.18
5161.09
4837.69
3662.87
4455.17
4362.99
3819.24
5074.04
5336.05
-880.608
1642.26
1618.93
-3898.06
-1836.15
-1001.48
1572.5
2921.17
3358.24
1738.09
3272.16
3672.01
942.703
2861.91
3280.47
-2276.69
1106.53
1373.96
-86.5463
6.64077
42.4542
92.7751
109.772
111.963
130.979
139.087
-237.563
5.08283
112.746
244.334
251.827
257.662
287.458
319.183
-482.268
-62.2726
125.025
375.386
20.1122
211.657
268.155
372.121
34.5626
139.16
115.35
128.111
-184.65
-12.0559
57.5214
132.877
-1185.61
-351.049
-99.361
230.769
-1786.92
-557.021
-277.123
320.758
-1014.8
-269.312
-18.8614
369.639
-1463.56
-446.029
-235.316
321.702
-1092.5
-337.278
-101.007
194.062
-1965.86
-616.996
-295.082
395.169
-1155.32
-393.413
-103.984
251.931
-2056.94
-652.084
-312.749
432.437
-88.7605
-6.43475
18.4513
84.5813
-81.2865
-4.30513
6.50803
88.492
-244.839
-23.719
51.7773
223.184
-152.093
13.0262
31.9378
241.181
-823.737
-206.722
-18.2429
346.765
-658.923
-135.997
-11.5457
383.91
-464.459
-51.6576
77.5915
373.346
-316.118
-18.4569
24.0696
370.584
-1260.86
-349.448
-158.859
430.988
29.8234
30.7169
25.8137
68.4757
134.473
60.1334
37.1199
41.4315
-3.34509
57.4195
53.123
181.792
321.494
154.287
94.0884
110.546
-144.69
36.0878
60.3711
284.872
414.271
218.992
141.075
170.212
-205.648
45.1841
76.7191
378.501
389.952
253.214
162.684
203.452
-462.293
-6.05073
11.7048
376.768
152.457
223.199
134.188
192.463
-1324.7
-164.648
-78.8825
367.853
-426.742
69.2904
58.5336
146.672
-912.422
-62.7002
-38.1018
370.014
-212.405
147.289
96.2868
172.316
-1668.41
-305.664
-143.477
395.717
-571.441
-15.8154
16.0697
132.074
-1907.23
-459.768
-222.748
391.697
-712.614
-126.734
-39.4026
112.153
38.3247
18.7281
10.2917
6.37454
4.79465
52.0008
28.2922
16.3112
10.3291
7.82169
82.3839
39.8488
21.7973
13.5442
10.2632
137.475
76.9748
45.0816
28.8678
21.9832
116.935
57.276
31.908
20.0702
15.302
197.162
109.315
64.6349
41.7321
31.91
67.0919
35.986
21.302
13.814
10.5805
38.5853
19.6799
11.3178
7.27633
5.54675
103.124
47.5755
26.5993
16.8515
12.7963
24.4813
7.18317
3.15176
1.78072
1.29749
150.404
78.1599
45.4876
29.2539
22.355
42.4011
17.491
9.37635
5.82063
4.36446
37.8312
10.4058
4.23414
2.32585
1.68563
25.5836
8.04162
3.75554
2.22684
1.65857
36.7702
9.581
3.68366
1.97342
1.37879
18.9687
2.90473
0.460508
0.0407116
-0.051762
31.2403
14.1471
7.45264
4.49737
3.34625
28.7014
13.2494
7.03981
4.25722
3.16947
71.6733
32.0315
16.9314
10.2637
7.67895
66.5893
30.0769
16.0373
9.73329
7.25327
93.4516
39.1868
20.5495
12.4274
9.30624
80.0082
36.9863
20.2031
12.3903
9.33385
107.764
55.2586
31.9588
20.4221
15.62
52.9189
27.018
15.361
9.60054
7.3382
62.0514
33.2426
19.6046
12.6904
9.71923
-507.731
-604.904
-1396.2
-1713.83
-2133.14
-2735.09
-2599.64
-3622.95
-2622
-3647.96
-2362.08
-3079.36
-2237.28
-2675.71
-2624.35
-3527.67
-2687.06
-3657.66
-465.503
-101.513
-22.0157
-4.65529
-1.12597
-207.294
-72.8952
-8.26134
-2.2936
-0.898172
-1502.79
-330.169
-72.0237
-15.3463
-3.73872
-539.708
-114.919
-23.2852
-4.53974
-0.973415
-2652.17
-586.113
-128.597
-27.6474
-6.79436
-938.795
-221.571
-48.6704
-10.5421
-2.53345
-3818.36
-848.587
-187.999
-40.8803
-10.1709
-1314.6
-337.713
-79.2247
-18.0435
-4.54698
-5348.39
-1222.53
-276.61
-61.2478
-15.5023
-1745.26
-506.181
-125.907
-29.635
-7.67165
-7270.59
-1813.61
-433.055
-99.7763
-26.0331
-2015.28
-621.964
-160.01
-38.3817
-10.1065
-6598.55
-1595.05
-371.731
-83.9968
-21.5807
-1957.04
-608.213
-156.12
-37.3482
-9.74993
-7596.32
-1920.91
-464.414
-108.182
-28.4719
-2051.64
-616.66
-156.319
-37.0904
-9.73977
-7837.02
-1976.49
-480.002
-112.441
-29.7461
-2046.49
-617.424
-156.465
-34.4659
-9.59809
-278.613
-6365.58
-6262.46
-3574.79
3580.44
4932.72
9952
13084.3
5587.06
11366.3
2192.01
6905.89
5589.7
9276.75
10157.6
14010.6
12272.9
13953.4
7008.43
7926.87
-18775.8
-14097.6
-4607.08
-3638.21
-2846.96
-4590.36
-3184.86
-12379.6
-12310.6
-10527.2
-11236.6
-9331.43
-6473.13
-8817.62
-5481.97
-4216.81
-5241.22
-3360.81
-20401.2
-10274.3
-3142.24
-5227.64
-7799.75
-5342.67
-6388.73
-4844.38
-2386.76
-4051.23
-3501.1
-4075.62
-18884.5
-11838.1
-11917.9
-7632.59
-8160.41
-8148.21
-4186.92
-5366.08
-5454.29
-12916.4
-12556.6
-11060.7
-11379
-10819
-10170.7
-7699.27
-6568.23
-5645.18
-2687.05
-4089.83
-3409.3
-2570.5
-1608.69
-548.755
-3258.82
-2737.75
-2068.26
-1289.45
-438.418
-2532.62
-2110.48
-1581.45
-979.768
-332.12
-4111.81
-3452.06
-2602.9
-1618.52
-549.352
-2835.42
-2366.59
-1778.39
-1105.5
-375.566
-8337.85
-7227.7
-5960.35
-5800.5
-6573.03
-6811.36
-5487.82
-3995.88
-3367.8
-2917.38
-7339.27
-5067.78
-3921.99
-3031.37
-1391.09
-6109.08
-4637.26
-3273.48
-2631.58
-1897.79
-4746.07
-3339.49
-2248.15
-1889.74
-1152.77
-5172.97
-3911.66
-2803.41
-1762.26
-630.145
-6335.48
-4407.19
-3170.03
-2128.68
-868.846
-3848.09
-2532.95
-1725.75
-1102.35
-424.991
-3495.12
-2721.49
-1959.79
-1208.52
-416.95
-4235.19
-3207.12
-2263.86
-1381.59
-476.302
-2816.42
-2211.34
-1592.83
-974.32
-332.21
-14072.4
-11854.6
-10135.7
-9788.76
-9577.49
-7962.49
-6012.33
-4677.18
-3441.89
-1507.6
-2625.45
-2066.25
-1508.2
-943.892
-329.15
-4453.68
-3581.85
-2669.84
-1699.78
-597.661
-6478.72
-5126.84
-3882.58
-2586.56
-956.9
-4590.29
-3724.17
-2803.13
-1796.79
-628.436
-5584.44
-4590.44
-3454.65
-2183
-748.12
-4239.81
-3486.12
-2606.44
-1629.93
-558.391
-2064.3
-1671.49
-1226.67
-753.31
-255.347
-3572.78
-2952.76
-2202.1
-1363.91
-463.162
-2988.47
-2394.31
-1754.55
-1086.27
-372.272
-3540.27
-2889.04
-2148.06
-1340.47
-459.975
-12890.8
-11778.1
-10371.2
-10371.8
-9620.16
-8871.2
-6743.19
-5593.85
-4546.96
-2129.1
-9694.4
-8021.28
-6542.07
-5284.06
-2441.84
-6294.69
-4824.77
-3760.92
-2639.41
-860.268
-6923.56
-5532.36
-4212.16
-2775.65
-951.245
-6691.22
-5092.93
-3953.79
-2768.51
-877.909
-3630.53
-2961.48
-2213.94
-1395.17
-481.03
-4740.5
-3930
-2946.65
-1836.58
-625.99
-4723.46
-3853.7
-2889.76
-1830.02
-633.362
-6070.43
-13298.5
-10696
-34674.1
-10116.7
-45361.8
-6756.29
-17828.7
-8841.23
-7436.88
-17284.7
-13507.9
-9039.19
-10905.6
-18958.6
-15801.6
-3803.9
-2587.91
-8734.81
-6122.69
-6683.1
-3487.15
-24086.8
-16939.5
-14649
-10219.2
-15166.8
-9878.5
1622.89
-1447.43
-41695.7
-50777.8
-21051.3
-28848.3
-53263.2
-65040.8
-23660.6
-29859.5
-31120.9
-40231.1
-23654.4
-33616.4
-14937.2
-18053.5
-2037.55
-388.349
-4436.24
-1426.72
-3858.64
-1811.51
-12431.7
-4433.99
-1950.65
-915.864
-5474.21
-1511.78
-14435.9
-4148.79
-19031.3
-5943.32
-17963.9
-10990.8
-18512.7
-12822.5
-17572
-12523.5
-17478.9
-14445.6
-14489.2
-10398.6
-13295.6
-8924.12
-19254
-14201.4
-20591.6
-15111.4
-18585.4
-15868
-20099.7
-16798.8
-15968.1
-11712.4
-17689.1
-12567.6
-16720.6
-6982.96
-9191.4
-11035.5
-16288.9
-7610.65
-8302.48
-11248
-17386.6
-6651.8
-10112.4
-11055
-18205.8
-6754.26
-10933.5
-11279.9
-630.866
-468.96
105.261
-626.112
-2331.96
-2865.98
-1627.25
-4210.51
-3450.98
-4594.29
-3568.57
-7735.52
-16359.6
-15777.6
-12940.3
-15124.5
-9059.46
-10660.4
-8482.65
-7181.06
-14959.1
-12116.8
-12258.5
-11523.4
-10873.6
-10179.7
-15464.8
-663.757
-845.077
-417.181
-629.612
-2862.66
-2563.48
-3223.68
-3203.25
-2721.51
-1397.97
-5351.41
-5121.32
-11633.7
-12548.3
-10845
-10827.1
-9658.57
-8053.63
-12946.7
-11167.3
-11404.4
-10820.5
-14962.2
-15517.7
-14004
-12706.9
-11397.9
-9502.32
-10171.1
-8070.77
-13529.3
-10123.2
-12953.1
-7850.45
-10618.4
-10813.8
-15998.8
-19021.1
-15977.1
-21043.4
-8598.22
-8990.42
-11026.8
-5666.01
-10455.6
-16736.3
-10872.9
-17861.4
-16176
-25647.2
-16599
-25956.5
-8643.41
-14491.5
-9089.41
-15791.7
-10326.2
-8016.1
-13532
-6233.74
-10485.3
-4403.67
-12499.7
-3369.82
-11033.1
-11543.1
-14325.9
-7460.27
-10066.8
-13393.3
-13228.5
-9517.99
-1034.07
-785.294
-574.113
-709.398
-1944.26
-902.182
-2691.25
-2680.62
-342.371
-192.078
-4792.8
-4670.57
-13574
-11727.8
-10628.1
-8264.88
-6783.03
-4642.83
-8957.46
-6851.87
-9412.4
-6339.41
-19800.7
-16950.9
-10301.7
-8415.19
-7905.4
-5891.53
-6806.28
-4772.39
-7580.74
-3919.99
-5849.97
-11110.1
-5394.43
-10798.6
-7223.83
-11809.6
-8461.6
-13153.7
-1648.25
-1570.33
-1482.23
-1501.58
-4610.4
-4843.45
-4327.02
-4504.17
-2066.39
-2416.61
-9148.86
-10084.5
-5552.35
-6255.25
-10390.5
-9766.54
-14236.7
-16006.7
470.902
5121.66
-7786.43
-5833.54
-6161.51
-3710.6
-1416.11
-1353.46
-1535.7
-1319.29
-3192.04
-2216.26
-2543.45
-1618.67
-8342.09
-4260.34
-7779.53
-3859.43
-8497.31
-3400.17
-9528.29
-3498.57
-6789.98
-9745.01
-7608.55
-10776
-11275.4
-12786.4
-12501.3
-13908.1
-6144.67
-8961.92
-5409.24
-7980.12
-8142.08
-11503
-9140.14
-12038.7
-13230.5
-14693.5
-14470.1
-15392
-5975.79
-9487.72
-6077.39
-9811.41
-1337.4
-2313.32
-7960.87
-5087.32
-1527.56
-2463.89
-7189.01
-4531.66
-1331.39
-2022.64
-8423.07
-5468.86
-1498.6
-1894.89
-8484.25
-5635.48
-1305.17
-1498.29
-1376.82
-1594.46
-3212
-3610.21
-2497.28
-2928.75
-7763.13
-8478.03
-4699.38
-5245.29
-4335.76
-9411.7
-3067.13
-955.229
-2005.1
-4198.53
-1288.77
-2094.31
1416.17
-1461.33
-13597.4
-10155
-8105.04
-8112.93
-4947.45
-1816.88
-2027.87
-1881.1
-2365.92
-4303.51
-4673.57
-3501.02
-4468.39
-9042.46
-10287.2
-5318.24
-6887.74
-6193.12
-7513.31
-2301.2
-4321.58
-3703.47
-5027.51
-1458.44
-2337.65
-2612
-4009.95
-11283.9
-8830.8
-6412.3
-4424.06
-5038.23
-3478.69
-5054.79
-3594.94
-3315.55
-4132.95
-7684.35
-8192.25
-11504.9
-7884.91
-11229.3
-11248.6
-13984.2
-11426.3
-9773.72
-6558.64
-6257.01
-6962.76
-12470.8
-5874.86
-12720.2
-4781.52
-15359
-10525
-15936
-9519.79
-10378.5
-4594.08
-10453.3
-3425.33
-8215.5
-6884.83
-6968.85
-10832.3
-6355.58
-7405.27
-5844.28
-10539.2
-7925.99
-5991.49
-7296.87
-11391.1
-8485.63
-5138.36
-7515.55
-10536.3
-1729.55
-1790.34
-1708.82
-1342.24
-5090.12
-5722.34
-2793.39
-1557.14
-11182
-9241.29
-4228.54
-544.81
-9378.57
-8120.41
-6132.02
-5064.99
-5284.46
-4140.29
-2190.58
-969.104
-2861.4
592.947
-8435.49
-6980.53
-4207.44
-2864.91
-2933.35
-1341.63
-2521.62
-638.675
-4657.05
428.651
-332.717
-142.615
-48.3671
40.6303
-352.341
-182.049
-58.0357
17.636
-860.235
-371.806
-106.591
135.403
-806.584
-425.473
-171.866
-11.3647
-1308.48
-565.483
-194.005
191.484
-1271.59
-644.089
-364.867
-138.411
-760.298
-405.027
-257.941
-94.9424
-530.705
-255.994
-110.922
27.2202
-1649.99
-654.74
-334.872
42.3909
-1941.09
-623
-337.583
328.352
-1670.03
-657.065
-325.528
71.7483
-1661.5
-532.781
-313.539
329.935
-1450.15
-578.075
-254.585
136.575
-2083.95
-670.444
-352.812
366.372
-1309.37
-499.902
-175.394
216.018
-2108.73
-677.929
-335.812
425.509
-313.821
-121.117
-44.8119
60.5394
-315.981
-105.951
-54.2004
67.9135
-817.321
-319.396
-112.821
161.711
-804.431
-280.62
-137.86
190.997
-1464.86
-551.25
-225.349
291.634
-1417.61
-495.585
-238.932
321.423
-1477.86
-597.217
-284.772
127.169
-1081.37
-399.82
-197.236
321.095
-1685.38
-556.283
-331.251
379.339
-228.099
-76.8794
-30.2482
41.2761
-128.82
-54.1884
-19.9335
3.89624
-637.486
-215.187
-96.7399
109.392
-367.759
-155.778
-66.3988
5.92667
-913.017
-316.893
-148.692
175.877
-543.356
-247.686
-105.898
10.2389
-1108.11
-406.127
-199.954
225.557
-746.809
-340.478
-150.448
7.69066
-1342.32
-459.102
-280.114
201.83
-1019.07
-399.352
-207.988
-27.8419
-2301.54
-745.27
-450.687
150.002
-1227.88
-427.915
-237.671
-40.6275
-1990.21
-647.59
-412.162
148.671
-1281.58
-447.45
-246.979
-50.358
-2306.86
-711.71
-404.553
247.546
-1062.76
-348.674
-184.894
11.8272
-2121.93
-601.96
-314.317
340.992
-871.167
-240.084
-108.426
71.6323
-7.79836
-12.7423
-9.59313
-6.75373
-5.324
-30.3319
-23.6192
-15.868
-10.8139
-8.45677
-16.5763
-26.7699
-20.0938
-14.0669
-11.0075
-95.784
-67.592
-43.9959
-29.5592
-22.9834
-41.2469
-43.0385
-30.1284
-20.6352
-16.0226
-147.424
-99.1377
-62.9047
-41.7682
-32.3278
-48.5289
-32.6639
-20.6216
-13.6379
-10.545
-21.4934
-16.2424
-10.7105
-7.18667
-5.6105
-38.6161
-37.0545
-25.0267
-16.9219
-13.1822
9.59628
-2.18513
-2.63557
-2.01491
-1.62399
-100.459
-69.3212
-43.9376
-29.139
-22.5352
-7.2971
-12.5051
-8.86977
-6.09665
-4.79624
15.9971
-1.51921
-3.00758
-2.42294
-1.97781
5.4545
-3.34002
-3.14035
-2.28501
-1.81853
18.8531
-0.569332
-2.53989
-2.15548
-1.85933
17.3875
2.30905
0.102616
-0.21947
-0.287905
-0.0587843
-8.44628
-6.97816
-5.05194
-4.01701
-3.56418
-8.6338
-6.73383
-4.82149
-3.82381
-4.27702
-20.5849
-16.2482
-11.6071
-9.16739
-10.7998
-20.9693
-15.7831
-11.1773
-8.84097
-3.63818
-26.45
-20.3691
-14.4513
-11.3796
-28.276
-30.2752
-20.9693
-14.5345
-11.366
-73.3723
-50.1334
-31.6067
-21.0123
-16.2159
-36.9595
-25.5616
-16.32
-11.0365
-8.51392
-52.7917
-31.2866
-19.0501
-12.471
-9.60864
-180.831
-296.898
-606.752
-952.467
-1184.65
-1789.61
-1750.44
-2729.14
-1996.05
-2994.83
-2226.84
-2974.59
-1924.25
-2434.87
-2575.81
-3484.84
-2677.57
-3647.73
-468.886
-104.471
-22.8171
-4.83458
-1.16983
-143.771
-66.3962
-6.48101
-2.06104
-0.894463
-1531.84
-341.936
-74.9656
-15.9924
-3.89536
-378.207
-87.4586
-18.6274
-3.74478
-0.815996
-2703.27
-604.877
-133.304
-28.6994
-7.05331
-742.761
-188.442
-43.1146
-9.6305
-2.36175
-3866.04
-867.685
-193.053
-42.0564
-10.4704
-1136.45
-307.273
-74.1005
-17.2113
-4.395
-5382.62
-1239.21
-281.397
-62.4259
-15.8165
-1626
-485.127
-122.388
-29.0927
-7.58316
-7274.78
-1819.07
-435.157
-100.401
-26.2243
-1991.8
-616.745
-159.01
-38.2168
-10.079
-6617.21
-1606.62
-375.46
-84.9912
-21.8627
-1898.36
-596.535
-154.097
-37.0431
-9.7047
-7594.88
-1922.99
-465.405
-108.509
-28.5783
-2044.1
-614.904
-155.95
-37.0236
-9.72673
-7836.37
-1977.08
-480.305
-112.545
-29.781
-2045.42
-617.173
-156.406
-34.452
-9.59529
-193.424
-6245.31
-5820.62
-2878.76
-1475.22
-880.781
-3168.71
-2501.05
-5352.75
-5819.16
-3038.59
-2858.28
-438.89
-663.648
-1109.44
-1705.09
-2391.88
-3057.95
-301.77
-625.168
-1262.25
-2126.98
-3105.92
-4068.32
-342.843
-149.331
-601.868
-374.449
-1108.03
-828.947
-1757.37
-1517.77
-2388.48
-2369.79
-2904.14
-3189.86
-3733.71
-4433.2
-5272.53
-7289.25
-7574.56
-9079.63
-4900.21
-5442.77
-5521.23
-5229.46
-4274.72
-3789.79
-396.781
-336.45
-255.791
-159.823
-54.3489
-599.688
-508.227
-386.189
-241.21
-82.0099
-1001.97
-848.647
-644.536
-402.444
-136.811
-1538.71
-1302.21
-988.395
-616.955
-209.715
-2155.88
-1822.36
-1382.11
-862.494
-293.186
-2750.58
-2320.67
-1758.25
-1097.24
-373.119
-272.725
-231.184
-175.709
-109.761
-37.319
-564.713
-478.408
-363.412
-226.936
-77.1487
-1139.61
-964.935
-732.7
-457.455
-155.51
-1918.84
-1623.49
-1232.13
-769.144
-261.473
-2798.54
-2365.09
-1793.82
-1119.75
-380.738
-3658.56
-3086.72
-2339.56
-1461
-497.097
-310.018
-262.919
-199.912
-124.922
-42.4855
-135.036
-114.521
-87.0757
-54.4108
-18.5049
-543.991
-461.123
-350.454
-218.914
-74.4352
-338.471
-286.938
-218.089
-136.235
-46.323
-1000.96
-847.997
-644.15
-402.229
-136.741
-748.941
-634.577
-482.076
-301.034
-102.338
-1586.24
-1342.65
-1019.13
-636.08
-216.195
-1370
-1159.6
-880.1
-549.231
-186.657
-2153.04
-1819.93
-1379.96
-860.846
-292.543
-2135.71
-1804.62
-1367.64
-852.703
-289.675
-2611.39
-2202.05
-1667.16
-1039.63
-353.347
-2866.49
-2414.72
-1825.58
-1136.75
-386.001
-3346.3
-2814.5
-2129.99
-1330.54
-453.049
-3946.51
-3301.54
-2496.87
-1565.93
-535.31
-4632.46
-3837.69
-2906.91
-1845.62
-637.74
-6252.05
-5092.59
-3895.88
-2557.58
-906.095
-6188.57
-4934.18
-3885.43
-2757.75
-1085.39
-7129.89
-5602.07
-4534.75
-3429.96
-1427.43
-4393.32
-3697.74
-2801.29
-1751.84
-597.024
-4856.9
-4074.01
-3086.74
-1937.15
-662.531
-4889.88
-4080.97
-3096.58
-1958.17
-674.667
-4568.53
-3779.85
-2881.89
-1854.01
-649.105
-3635.75
-2967.93
-2294.23
-1536.12
-563.568
-3119.49
-2507.45
-1975.76
-1390.63
-535.574
-463.861
-739.113
-1236.3
-1881.12
-2613.99
-3306.67
-334.604
-724.185
-1426.98
-2351.13
-3371.07
-4337.35
-369.306
-170.111
-682.215
-438.372
-1245.05
-941.08
-1952.68
-1689.14
-2648.28
-2660.86
-3205.27
-3692.17
-3993.85
-4695.23
-5530.4
-7463.15
-7692.2
-9124.35
-5124.58
-5576.58
-5544.42
-5155.65
-4181.31
-3749.22
-419.463
-355.796
-270.589
-169.116
-57.5176
-668.282
-566.78
-431.018
-269.382
-91.6213
-1117.43
-947.383
-720.274
-450.116
-153.089
-1699.31
-1439.94
-1094.38
-683.84
-232.588
-2359.25
-1997.56
-1517.56
-948.309
-322.597
-2979.8
-2519.68
-1913.37
-1196.2
-407.165
-302.547
-256.61
-195.151
-121.967
-41.4811
-654.688
-555.186
-422.175
-263.854
-89.7415
-1289.52
-1093.1
-830.986
-519.306
-176.627
-2123.31
-1798.83
-1367.03
-854.265
-290.58
-3041.34
-2574.28
-1955.58
-1222.24
-415.869
-3906.56
-3302.12
-2507.53
-1568.19
-533.984
-334.031
-283.379
-215.548
-134.732
-45.8292
-153.884
-130.569
-99.3285
-62.0936
-21.1229
-616.972
-523.368
-398.068
-248.813
-84.6319
-396.498
-336.39
-255.886
-159.955
-54.409
-1125.62
-954.545
-725.834
-453.62
-154.284
-850.926
-721.704
-548.842
-343.023
-116.669
-1764.44
-1495.5
-1136.75
-710.314
-241.582
-1526.5
-1293.98
-983.631
-614.633
-209.035
-2390.93
-2024.87
-1538.41
-961.239
-326.953
-2402.6
-2034.94
-1546.05
-965.915
-328.515
-2888.94
-2443.07
-1855.09
-1159.53
-394.603
-3328.79
-2815.53
-2137.64
-1335.66
-454.42
-3588.89
-3028.06
-2298.84
-1439.54
-490.803
-4196.05
-3526.36
-2678.83
-1685.71
-577.252
-4887.3
-4075.85
-3106.68
-1981.28
-686.021
-6445.38
-5290.86
-4077.13
-2690.62
-954.948
-6333.05
-5088.97
-4034.65
-2876.52
-1134.08
-7190.27
-5669.55
-4603.18
-3488.45
-1451.83
-4602.9
-3882.62
-2947.81
-1846.6
-629.885
-4986.44
-4192.88
-3184.68
-2002.55
-685.618
-4920.73
-4117.3
-3132.9
-1985.93
-685.152
-4512.6
-3743
-2863.28
-1848.39
-648.463
-3560.33
-2912.08
-2259.57
-1520.5
-560.038
-3086.96
-2483.45
-1961.21
-1384.75
-534.49
-18692
-14152
-4996.11
-4040.53
-3386.28
-5264.72
-3682.6
-13087.1
-14226.2
-11891
-13663.4
-7430.05
-11537.3
-5442.68
-5706.25
-4035.17
-21085.1
-11101.4
-3637.32
-5826.05
-8415.87
-5712.37
-7033.01
-5373.32
-2627.21
-4735.16
-4101.07
-4562.57
-18758.2
-12053.3
-12422.4
-8010.69
-8511.86
-8584.91
-4829.87
-6034.31
-5882.54
-12896.7
-12600.4
-11160.4
-11558
-11002.7
-10264.6
-7807.75
-6685.73
-5759.61
-2738.11
-4462.73
-3747.4
-2845.69
-1790.64
-612.604
-3633.27
-3066.64
-2327.7
-1456.6
-496.248
-3040.37
-2562.4
-1942.92
-1215.48
-414.31
-4739.62
-4003.73
-3038.31
-1899.16
-646.495
-3304.14
-2783.67
-2111.67
-1322.54
-451.161
-9845.85
-9078.66
-7924.57
-7673.8
-8171.46
-10204.2
-9563.19
-8068.8
-6984.95
-5483.85
-9283.08
-7110.16
-5843.14
-4570.13
-2075.61
-10131.5
-8910.27
-7267.75
-6045.82
-3867.17
-6351.09
-5146.06
-3924.72
-2579.27
-943.851
-9412.38
-7301.31
-5682.18
-3987.97
-1638.95
-4745.98
-3907.92
-2964.36
-1900.19
-669.242
-4958.12
-4070.98
-3089.47
-1987.66
-703.584
-3541.28
-2930.44
-2219.99
-1412.64
-492.544
-15405.8
-13472.5
-11859.6
-11442.2
-10907.8
-9014.25
-7135.14
-5738.63
-4271.67
-1858.58
-3167.39
-2607.94
-1984.69
-1280.09
-453.402
-5087.87
-4207.09
-3216.98
-2084.8
-739.318
-7180.73
-5850.65
-4544.37
-3075.95
-1145.72
-4986.69
-4119.45
-3153.51
-2046.21
-720.443
-6217.47
-5177.69
-3943.49
-2512.73
-864.995
-4770.32
-3988.11
-3030.39
-1918.36
-661.534
-2332.88
-1948.58
-1475.6
-929.441
-319.654
-4232.87
-3555.43
-2695.58
-1691.73
-578.742
-3612.82
-3000.47
-2276.28
-1447.03
-503.084
-4040.13
-3371.06
-2561.21
-1624.75
-562.456
-12982.7
-12039.1
-10760.7
-10895.7
-10195.8
-9174.18
-7070.41
-5921.29
-4832.37
-2261.56
-10442
-8863.34
-7399.45
-6025.51
-2793.7
-6727.79
-5266.99
-4167.33
-2944.8
-962.974
-7328.48
-5951.31
-4598.97
-3062.25
-1056.29
-7218.21
-5635.19
-4461.82
-3155.47
-1015.13
-4264.23
-3550.94
-2705.19
-1726.84
-599.214
-5386.06
-4519.95
-3430.05
-2157.77
-739.17
-5172.16
-4294.01
-3273.98
-2098.98
-731.3
-487.766
-1322.7
-1998.66
-2614.05
-3235.22
-3800.47
-2293.04
-5929.15
-5597.63
-2311.56
-6773.98
-6067.71
-7313.13
-9768.83
-1293.53
-175.711
-2452.55
1151.6
-9584.73
-7924.96
1825.51
-1681.03
-4712.79
-4552.81
-1788.32
-5187.63
-2889.67
-5856.05
-6037.31
-577.52
851.489
-1070.29
3195.29
-6799.44
-4328.25
3579.54
-1052.24
-3247.35
-3366.6
-1245.11
-3286.81
-537.855
-4419.45
-4464.45
-175.576
1041.15
44.3729
3375.9
-4242.5
-478.085
4098.34
-716.705
-2354.52
-2754.6
-972.035
-1823.89
737.252
-3775.15
-4251.95
17.3574
762.438
365.569
2857.45
-3270.51
1441.46
3936.07
-626.306
-2228.89
-2654.69
-900.863
-1719.64
466.09
-4026.9
-5482.61
91.6322
593.357
473.52
2519.85
-3119.79
1478.87
2772.54
-607.294
-2204.29
-2600.17
-878.474
-2099.16
-250.515
-3965.37
-5394.28
138.007
934.201
390.337
2637.36
-3582.22
659.805
2105.83
-1315.53
-3143.43
-4120.43
-1673.35
-6434.98
-11474
-6881.14
-12165.6
-1620.5
-1444.84
-5209.31
-4380.22
-2484.86
-9589.56
-4734.76
-1293.23
-3073.48
-3699.64
-1457.94
-6110.91
-9828.45
-6210.49
-8956.47
-1698.18
-1337.73
-5111.41
-4193.04
-1835.7
-8887.54
-4631.47
-1207.24
-2888.42
-3117.21
-1193.9
-5568.71
-8627.52
-5282.1
-8006.26
-1477.04
-1731.13
-4540.41
-5022.85
-2090.13
-7887.76
-5226.68
-1225.41
-3171.93
-2912.36
-1070.86
-5951.67
-8520.93
-5253.29
-7904.07
-1562.8
-2178.07
-4742.7
-6278.92
-2629.07
-8707.08
-6424.23
-1245.33
-3171.78
-2882.19
-1041.6
-5904.52
-9230.16
-5289.07
-8711.36
-1710.19
-2819.64
-5148.69
-8106.78
-3734.12
-10400.6
-8497.55
-1266.53
-3181.03
-2859.22
-1033.89
-6016.63
-9501.61
-5190.46
-8629.4
-1930.67
-3525.22
-5704.89
-9319.8
-4973.57
-11521.2
-9583.06
7022.79
8498.26
17514.4
27284
26443.2
51562.9
18320.6
55069.1
18900.1
44163.1
23233.3
38147.8
17804.8
23460.9
8241.25
8331.39
12377.5
13955.1
17023.6
15417.8
11885.7
17906.9
17724.3
17774.3
4598.47
3326.97
6208
4427
11310.7
7267.92
20917.6
14522.7
17452.8
17658.6
17661.2
17735.5
3987.35
3602.51
40760.6
50428.4
21672.3
28946
52661.4
64808.4
24421
30042.8
30469.2
39860.8
24250.1
33633.8
13900.7
17640.5
2640.2
840.557
3387.32
1176.86
6278.04
2583.63
10942.7
4009.79
7137.39
2369.36
7274.7
2055.4
14362.6
4175.43
18852.8
5899.8
24441.8
13927.6
20702.8
14304.6
25210.2
16235.6
20015.5
16242.1
15943.8
11483.7
17438.4
10986
20130.3
14892.7
20808.5
15310
19622.3
16672.3
20386.2
17032.1
16498.9
12231.3
17808
12717.9
17525.5
7154.54
9939.18
11287.4
18807.6
8214.95
9786.27
11722.9
17615
6701.48
10464.3
11184
18231.5
6757.87
11036.3
11318.5
2547
2840.29
898.935
1735.03
7820.59
9147.01
3194.53
5994.41
12733.8
15109.7
5652.98
10079.3
17224.6
9130.1
17223.3
20443.1
10169.7
6749.29
10790.5
12055.2
20757
12925.3
9718.18
12628.3
13866.6
13282.4
16458.2
2792.31
2870.72
1694.48
1840.23
8968.42
8617.54
5720.68
5821.01
13467.6
12460.5
8418.61
8503.09
9602.9
10773.3
15179.1
16109.6
16628.6
15674.6
19580.3
18056.7
13266.7
13250.7
12848.6
14125.6
16516.1
15351.5
15436.1
13154.2
13696.7
11182
15010.3
12075.1
14061.8
7814.87
11016.9
10851.8
15543.2
18267.4
15876.7
20807.7
9245.93
9241.26
12688.7
6065.77
10597.2
16832.2
10914.6
17899.8
16090.4
25445.8
16589.2
25953.1
8901.51
14687.5
9160.63
15851
10921.8
8275.02
13852.7
6383.59
11891.7
4778.82
13125.5
3519.44
11283.5
11711.9
14474.2
7537.43
10135.8
13446.7
13265.3
9547.39
2682.93
2517.82
2222.67
1759.98
1736.54
1541.43
8016.23
7020.39
6229.67
5186.88
4410.86
3785.51
10572.2
9124.52
8449.28
7452.22
6123.12
5625.84
9786.52
8119.36
7806.16
15138.3
11543.1
9534.93
13449.8
10089.6
7979.59
14863.9
11889.3
10180
11255.1
7812.13
5947.98
18296.6
15154.1
13648
13288.5
10744.3
9072.52
11574.2
8893.7
7144.69
10197
7792.7
6326.28
10785.4
6592.91
4219.4
11273.6
18430.6
9524.93
13686.3
9073.19
18745.2
7573.49
15333.6
234.696
1610.29
-164.603
936.085
3544.11
6680.1
2209.76
4011.56
1901.79
4017.34
10920.6
16353.9
8653.37
6345.96
11429.2
9988.71
15223.9
16274.7
-488.561
-5293.03
8309.33
5870.53
6363.08
3673.31
1461.68
955.052
1150.62
704.949
3945.82
1319.79
1951.39
252.08
9959.03
3091.7
7402.42
2334
8343.99
2528.73
9435.34
3140.87
12193.9
12135.4
9513.92
12080.8
18197.1
16483.7
14921.1
15729
7199.88
9552.55
8400.56
8801.89
8914.25
12056
9369.73
12197.8
14252.2
15477.7
14771.2
15618.8
6380.78
9726.76
6194.02
9877.54
1144.91
1793.38
7911.34
4782.31
1148.25
1588.64
6934.46
4079.96
1104.24
1608.63
8373.94
5250.63
1401.22
1722.99
8483
5538.81
-114.535
-230.615
483.58
369.722
-683.881
-1186.28
895.744
694.085
1460.3
465.952
2853.78
2623.41
-7614.12
-3890.14
-4332.51
-2634.78
383.431
-7040.57
-10358.7
-4837.57
-4669.48
362.574
9232.85
6917.73
5916.06
6269.38
4015.44
-455.519
-344.936
219.411
362.479
-1315.71
-1539.3
754.467
1047.98
-1007.06
-1702.58
1799.7
2280.88
-3151.58
-1743.23
-8085.05
-5842.53
-4187.69
-3051.45
-3608.65
-3032.15
766.854
1725.62
4870.94
3345.38
-432.048
-2270.33
-457.753
-1870.33
797
-357.343
1414.5
1956.69
4162.7
4611.63
9860.65
6300.38
8586.41
8438.29
12954.3
10183.8
7807.02
4916.03
2799.65
3504.35
11664.9
4966.56
12497.4
4566.31
14884.5
9789.07
15821.5
9366.3
9361.82
3652.82
10157
3179.98
6275.96
5314.27
5217.6
8979.05
3313.4
4341.91
3615.64
7625.73
6873.66
5046.59
6229.81
10268.1
8158.44
4849.22
7171.43
10238.4
-546.56
-762.159
-913.447
217.861
-155.626
-216.877
-2115.23
-2719.29
-2993.59
452.93
-628.297
-800.072
-2543.73
-3887
-4470.13
1272.06
-1122.29
-1628.91
-1054.66
-1627.8
-1488.69
-4710.6
-5160.53
-4837.2
-3661.84
-4454.19
-4362.21
-3816.09
-5071.08
-5333.71
882.637
-1640.4
-1617.43
3898.2
1836.34
1001.69
-1572.03
-2920.68
-3357.77
-1737.33
-3271.4
-3671.33
-941.532
-2860.7
-3279.38
2277.78
-1105.54
-1373.17
82.0066
-5.20528
-38.1733
-84.8502
-103.141
-104.388
-121.318
-128.175
235.93
-5.73634
-113.397
-244.654
-250.426
-257.165
-287.29
-318.886
481.279
61.8209
-125.455
-375.62
-20.1511
-211.733
-268.352
-372.215
-34.725
-139.246
-115.435