/*--------------------------------*- C++ -*----------------------------------*\
| =========                 |                                                 |
| \\      /  F ield         | OpenFOAM: The Open Source CFD Toolbox           |
|  \\    /   O peration     | Version:  2412                                  |
|   \\  /    A nd           | Website:  www.openfoam.com                      |
|    \\/     M anipulation  |                                                 |
\*---------------------------------------------------------------------------*/
FoamFile
{
    version     2.0;
    format      ascii;
    arch        "LSB;label=32;scalar=64";
    class       volScalarField;
    location    "3";
    object      gradTz;
}
// * * * * * * * * * * * * * * * * * * * * * * * * * * * * * * * * * * * * * //

dimensions      [0 -1 0 1 0 0 0];

internalField   nonuniform List<scalar> 
5712
(
7028.84
21371
5326.16
23396.5
2918.74
24811.9
4994.8
39379.2
8174.31
49464
8369.05
35045.7
8925.84
31124.2
8792.06
26716.7
4134.6
2225.26
12463.1
5850.1
3857.35
1764.05
13462
5407.62
5363.67
3929.55
15846.7
11526.2
3593.21
2805.66
15943.9
12011.8
8062.52
2921.08
6070.47
2181.93
2759.61
7448.33
38462.5
11760.9
11521.2
5334.66
46775.2
14676.2
10786.8
5084.29
25401.9
8471.95
12931.1
5899.3
20619.5
6562.86
4617.95
2508.62
8328.94
3354.56
4073.72
2594.02
8752.76
3285.26
5493.64
3495.06
5471.83
2280.01
9834.25
3539.45
3875.97
1427.19
11967.3
8951.83
7281.54
6500.89
13560.7
11867
7358.69
7851.3
6693.83
5698.54
8645.76
7349.49
5442.31
4664.01
3175.43
2718.4
5471.88
5459.15
3146.1
3146.46
5180.45
4029.23
3040.28
2124.92
5716.1
3210.96
5699.73
6330.66
7528.06
5740.88
8104.98
10777.7
4204.57
1791.8
3677.61
3820.62
2391.8
831.083
1687.19
1466.08
5189.11
10581.8
3815.42
11994.9
5608.86
10741.2
4554.12
12795.6
7454.62
10714.8
6343.01
13072.8
8476.69
10391.3
6369.82
6357.4
7869.52
6852.86
7384.65
10075.9
11690.2
17213.9
9240.75
7308.07
6866.09
8706.75
13989.9
13199.1
12779
15437.9
15529.3
12911.1
12938.3
15511.6
15424.5
11954.8
12416.6
14917
15058.4
8637.34
9167.42
8265.4
8718.45
9990.61
9955.97
11624.9
11275
14628.6
14769.9
7891.32
8641.81
8804.88
9324.88
9738.61
10427.8
11157.4
12162.8
14659.1
15849.3
9193.22
6266.62
7448.9
7553.67
10406.6
11923.4
8463.5
11268.2
6775.81
6933.56
8606.73
6164.21
3108.67
5455.51
1270.36
2027
5239.6
8363.78
2056.5
3133.94
2569.57
4744.94
949.99
1720.32
6406.95
5484.89
6521.48
4061.9
9007.58
6405.8
10213.1
6787.93
2958.61
3495.27
3702.73
2087.63
2302.99
2533.76
2576.89
1957.18
11066.9
7263.03
2362.98
11989.4
7518.58
2594.42
10917.1
7109.09
2403.38
11998.7
7503.87
2534.49
10460.3
6705.24
2242.83
11827.7
7401.05
2540.12
6514.1
3682.68
942.315
7590.16
5174.27
1678.18
8627.98
6081.67
2048.35
9487.14
6152.38
2008.84
11486.5
7184.89
2540.06
7228.56
3934.22
1278.8
6800.65
4374.45
1507.11
7564.22
4964.49
1685.1
8970.07
5740.5
1950.69
10885.8
6308.27
2174.49
-493.903
986.311
435.535
2623.48
1722.37
1758.89
4456.49
3930.62
594.671
974.847
630.297
1022.88
330.252
940.485
618.084
1381
1880.89
1126.44
3816.16
2692.68
1751.91
2876.69
2908.1
855.534
5746.3
1842.08
-3994.22
-532.398
733.959
750.427
77.2441
247.561
10357.1
4689.53
2756.62
1683.69
10211.2
4765.09
3003.3
1984.94
9928.28
5256.74
4071.92
2970.69
3095.04
2072.39
1770.85
1625.43
13070.3
11447.3
5745.42
7344.97
14458.8
13515.1
7037.86
8455.17
5310.65
6414.51
11229
9320.79
3667.78
4799.14
2133.87
2802.29
4713.14
5516.22
2740.09
3172.5
3044.92
4237.43
1734.24
2582.03
4801.64
3527.34
5485.87
3846.52
8216.97
5111.26
7377.18
5077.57
2877.66
2404.11
3806.1
2636.49
1642.12
1519.28
2402.8
1613.24
12221
8476.23
6202.53
6685.58
12127.3
8430.54
6155.14
6569.47
12284.2
8060.63
6305.19
6115.29
13174.7
12571.8
12441.7
9718.31
5851.59
7681.01
9409.98
10137
9695.87
7113.96
10883.4
9898.02
8346.91
6905.12
4735.03
7564.78
7768.19
7767.39
9696.31
7484.48
7463.82
7568.23
9448.86
7053.01
6942.38
7157.14
8986.13
8649.62
8188.84
8229.8
7139.48
6346.95
6444.85
6312.51
6712.12
6249.35
8424.2
6328.57
7183.51
5412.58
6187.97
4968.64
5731.56
5045.6
6147.8
4807.13
7732.83
4756.08
3822.08
3249.95
1711.31
7168.09
5457.44
5788.96
3633.52
2567.19
1496.05
3803.19
3459.39
4237.52
1829.8
1981.25
1089.23
5433.58
3089.58
2242.41
1542.73
3509.74
1526.09
1787.87
905.972
2288.4
2778.91
2920.53
4973.2
3446.5
4255.44
3571.1
6505.18
2660.94
2009.43
2111.75
3525.31
1229.91
524.383
514.606
935.455
6214.08
2849.4
816.644
6804.96
1811.51
476.378
5989.85
2934.05
911.59
6725.51
1854.31
509.845
5369.41
2642.76
678.92
6359.04
1706.15
383.79
5523.44
2998.7
781.866
4788.82
2554.14
706.383
4850.7
2422.9
686.136
4936.3
2323
533.001
5985.23
1491.74
252.54
6142.73
3215.54
988.522
5433.25
2957.45
972.057
5053.52
2640.38
864.546
5024.08
2038.17
545.164
6162.25
1511.76
475.042
1854.14
714.893
329.563
0.0732717
749.796
305.896
153.975
27.3267
1920.62
767.712
392.99
67.6654
908.915
412.336
258.954
121.287
2212.48
920.863
515.686
155.836
1571.03
818.045
472.696
225.556
1159.84
735.771
382.432
134.603
1212.43
842.525
514.772
295.891
1862.68
889.951
463.681
48.8392
1788.96
822.807
472.916
-46.5072
2348.64
988.547
558.673
119.563
2120.37
873.624
510.407
-79.9034
1412.82
780.644
418.661
58.5469
1389.91
729.929
446.401
74.7251
1049.54
682.12
443.338
264.24
963.618
612.278
428.238
252.693
2394.39
873.784
395.48
-104.078
2541.87
855.706
421.253
-296.414
2390.64
887.143
429.07
-69.4544
2441.53
826.447
419.902
-275.609
2413.41
914.158
494.419
-16.0778
2189.3
749.446
416.648
-203.682
2239.04
880.722
548.219
135.031
2410.15
848.512
539.649
-203.58
1757.38
686.331
433.17
40.0013
2133.21
630.706
306.728
-276.031
845.998
224.408
93.4881
-68.3402
2098.22
638.783
318.864
-247.863
858.484
235.922
104.959
-53.5942
1957.82
621.27
335.575
-195.683
820.346
237.583
119.271
-31.9527
1644.05
533.155
324.285
-138.334
720.949
210.747
128.475
-3.9114
1439.77
498.917
322.908
-59.692
643.357
213.093
148.609
37.6413
1138.74
488.535
287.965
17.8
585.878
298.297
188.391
104.231
1218.44
442.816
277.294
-20.682
581.868
238.229
163.106
73.6288
1007.15
526.113
321.335
82.5592
596.393
356.395
226.077
145.013
778.217
509.751
350.194
216.409
551.184
386.717
269.013
205.044
14.7534
13.4034
9.25834
6.288
4.88162
8.94225
6.98141
4.72498
3.2232
2.52087
39.1344
28.4721
18.4389
12.2718
9.45435
42.9963
28.1539
17.5535
11.5342
8.85304
96.2204
65.3517
41.2879
27.3644
21.0882
193.931
121.423
75.3176
49.5377
38.0383
200.489
128.358
80.5622
53.2857
41.0575
219.077
135.673
84.1451
55.4527
42.7299
129.157
87.723
55.8803
37.1229
28.5185
102.217
68.9999
43.9916
29.3137
22.5545
133.506
87.378
54.7763
36.3197
27.954
104.139
61.8129
38.0373
25.1418
19.2732
145.744
102.991
66.2684
44.1909
34.0868
141.841
95.3033
60.6345
40.3487
31.091
195.395
123.933
77.2174
50.9457
39.2422
187.78
119.539
74.5797
49.2159
37.8595
4.67923
10.5275
7.67066
5.25866
4.09819
-1.37629
3.92079
3.0203
2.1164
1.67747
19.1997
18.8147
12.6998
8.56575
6.66363
1.80184
5.83753
4.1913
2.88569
2.28741
34.2976
29.1999
19.1473
12.8864
10.0575
20.1071
15.3561
9.63602
6.33723
4.9481
111.379
72.0469
44.71
29.719
23.0254
55.4301
35.8003
21.9849
14.5529
11.3042
143.319
79.4927
47.6814
31.2336
23.9639
2256.18
3912.2
2119.16
3791.32
1961.09
3520.74
1901.17
3378.05
2093.2
3890.39
1207.2
1814.2
1706.18
2733.03
784.5
1076.72
290.459
420.66
6679.15
1604.15
366.849
81.0189
20.2184
1775.38
469.688
125.524
28.0356
6.22363
6642
1572.78
356.965
78.2482
19.4353
1833.33
532.988
130.713
30.2217
7.54308
6433.98
1497
335.994
73.0658
18.0425
1779.69
516.045
125.61
28.7483
7.10717
6069.02
1383.97
307.694
66.6393
16.4388
1715.29
486.402
116.018
26.1238
6.36634
5356.23
1202.33
266.953
58.024
14.407
1604.75
434.164
101.182
22.494
5.43044
3035.05
726.847
167.004
37.119
9.37151
814.196
206.507
44.6943
9.18064
2.08192
4221.63
982.949
221.894
48.7261
12.2061
1139.99
298.035
67.9875
14.927
3.58398
1905.63
468.019
109.061
24.47
6.21101
517.788
134.163
28.4616
5.53877
1.19066
697.444
173.222
40.6484
9.17623
2.34005
249.544
58.1852
11.4676
3.12751
0.422568
-1175.61
629.176
4060.51
-3461.1
953.84
1017.27
2544.14
3102.05
2086.6
3377.95
2786.77
4214.79
2654.59
3470.02
1269.1
1852.41
1389.58
1617.85
972.552
1007.64
2839.33
2256.01
-417.783
-983.097
-1065.79
-1422.67
-774.298
11735
2958.78
3940.08
3212.22
305.32
-106.827
3253.63
-1079.18
-510.764
-901.227
-317.647
5797.2
2948.79
1266.89
703.694
3259.69
1457.7
176.209
333.63
-1205.15
-1207.52
812.036
682.357
9210.81
4570.1
4428.26
2557.18
3429.27
3099.75
-97.6377
-1185.87
227.502
2015.82
1817.08
1639.17
1585.86
1268.04
1826.23
1503.31
1248.07
946.499
385.737
-374.309
-311.016
-228.01
-136.272
-44.9178
-878.895
-735.573
-552.352
-342.045
-115.761
-952.636
-796.668
-596.973
-368.626
-124.565
-1273.1
-1066.49
-801.031
-495.822
-167.783
-684.94
-564.733
-415.721
-252.356
-84.4759
8898.54
8412.16
7458.32
7316.58
7182.35
2854.3
2426.94
2306.5
2031.64
971.182
3275.3
2689.65
2347.39
1944.08
945.75
2532.22
2049.6
1757.6
1371.01
540.332
270.234
200.515
229.651
197.469
109.261
-16.4647
61.1393
105.162
99.9482
41.1734
2736.01
2232.84
1784.33
1274.46
497.743
-690.239
-371.259
-188.964
-85.2229
-27.1363
-410.198
-293.839
-178.625
-85.4664
-22.9337
-658.764
-429.692
-254.002
-129.531
-39.9669
-294.511
-249.329
-181.509
-105.582
-33.4627
4086.13
4134.83
3728.72
3849.54
4074.85
2474.8
1993.64
1722.4
1370.86
565.249
1186.68
1067.12
902.231
643.122
240.262
630.306
545.632
451.88
319.186
118.415
2751.56
2224.59
1730.46
1177.66
436.608
1321.06
1128.26
898.416
595.568
198.066
153.977
134.102
118.254
89.5833
33.5614
309.18
276.072
231.414
161.123
57.6891
-1046.94
-847.067
-614.468
-369.716
-123.145
-1064.2
-873.748
-640.54
-387.307
-129.203
728.478
625.842
501.25
338.394
122.197
611.263
524.598
420.805
284.331
102.206
6176.38
5108.72
4676.01
4719.38
4133.18
3614.04
2912.09
2395.13
1826.39
782.885
3576.1
3103.37
2697.77
2300.2
1016.48
2061.2
1730.41
1425.21
1066.75
493.605
2963.8
2442.74
1899.93
1266.47
451.869
2625.78
1922.1
1628.57
1245.55
236.267
-78.6632
-50.3448
-13.8807
9.62418
6.25877
-1053.02
-871.899
-644.137
-391.716
-131.107
223.755
213.749
198.379
150.615
53.9911
-27646.5
-43344.1
-20901.3
-36859.1
-22303.6
-51931.2
-29357.9
-63120.8
-15613.5
-10433.4
-17389.3
-9314.17
-14611.7
-9583.93
-17557.7
-8309.59
-22675.5
-15894.5
-31497.6
-22661.3
-17833.2
-13015.5
-27137.8
-20284.9
-13720.2
-13886.9
-9575.93
-9176.19
-11590.8
-12321.3
-41571.9
-12782.4
-13242.1
-6304.4
-48988.6
-15548.4
-12034.5
-5783.32
-29018.4
-9569.45
-14718.9
-6873.38
-24323.7
-7430.46
-10835.1
-4602.62
-14890.6
-5593.51
-9420.81
-4204.38
-13782.3
-4909.85
-9810.78
-4726.46
-8415.39
-3208.03
-11952.9
-4242
-4690.83
-1735.76
-9794.89
-7017.19
-8001.9
-5942.85
-8543.06
-7277.77
-7143.97
-6263.4
-7974.81
-5800.94
-9188.62
-7180.9
-6019.67
-4406.6
-3586.55
-2540.47
-5464.57
-4597.26
-3136.72
-2511.18
-6060.81
-4146.31
-3648.55
-2225.87
-7107.15
-3758.64
-6043.58
-6519.14
-9207.42
-6457.14
-8559.25
-11062.1
-5080.84
-2130.99
-3916.94
-3943.1
-2975.79
-1062.77
-1872.44
-1555.44
-9483.6
-12071.8
-5414.19
-13579.1
-9396.23
-11780.7
-5910.91
-14047.2
-10403.4
-11388.7
-7347.27
-13768.8
-5802.89
-3571.71
-7430.84
-8618.9
-8848.37
-5386.01
-7416.7
-11098.3
-12653.5
-17893.1
-4810.66
-5448.19
-6627.02
-9028.65
-14330.6
-12758.7
-10519.1
-15782.9
-13092.3
-12397.2
-10808.4
-15801.5
-13200.1
-11341
-10047
-14942.4
-13120.2
-7982.3
-7506.24
-7866.03
-7114.74
-9002.93
-7996.52
-10314.3
-9115.79
-14360.3
-13177.4
-6604.27
-7255.3
-7279.78
-7087.55
-8288.22
-8030.18
-10024.7
-9924.07
-14347.9
-14087.5
-7754.08
-5283.59
-6498.32
-6669.38
-8186.69
-10364.8
-6885.73
-9809.47
-6334.43
-6423.79
-7860.34
-5546.02
-2459.43
-4778.06
-696.678
-1458.87
-4074.23
-7280.38
-1080.22
-2245.56
-2279.7
-4360.12
-673.627
-1389.01
-6273.53
-5250.29
-6532.53
-3995.92
-8702.56
-6043.17
-10180.8
-6580.29
-2874.46
-3322.86
-3699.41
-2037.44
-2199.38
-2367.63
-2547.91
-1890.22
-7673.93
-2966.67
-8145.3
-2834.86
-7861.16
-2943.71
-8549.11
-3149.92
-7516.89
-2770.25
-9265.78
-3664.24
-4210.54
-983.817
-4960.85
-1777.37
-5706.39
-2226.32
-6894.6
-2616
-9233.66
-3581.02
-5156.77
-821.998
-4352.21
-1450.81
-4975.49
-1829.97
-6466.54
-2397.95
-8358.38
-2728.04
-6042.7
-5906.59
-3816.35
-3740.53
-9524.26
-7581.52
-7308.46
-5806.27
-5345.46
-5017.54
-2036.71
-1699.71
-4998.55
-4905.74
-1727.89
-1665.79
-2353.69
-5667.69
-3608.16
-6838.09
-4741.44
-1922.61
-2962.86
-601.021
-6340.73
-2122.89
4044.77
1339.84
-141.335
83.6908
1126.5
1333.53
-2728.73
-1599.93
-1069.76
-475.386
-2708.7
-1748.85
-1140.57
-443.962
-2978.46
-2104.19
-1212.3
-277.889
-934.441
374.404
433.664
1092.59
-5016.63
-4962.79
-3658.72
-4212.53
-7098.09
-6872.31
-5757.37
-5797.91
-2537.92
-3285.32
-4156.26
-4025.86
-2449.34
-2816.84
-1132.86
-1197.35
-4067.55
-3983.98
-2243.26
-2002.2
-1270.08
-2038.58
-246.442
-694.839
-1692.33
-1118.99
-2721.3
-1743.95
-2897.03
-2322.71
-3413.89
-2688.07
-672.109
-245.578
-1641.26
-725.34
263.607
555.507
-423.031
233.651
-3171.14
-3358.41
-2819.32
-4565.6
-3261.18
-3504.84
-2973.77
-4678.82
-3842.07
-3621.53
-3375.65
-4580.78
-2164.18
-2515.62
-2871.36
-2936
-2901.05
-4263.95
-3508.17
-3499.71
-4474.99
-5070.72
-4349.96
-3410.64
-3040.53
-2987.6
-2532.03
-4557.64
-5847.66
-7920.07
-13678.4
-4341.74
-4968.98
-7455.81
-12737.4
-4355.44
-5346.3
-6849.5
-11418.9
-7410.39
-6426.66
-6094.1
-5407.07
-4482.55
-5003.5
-4933.13
-6054.53
-5907.09
-10244.1
-5027.92
-5866.48
-3776.38
-4900.3
-3294.21
-4606.31
-3718.84
-5525.53
-3694.66
-8249.43
-2338.47
-2499.3
-1241.29
-267.97
-4610.55
-4087.99
-3823.15
-2189.42
-692.968
-159.884
-1753.06
-2301.37
-2521.59
-602.939
-457.544
17.8455
-3848.15
-1872.26
-910.76
-473.59
-1839.41
-394.277
-215.645
152.933
-753.045
-1794.43
-1803.58
-4531.32
-1895.09
-3514.85
-2641.82
-6539.13
-1194.76
-1077.46
-807.862
-2832.74
266.313
442.654
850.321
-108.169
-4936.16
-1622.22
-10104.6
-1466.75
-4257
-1742.49
-9557.36
-1457.46
-3786.19
-1128.38
-8001.31
-815.423
-3483.23
-752.594
-3154.1
-753.019
-3720.96
-1125.91
-3710.69
-636.647
-7177.2
-693.331
-4279.5
-536.87
-3920
-598.083
-4092.94
-822.801
-4384.69
-481.032
-7068.02
-747.45
-746.363
-212.329
-50.1949
204.238
-233.175
-54.7122
-13.9978
60.6465
-719.723
-171.293
-37.098
203.791
-103.396
37.0631
22.8528
75.3626
-781.117
-138.166
2.44174
296.45
182.887
295.672
353.888
471.931
735.338
567.267
570.826
587.844
1072.91
788.647
642.158
479.787
-332.31
100.497
260.142
542.895
-339.028
147.38
213.483
605.24
-908.708
-133.766
47.5424
464.629
-735.104
-15.1025
67.9452
613.479
193.938
335.676
391.192
558.898
73.8162
310.489
321.611
531.582
632.501
530.066
462.905
415.136
508.163
466.725
390.432
396.221
-1229.93
-360.804
-128.514
350.957
-1687.37
-446.019
-252.168
562.308
-1201.39
-327.402
-126.268
348.21
-1635.39
-421.494
-245.857
541.587
-1197.12
-287.386
-144.15
337.719
-1474.64
-365.113
-237.284
475.447
-829.149
-98.4229
-57.7493
374.435
-1397.55
-277.5
-237.481
598.767
-626.606
-23.9947
32.0414
529.483
-1673.73
-348.191
-197.619
486.269
-734.444
-128.25
-47.1575
137.586
-1505.72
-295.26
-178.293
467.332
-682.669
-111.896
-43.0054
132.825
-1223.04
-200.442
-157.207
415.191
-568.712
-76.4936
-34.8327
126.494
-951.343
-128.38
-132.334
357.353
-478.516
-56.7373
-34.0497
113.326
-646.214
-36.104
-52.4551
343.302
-269.373
6.48718
0.0956536
116.315
-253.909
124.933
168.654
414.348
146.595
205.092
178.034
223.918
-555.441
-16.6849
28.2936
354.763
-40.1663
100.456
78.9911
159.35
101.966
289.46
281.62
432.238
277.886
297.776
255.691
266.29
440.792
420.402
335.261
346.136
399.872
361.083
281.455
253.961
60.9734
21.9885
10.5547
6.34838
4.77397
26.1888
10.1805
5.03022
3.02548
2.25899
85.173
36.5631
19.6079
12.3259
9.40891
62.7714
31.3316
18.0733
11.6526
8.95854
154.552
73.7578
41.7591
26.6516
20.4015
230.095
127.736
75.8564
49.2265
37.9087
239.325
136.088
81.0547
52.5206
40.3456
233.143
138.365
84.2148
55.0377
42.3427
196.29
99.2769
57.0758
36.6205
28.1902
159.839
78.1445
44.5652
28.4712
21.8877
191.455
93.9603
53.9384
34.4982
26.4672
121.954
62.8843
36.6277
23.4902
18.1021
222.383
116.77
67.8122
43.5755
33.4536
197.574
105.182
61.5092
39.6163
30.4817
218.081
127.778
77.4721
50.5573
38.8812
211.172
123.847
74.9785
48.8895
37.6183
65.7279
19.8013
8.94924
5.28387
3.94681
30.4938
7.78925
3.30756
1.88563
1.37434
75.5854
27.0473
13.5638
8.3184
6.26582
32.7723
9.49274
4.40933
2.61571
1.92024
93.3226
36.3797
19.2035
11.9219
8.97122
43.3135
17.7819
9.84323
6.27833
4.7301
156.847
73.7194
42.0307
26.6587
20.268
75.3489
35.494
20.4551
13.0263
9.87157
135.209
75.4801
45.0482
29.1198
22.3984
-2716.71
-4097.73
-2591.96
-4009.12
-2384.57
-3726.61
-2249.01
-3545.46
-2260.13
-3871.99
-1272.32
-1823.29
-1796.73
-2730.03
-812.086
-1072.19
-290.345
-401.491
-7535.5
-1784.45
-403.833
-88.4429
-21.9053
-1985.07
-522.386
-138.623
-30.7121
-6.75927
-7397.6
-1732.25
-389.916
-84.8907
-20.9515
-2058.81
-593.684
-144.263
-33.0825
-8.19664
-6997.57
-1618.79
-361.693
-78.3299
-19.2594
-1991.05
-570.963
-137.76
-31.2959
-7.6878
-6421.45
-1463.43
-325.119
-70.3183
-17.3111
-1883.43
-529.643
-125.63
-28.1471
-6.83043
-5527.55
-1244.71
-276.852
-60.2097
-14.9445
-1707.58
-462.037
-107.592
-23.8747
-5.75385
-3064.21
-736.082
-169.606
-37.7786
-9.55293
-839.919
-215.249
-47.0385
-9.73967
-2.22637
-4290.47
-1002.61
-226.953
-49.921
-12.5165
-1187.68
-312.572
-71.5622
-15.7306
-3.78034
-1916.83
-472.282
-110.413
-24.8437
-6.32099
-528.495
-138.955
-29.9728
-5.94409
-1.30584
-700.793
-175.256
-41.4151
-9.4105
-2.41427
-251.423
-60.678
-12.4756
-3.43921
-0.519899
769.673
-1403.61
-5179.68
1842.68
-6457.28
-2825.17
-6324.42
-2850.91
-10622.3
-5770.92
-12452
-6798.07
-132.159
-535.3
-829.23
-955.182
-840.208
-461.523
-209.767
-809.577
-1226.69
-1352.82
-1100.23
-416.297
-104.646
-102.517
-390.916
-367.135
-502.802
-483.857
-355.887
-362.433
-233.898
-267.895
-398.881
-298.477
473.644
1775.88
3454.07
2749.64
2497.09
1209.52
757.828
2284.6
3781.05
4172.5
3547.07
1632.86
-119.241
-100.862
-76.4848
-47.6893
-16.1984
-483.625
-409.775
-311.296
-194.384
-66.0795
-749.11
-634.654
-482.095
-301.031
-102.335
-862.549
-730.424
-554.6
-346.194
-117.668
-758.271
-641.601
-486.698
-303.547
-103.118
-416.687
-352.284
-266.485
-165.539
-56.0626
-189.19
-159.961
-121.258
-75.591
-25.6739
-731.154
-619.259
-470.286
-293.615
-99.8069
-1107.66
-937.994
-712.295
-444.724
-151.183
-1220.9
-1033.34
-784.411
-489.682
-166.465
-992.238
-839.188
-636.678
-397.355
-135.071
-375.891
-318.056
-241.062
-150.13
-50.942
-94.4707
-79.9661
-60.6807
-37.8543
-12.8607
-92.5991
-78.4319
-59.5555
-37.1719
-12.6326
-353.276
-299.427
-227.532
-142.105
-48.3104
-331.841
-281.312
-213.805
-133.55
-45.4056
-454.332
-385.025
-292.537
-182.686
-62.1032
-437.229
-370.541
-281.542
-175.826
-59.7732
-321.557
-272.46
-206.945
-129.183
-43.9014
-327.348
-277.261
-210.543
-131.424
-44.6658
-211.112
-178.551
-135.247
-84.1783
-28.5504
-241.52
-204.102
-154.616
-96.3212
-32.6988
-359
-302.466
-228.089
-141.39
-47.8388
-268.465
-226.15
-170.665
-105.946
-35.8904
422.952
355.963
271.559
171.85
59.1192
1579.83
1324.67
1008.5
638.373
219.84
3041.11
2535.74
1941.72
1248.68
436.3
2409.46
2032.46
1578.59
1037.49
382.663
2201.47
1860.97
1447.22
945.404
332.557
1097.38
943.385
737.107
475.257
162.251
677.359
569.28
432.059
271.414
92.8637
2037.06
1709.35
1297.97
817.385
280.374
3354.98
2808.53
2138.24
1356.21
468.559
3689.25
3089
2361.89
1510.56
527.733
3133.31
2625.52
2014.81
1295.11
452.679
1455.84
1230.69
950.666
612.595
213.749
307.274
705.731
990.164
1102.76
972.845
601.926
449.737
1040.72
1437.88
1529.95
1230.77
502.111
238.569
210.278
514.719
467.409
604.589
566.864
422.215
413.777
282.59
253.284
523.359
325.244
-312.685
-1544.48
-3037.35
-2201.28
-1817.31
-448.688
-694.461
-2180.58
-3538.15
-3736.7
-2906.87
-860.03
278.047
236.047
179.68
112.381
38.2368
638.287
541.528
411.949
257.525
87.5995
895.319
759.39
577.54
360.984
122.782
996.905
845.351
642.787
401.718
136.631
879.434
745.672
566.906
354.231
120.464
545.258
463.048
352.124
219.799
74.6614
406.907
345.393
262.89
164.42
55.9429
941.016
798.148
607.043
379.452
129.072
1299.65
1101.92
837.83
523.633
178.107
1382.25
1171.46
890.469
556.499
189.293
1111.47
941.583
715.582
447.211
152.132
454.348
385.512
293.104
183.043
62.2117
215.886
183.282
139.515
87.2572
29.6876
190.281
161.536
122.954
76.8946
26.1608
465.586
395.063
300.563
187.902
63.9155
422.803
358.766
272.949
170.637
58.0426
546.777
463.862
352.837
220.549
75.0145
512.642
434.881
330.776
206.753
70.3213
381.914
324.058
246.512
154.081
52.4019
374.128
317.313
241.306
150.808
51.289
255.823
217.2
165.233
103.229
35.0899
228.969
194.144
147.586
92.2021
31.3497
473.514
401.689
305.279
190.552
64.7407
293.955
249.134
189.257
118.148
40.1545
-275.761
-229.338
-173.808
-110.006
-37.9426
-1368.9
-1143.91
-869.619
-550.946
-189.993
-2659.21
-2206.27
-1687.07
-1087.91
-381.329
-1894.15
-1575.93
-1215.36
-801.899
-301.91
-1555.29
-1282.86
-981.063
-636.878
-223.248
-371.176
-290.121
-206.609
-121.007
-36.0782
-619.988
-520.551
-394.967
-248.234
-84.9821
-1943.58
-1630.67
-1238.72
-780.764
-268.011
-3134.18
-2620.01
-1994.05
-1265.89
-437.85
-3287.06
-2739.48
-2089.24
-1336.58
-468.03
-2537.28
-2102.45
-1602.06
-1028.39
-360.043
-733.305
-593.396
-444.841
-283.737
-99.0514
-1912.11
-1393.01
810.532
1316.55
1382.59
1915.51
1256.14
-9867.9
-1503.11
-2978.62
-1311.98
701.046
-4051.59
1021.64
2443.92
874.246
-4841.66
-1947.99
-488.566
-231.229
-2911.78
-703.828
248.956
213.595
1939.48
1896.8
-444.814
-240.025
-8239.49
-3804.55
-3496.42
-1781.12
-2905.23
-2139.86
752.023
1924.47
385.031
-1035.3
-885.489
-820.691
-973.981
-1012.42
-977.431
-721.789
-595.582
-494.834
-219.538
737.439
627.529
475.703
294.782
99.5677
1186.73
1003.44
761.693
475.91
161.889
1246.98
1054.67
800.036
499.203
169.712
1726.94
1460.31
1108.05
691.837
235.29
1133.7
959.136
727.031
453.07
154.004
-7239.07
-7120.26
-6630.8
-7118.31
-7830
-1060.46
-708.909
-865.702
-1041.08
-550.268
-2284.35
-1770.65
-1597.59
-1459.43
-783.088
-894.881
-640.947
-646.438
-616.719
-224.432
621.272
512.255
376.353
226.937
76.2985
-3383.92
-2745.26
-2180.72
-1549.32
-601.825
914.228
765.382
573.08
352.831
118.546
2129.93
1750.83
1323.48
844.674
296.702
789.36
666.765
502.206
309.663
103.821
-3176.67
-3325.43
-3114.41
-3554.6
-4242.23
-1458.92
-1036.52
-928.432
-841.409
-377.076
-394.525
-321.914
-282.882
-228.18
-92.4058
-172.165
-128.477
-113.844
-97.7037
-41.0029
-2448.1
-1974.71
-1551.51
-1078.15
-407.522
-592.776
-465.207
-358.462
-237.659
-70.3018
244.174
217.972
160.933
90.837
29.0867
207.672
184.558
136.49
78.1725
25.7305
1735.26
1456.65
1100.53
686.889
234.088
1706.94
1439.82
1089
677.83
230.227
-375.377
-305.742
-242.142
-168.286
-62.6597
-192.169
-150.251
-121.726
-90.1237
-34.6905
-5265.71
-4305.7
-4045.61
-4364.14
-4133.33
-2888.65
-2262.47
-1873.42
-1487.02
-666.869
-2635.87
-2258.38
-1998.1
-1837.51
-836.529
-1322.72
-1067.28
-891.764
-719.925
-379.069
-2472.56
-2009.25
-1557.46
-1046.34
-374.797
-1701.22
-1057.13
-921.853
-779.546
-50.3592
694.286
597.131
449.371
272.974
92.1052
1735.7
1467.2
1110.98
691.506
234.772
367.454
324.163
239.04
138.03
47.8017
-97.932
-200.996
-234.251
-279.213
-405.176
-565.486
-19396.4
-15960.4
-15056.9
-18028.9
-13660.9
-10458.5
-12608.9
-9584.45
-17024.4
-13518.8
-14303.2
-12159.9
-12288.7
-9322.4
-11629.9
-16344.7
-14321.4
-12784.8
-14513.6
-12151.5
-9424.32
-10871
-8174.93
-15775.4
-13287.1
-14208.1
-12436.7
-12285.4
-10259.8
-11904.6
-12751.1
-11685
-10274.8
-11177.1
-10177.6
-8416.28
-9151.5
-7860.96
-13135.3
-11988.8
-12469
-11562.8
-11380.5
-9872.62
-11055.2
-8776.41
-8420.66
-7329.96
-7615.8
-7803.17
-7315.38
-7005.95
-7009.01
-9486.12
-10499.1
-9183.18
-10063.6
-8766.29
-7989.27
-9533.57
-5657.61
-5572.87
-4725.53
-4796.87
-5506.86
-5581.13
-4676.47
-4851.14
-6652.52
-8106.04
-6538.53
-7544.49
-6430.25
-6233.16
-7167.95
-2069.51
-2057.29
-1701.86
-1716.6
-2074.01
-2177.59
-1679.43
-1674.52
-2729.18
-3410.33
-2664.42
-2998.43
-2643.9
-2617.67
-2852.16
-7410.35
-7471.14
-10331.4
-11370.4
-7508.32
-7129.39
-9628.35
-8039.96
-7142.95
-4729.67
-7286.8
-4651.67
-7397.74
-7409.31
-4751.7
-7067.51
-6925.85
-9544.56
-10299.4
-6706.86
-5931
-8700.05
-7159.73
-5091.18
-2095.11
-5055.86
-2330.38
-4340.11
-4124.17
-2680.24
-5967.33
-5880.88
-8063.27
-8490.04
-5933.15
-5502.94
-7577.1
-6832.62
-2764.59
-2043.68
-2754.9
-2661.38
-2715.72
-2964.53
-3364.83
-4421.3
-4454.8
-5940.2
-6065.14
-4610.4
-4583.34
-5862.49
-5794.22
-2847.56
-1913.09
-3081.26
-2912.44
-3395.15
-3957.98
-3893.96
-2752.89
-2782.58
-3792.83
-3820.8
-2739.2
-2771.46
-3779.86
-3749.06
-1598.92
-1421.87
-1821.16
-2310.85
-2336.77
-2843.08
-3072.31
-927.804
-941.418
-1342.33
-1347.44
-942.658
-998.217
-1331.79
-1296.93
-283.349
-584.305
-462.14
-1036.56
-800.381
-1032.74
-1280.5
6946.13
20929.7
5316.57
23408.4
2914.71
24816.6
4992.74
39377.7
8170.88
49459.6
8361.6
35043.2
8912.86
31120.7
8674.47
26090.9
4132.78
2224.88
12464.3
5850.34
3856.09
1763.63
13461.1
5407.25
5297.87
3880.9
15550.1
11310.9
3584.67
2801.92
15957.7
12028.2
8067.51
2919.47
6071.59
2181.72
2759.47
7455.45
38465.3
11761.1
11521.8
5334.53
46774.6
14675.7
10786.6
5083.94
25408.5
8473.16
12932.7
5899.61
20628.9
6564.43
4581.51
2476.47
8160.92
3281.39
4076.9
2593.92
8767.73
3288.71
5495.72
3495.4
5476.65
2281.5
9839.72
3541.25
3877.31
1427.68
11967.1
8951.81
7281.6
6500.9
13560.7
11867.1
7358.55
7851.24
6694.28
5698.66
8645.74
7349.53
5442.47
4664.03
3175.26
2718.29
5471.77
5459.1
3145.91
3146.37
5181
4029.35
3040.29
2124.87
5717.13
3211.39
5699.94
6330.75
7528.67
5741.06
8105.14
10777.6
4205.55
1792.2
3677.8
3820.73
2392.02
831.195
1687.2
1466.1
5196.39
10605.7
3799.83
12016.9
5613.66
10733.9
4556.03
12788.3
7455.22
10712
6342.75
13070
8476.68
10391.5
6369.87
6358.17
7869.34
6852.88
7384.51
10075.4
11689.3
17212.5
9240.83
7308.05
6866.05
8706.74
13989.7
13219
12787.4
15462.8
15509.1
12905
12935.5
15505.4
15426.8
11952.3
12415
14914.9
15058.5
8637.26
9167.24
8265.11
8718.1
9989.89
9955.34
11623.3
11274.1
14627.6
14769.7
7891.23
8641.65
8804.63
9324.6
9738.19
10427.4
11156.9
12162.3
14658.8
15849
9193.07
6266.53
7448.82
7553.61
10406.5
11923.2
8463.44
11268.1
6775.78
6933.54
8606.56
6164.15
3108.65
5455.48
1270.32
2026.97
5239.57
8363.72
2056.47
3133.91
2569.57
4744.93
949.956
1720.3
6406.96
5484.9
6521.5
4061.9
9007.47
6405.78
10213.1
6787.9
2958.64
3495.28
3702.75
2087.63
2302.98
2533.75
2576.88
1957.17
11063.9
7254.91
2364.43
11975.6
7506.23
2589.22
10913.8
7106.79
2402.11
11998.8
7502.78
2533.6
10458.9
6704.19
2242.37
11827.7
7400.48
2539.75
6513.91
3682.53
942.26
7589.84
5174.02
1678.09
8627.46
6081.28
2048.2
9486.48
6151.87
2008.64
11486.3
7184.51
2539.85
7228.4
3934.09
1278.75
6800.39
4374.25
1507.02
7563.89
4964.23
1684.98
8969.73
5740.22
1950.57
10885.5
6307.96
2174.32
-495.789
985.665
430.91
2622.57
1721
1758.29
4453.71
3929.82
584.728
971.072
618.432
1014.98
332.708
942.533
620.751
1382.79
1883.78
1127.96
3816.54
2692.91
1753.7
2879.7
2907.67
855.721
5745.87
1841.9
-3993
-531.161
734.242
751.123
79.2842
249.108
10341.4
4684.3
2750.39
1677.42
10210.1
4766.79
3003.06
1986.84
9927.5
5257.08
4072.49
2971.93
3096.11
2073.45
1772.15
1626.34
13070.5
11447.3
5745.23
7344.92
14459
13515.2
7037.63
8455.09
5310.69
6414.47
11228.8
9320.55
3667.73
4799.16
2134.09
2802.44
4712.97
5516.17
2740.05
3172.51
3045.18
4237.54
1734.7
2582.28
4801.77
3527.66
5485.84
3846.53
8216.46
5111.01
7376.81
5077.22
2878.1
2404.58
3806.26
2636.67
1642.74
1519.78
2403.09
1613.5
12222.1
8492.15
6207.68
6696.76
12125.3
8426.47
6153.7
6562.26
12282.2
8058.32
6303.73
6112.16
13174.9
12572.2
12441.1
9717.15
5850.66
7681.1
9409.91
10136.2
9694.28
7112.12
10883.6
9897.99
8346.56
6904.54
4734.44
7576.94
7774.55
7773.88
9690.46
7481.02
7459.97
7560.72
9445.19
7051.03
6940.88
7153.99
8984.64
8649.62
8188.73
8229.67
7139.29
6346.51
6444.47
6311.59
6711.4
6247.89
8423.5
6328.57
7183.41
5412.53
6187.84
4968.43
5731.36
5045.21
6147.51
4806.46
7732.48
4756.1
3822.06
3249.94
1711.28
7168.15
5457.41
5788.95
3633.49
2567.14
1496
3803.07
3459.32
4237.53
1829.8
1981.31
1089.26
5433.56
3089.56
2242.41
1542.73
3509.77
1526.1
1787.96
906.014
2288.32
2778.86
2920.46
4973.18
3446.29
4255.34
3570.84
6505.09
2660.98
2009.45
2111.81
3525.36
1230.02
524.438
514.738
935.533
6213.94
2848.43
818.138
6805.24
1815.24
477.158
5987.13
2935.69
912.412
6724.13
1856.17
510.751
5368.6
2643.19
679.202
6358.5
1706.49
384.019
5523.31
2998.61
781.829
4788.68
2554.07
706.358
4850.49
2422.9
686.149
4935.86
2322.98
532.983
5985
1491.82
252.586
6142.62
3215.45
988.487
5433.14
2957.38
972.022
5053.39
2640.31
864.516
5023.9
2038.06
545.098
6162.16
1511.77
475.067
1847.95
710.815
325.691
-2.865
743.179
302.197
151.165
25.5576
1921.5
768.066
393.255
67.8512
909.808
412.729
259.262
121.484
2212.65
920.953
515.805
155.964
1571.4
818.241
472.907
225.687
1160.16
735.952
382.597
134.692
1212.85
842.766
514.922
295.959
1862.84
890.049
463.782
48.924
1788.98
822.855
472.983
-46.4379
2348.53
988.533
558.739
119.678
2120.19
873.584
510.446
-79.8199
1413.05
780.782
418.763
58.612
1390.04
730.029
446.485
74.7912
1049.82
682.291
443.447
264.302
963.813
612.413
428.332
252.756
2396.31
873.607
393.862
-106.371
2547.1
857.076
421.049
-298.055
2389.87
886.83
428.959
-69.4612
2438.14
825.297
419.444
-275.448
2412.69
913.899
494.366
-15.9946
2187.79
748.903
416.477
-203.58
2238.57
880.569
548.245
135.163
2409.29
848.203
539.594
-203.481
1757.1
686.244
433.204
40.126
2141.3
633.48
307.799
-277.537
851.175
226.008
94.0036
-68.8605
2094.41
637.607
318.462
-247.662
858.035
235.849
104.986
-53.5687
1956.09
620.712
335.457
-195.557
819.778
237.42
119.261
-31.893
1643.29
532.894
324.244
-138.269
720.618
210.639
128.466
-3.86782
1439.41
498.798
322.909
-59.6341
643.18
213.036
148.613
37.6804
1138.71
488.549
288.003
17.8543
585.848
298.305
188.422
104.276
1218.3
442.776
277.308
-20.6303
581.772
238.204
163.122
73.6704
1007.21
526.176
321.396
82.6154
596.43
356.442
226.125
145.061
778.351
509.858
350.27
216.465
551.28
386.8
269.073
205.092
13.7399
12.7736
8.83765
5.98286
4.62648
8.33531
6.57756
4.43493
2.99751
2.32464
39.2372
28.5413
18.4745
12.2881