/*--------------------------------*- C++ -*----------------------------------*\
| =========                 |                                                 |
| \\      /  F ield         | OpenFOAM: The Open Source CFD Toolbox           |
|  \\    /   O peration     | Version:  2412                                  |
|   \\  /    A nd           | Website:  www.openfoam.com                      |
|    \\/     M anipulation  |                                                 |
\*---------------------------------------------------------------------------*/
FoamFile
{
    version     2.0;
    format      ascii;
    arch        "LSB;label=32;scalar=64";
    class       volScalarField;
    location    "3";
    object      T;
}
// * * * * * * * * * * * * * * * * * * * * * * * * * * * * * * * * * * * * * //

dimensions      [0 0 0 1 0 0 0];

internalField   nonuniform List<scalar> 
5712
(
541.812
557.538
529.525
548.384
513.071
534.876
487.521
511.268
490.856
514.846
514.502
538.109
525.348
546.898
535.527
554.129
504.644
489.335
521.071
497.315
479.485
462.766
494.93
469.671
549.234
555.62
561.548
564.73
539.953
548.334
554.502
559.453
538.818
526.748
514.699
508.098
540.119
549.978
540.029
545.332
504.895
511.613
517.371
522.907
477.272
483.154
551.013
555.704
523.422
532.32
560.869
566.212
560.208
567.688
567.185
570.752
553.664
565.257
562.56
569.067
544.69
561.103
553.015
565.348
559.101
567.434
562.785
568.743
476.607
462.81
483.448
465.588
444.054
431.615
451.362
435.199
509.623
492.683
503.807
489.915
488.185
467.49
490.958
468.509
456.517
437.583
459.479
438.868
514.057
494.58
516.623
495.529
533.866
559.136
519.281
549.144
528.632
555.661
515.874
546.154
537.582
560.873
521.297
550.882
539.574
561.597
522.174
551.964
556.438
547.701
565.067
558.503
549.285
540.511
562.081
554.669
538.8
529.335
556.882
548.322
462.841
424.998
496.019
521.637
549.266
423.775
461.039
492.339
516.763
541.718
423.051
457.963
486.662
511.31
540.092
530.156
513.999
533.776
518.418
525.085
508.884
531.767
515.993
516.615
500.692
528.168
512.136
417.153
404.875
454.354
442.666
483.73
469.809
505.69
490.553
524.572
508.319
415.949
402.288
449.958
437.36
477.657
464.147
500.89
485.941
521.614
504.657
448.39
438.079
447.101
436.659
414.726
395.037
413.258
391.454
475.909
467.855
476.731
467.986
446.31
435.315
446.814
435.928
412.999
389.871
413.984
391.29
475.112
466.729
475.609
467.289
501.803
494.212
523.714
516.889
501.71
493.18
523.23
514.555
501.16
493.29
523.597
517.146
501.197
493.415
523.413
516.505
495.331
479.911
471.502
498.27
482.208
473.671
490.713
474.967
466.568
495.539
478.81
470.034
481.75
465.529
456.765
491.027
473.332
464.107
389.021
377.678
371.922
426.608
411.857
403.894
453.049
436.553
427.269
471.873
455.202
446.279
485.843
466.934
456.984
385.159
373.139
366.594
422.727
409.418
402.518
448.13
433.064
425.089
466.765
449.457
440.214
480.064
461.054
451.315
420.04
406.987
423.817
411.248
448.337
432.82
456.464
438.855
392.921
373.167
394.149
375.167
393.67
373.545
395.45
376.166
393.542
390.305
392.831
386.393
372.425
376.702
413.99
416.869
443.064
446.814
395.129
397.513
395.407
397.216
379.097
380.782
351.929
333.575
357.558
337.056
353.313
333.24
358.938
337.243
354.25
332.605
361.161
337.863
364.282
340.184
366.47
342.089
385.907
374.288
393.113
379.2
412.258
399.466
420.188
404.321
372.845
359.307
365.349
354.602
397.196
382.134
399.679
383.763
424.912
407.224
427.678
408.724
376.706
362.172
378.898
363.832
355.927
334.896
343.81
328.527
349.193
330.452
339.843
325.58
359.811
337.88
346.4
330.536
362.112
339.96
348.056
331.869
334.401
322.969
326.561
318.814
335.383
324.449
326.176
318.854
336.643
327.84
325.529
319.548
366.14
390.208
349.158
338.168
324.366
388.288
362.687
343.09
331.362
319.81
388.53
364.613
347.01
334.424
322.076
313.273
303.647
310.335
300.808
315.715
306.096
311.36
302.062
319.993
311.002
313.083
304.181
381.641
369.369
355.822
344.524
337.702
328.735
325.761
316.972
315.352
306.964
381.398
368.74
358.159
347.125
341.037
331.417
328.542
319.091
318.153
309.695
361.185
347.57
362.189
346.785
382.648
366.344
383.393
363.908
345.227
332.632
344.094
332.604
363.059
346.192
364.449
347.576
384.523
361.997
385.961
363.387
346.098
332.704
347.335
333.858
330.965
320.338
320.594
310.148
330.743
319.725
319.926
309.979
331.143
320.989
320.942
310.095
332.728
321.736
321.627
311.339
291.414
284.689
282.081
283.739
278.965
277.39
294.747
287.707
284.795
285.144
280.192
278.42
299.983
292.736
289.864
287.29
281.967
280.113
355.912
346.602
342.236
333.571
326.005
322.777
318.132
311.155
308.489
305.562
298.301
295.388
289.299
283.899
281.814
354.302
344.239
339.426
334.879
325.999
321.698
319.829
311.865
308.218
306.116
299.329
296.742
290.487
285.383
282.892
319.77
311.491
306.141
301.407
321.326
312.118
306.428
301.446
319.636
311.522
306.258
301.588
321.572
312.34
306.684
301.701
319.319
311.524
306.443
301.88
321.889
312.658
307.032
302.036
323.173
313.436
307.41
302.196
324.458
314.303
307.855
302.392
320.754
312.397
307.05
302.299
318.252
311.583
306.701
302.535
318.616
311.409
306.566
302.212
316.828
310.863
306.329
302.486
322.376
313.263
307.44
302.381
319.452
312.272
307.065
302.677
323.66
314.056
307.889
302.627
320.466
312.933
307.498
302.984
317.18
310.52
305.75
301.448
314.08
309.416
305.286
301.59
316.995
310.506
305.813
301.593
314.093
309.464
305.343
301.71
316.67
310.471
305.91
301.847
314.367
309.644
305.493
301.935
316.116
310.388
306
302.177
314.48
309.773
305.651
302.21
315.438
310.252
306
302.442
311.195
308.5
304.783
302.129
309.512
308.06
304.565
302.363
311.624
308.677
304.893
302.223
310.013
308.254
304.675
302.45
312.316
308.979
305.083
302.386
310.834
308.591
304.865
302.605
313.137
309.348
305.356
302.625
311.825
309.02
305.132
302.815
314.16
309.832
305.689
302.883
312.744
309.471
305.414
303.04
315.593
310.788
306.232
303.307
313.985
310.42
306.029
303.54
314.924
310.287
305.946
303.097
313.447
309.949
305.715
303.286
316.229
311.32
306.533
303.506
314.556
310.942
306.355
303.799
317.03
311.928
306.935
303.8
315.364
311.544
306.759
304.12
296.094
292.227
289.286
287.317
286.332
296.107
292.237
289.292
287.322
286.336
296.172
292.267
289.308
287.331
286.343
296.201
292.289
289.323
287.341
286.351
296.258
292.312
289.334
287.348
286.355
296.34
292.369
289.371
287.372
286.374
296.534
292.487
289.443
287.42
286.411
296.725
292.607
289.519
287.469
286.449
296.444
292.418
289.398
287.389
286.387
296.486
292.425
289.399
287.39
286.387
296.351
292.36
289.361
287.365
286.369
296.428
292.39
289.377
287.375
286.376
296.557
292.49
289.443
287.419
286.41
296.597
292.495
289.443
287.419
286.41
296.761
292.621
289.525
287.473
286.452
296.795
292.623
289.524
287.472
286.451
296.085
292.217
289.279
287.312
286.329
296.088
292.211
289.274
287.309
286.326
296.146
292.246
289.295
287.322
286.336
296.142
292.237
289.288
287.318
286.333
296.227
292.285
289.316
287.336
286.346
296.219
292.273
289.308
287.33
286.342
296.319
292.33
289.341
287.351
286.358
296.295
292.312
289.33
287.344
286.352
296.379
292.362
289.36
287.364
286.368
541.505
537.416
540.77
536.625
539.378
535.194
537.673
533.284
536.142
531.425
536.246
533.4
536.067
532.583
536.278
533.56
536.424
533.681
566.365
571.544
572.672
572.927
572.982
560.878
570.071
572.339
572.856
572.965
566.444
571.587
572.684
572.93
572.983
560.8
570.094
572.349
572.86
572.966
566.406
571.614
572.694
572.933
572.983
560.565
570.091
572.356
572.863
572.967
566.385
571.643
572.704
572.935
572.984
560.241
570.059
572.354
572.862
572.967
566.356
571.645
572.703
572.935
572.983
559.931
569.992
572.335
572.857
572.965
565.171
571.235
572.589
572.906
572.975
559.186
569.577
572.201
572.821
572.955
565.651
571.418
572.642
572.92
572.979
559.473
569.771
572.268
572.84
572.96
564.847
571.11
572.551
572.895
572.972
559.004
569.46
572.158
572.808
572.95
564.937
571.122
572.55
572.894
572.972
559.047
569.451
572.149
572.804
572.949
427.241
464.295
461.414
424.929
407.139
408.939
414.041
417.13
426.532
429.678
452.128
458.912
456.356
462.824
434.747
437.21
425.859
428.207
417.604
419.529
367.908
350.266
305.603
299.813
304.252
300.482
305.249
368.242
362.777
344.599
352.348
346.806
324.476
334.823
329.821
319.075
322.415
317.542
362.354
336.988
321.576
319.131
325.583
321.236
313.491
313.763
312.021
308.966
316.136
314.304
362.304
341.515
348.283
331.323
325.12
337.047
314.485
308.167
317.68
352.156
337.17
323.637
308.694
287.591
339.678
328.122
315.574
301.2
283.276
302.375
297.824
291.83
284.757
276.998
297.2
293.485
288.554
282.713
276.302
301.172
296.813
291.054
284.26
276.826
297.799
293.985
288.926
282.94
276.379
302.061
297.558
291.621
284.618
276.949
352.24
335.746
321.253
305.987
286.527
346.186
330.08
315.786
300.906
283.172
334.584
323.136
310.658
296.974
281.445
337.883
323.34
310.055
296.394
281.437
333.746
319.941
307.285
294.364
280.481
318.534
310.806
301.339
290.619
279
326.683
316.897
305.704
293.391
280.008
322.608
313.662
303.205
291.688
279.358
314.059
307.306
298.787
289.017
278.439
316.775
309.364
300.224
289.878
278.73
312.763
306.27
298.02
288.533
278.27
348.457
333.443
319.823
305.03
285.964
329.054
319.304
308
295.225
280.743
316.248
309.133
300.211
289.961
278.777
314.209
307.545
299.08
289.277
278.545
319.679
311.942
302.395
291.431
279.316
316.071
309.109
300.307
290.089
278.828
309.35
303.621
296.201
287.5
277.936
309.581
303.794
296.299
287.537
277.944
308.034
302.485
295.273
286.861
277.706
305.353
300.286
293.65
285.867
277.371
311.6
305.387
297.424
288.198
278.163
310.038
304.147
296.536
287.666
277.985
348.179
333.743
320.581
306.01
286.348
332.822
322.634
311.038
297.7
281.814
338.711
326.325
313.781
299.535
281.848
324.693
316.123
305.762
293.758
280.127
319.435
311.866
302.436
291.492
279.313
329.331
319.559
308.291
295.431
280.64
310.217
304.327
296.715
287.81
278.04
304.645
299.705
293.227
285.615
277.287
312.982
306.572
298.377
288.845
278.396
506.712
544.986
499.148
535.402
476.127
516.178
483.143
526.888
490.25
479.733
516.35
493.327
466.779
454.881
491.373
466.712
523.644
537.431
553.054
558.685
517.963
531.939
546.845
553.83
533.091
512.035
510.465
498.404
527.371
544.964
538.473
545.004
503.194
511.202
516.07
522.591
476.062
482.849
549.302
555.375
521.708
531.917
559.536
566.006
549.547
564.011
563.525
569.505
543.439
561.855
558.876
567.839
536.395
558.343
549.341
564.1
557.761
566.936
562.517
568.635
473.713
463.326
481.726
465.915
443.99
434.973
451.144
437.051
507.193
492.117
499.465
488.752
487.406
467.73
490.761
468.608
456.461
438.593
459.484
439.215
512.95
494.359
516.329
495.478
531.533
558.249
518.482
548.768
524.252
553.973
514.272
545.399
536.533
560.465
520.947
550.717
539.296
561.485
522.077
551.919
538.826
526.909
559.136
551.05
532.6
521.228
556.806
548.091
525.287
514.6
552.712
543.465
465.078
436.106
491.754
515.235
546.658
436.349
463.354
486.61
508.436
538.291
432.768
460.484
484.91
508.44
538.734
508.701
494.354
523.633
510.871
505.431
490.952
523.332
509.932
501.597
487.597
522.451
508.516
429.442
419.367
456.516
446.171
478.625
466.422
498.388
485.265
521.185
506.767
425.775
413.222
453.437
443.023
477.187
466.387
499.109
486.682
520.427
505.094
451.184
442.104
449.095
439.373
420.844
402.517
417.09
396.252
476.658
469.243
477.345
469.808
447.468
436.842
447.192
436.408
415.001
392.303
414.613
392.042
475.652
467.6
475.797
467.573
501.907
494.763
523.633
517.04
501.351
493.775
522.815
514.659
501.34
493.695
523.628
517.292
501.276
493.567
523.436
516.562
483.534
477.814
499.161
493.691
479.836
473.581
497.727
491.048
476.39
469.868
495.258
486.742
408.881
403.156
436.401
429.594
456.595
449.025
474.05
466.242
491.658
481.266
399.012
394.38
433.376
427.626
456.042
448.922
473.438
464.315
486.586
476.288
412.904
405.027
420.979
411.228
439.015
428.039
453.776
437.34
395.011
377.284
399.398
380.799
393.134
377.12
398.061
380.819
395.057
389.876
394.77
388.213
376.573
380.534
414.37
417.052
442.561
446.71
396.416
398.035
396.769
397.72
381.607
381.717
363.956
345.947
366.1
346.968
364.425
344.815
366.343
345.958
364.309
342.937
367.034
344.807
367.839
344.517
367.695
343.588
392.077
383.123
396.239
384.206
415.543
406.123
421.676
407.961
377.594
365.123
374.128
364.38
398.855
384.806
400.191
384.651
425.695
409.145
427.924
409.364
379.225
365.342
379.679
364.89
361.957
340.934
349.761
333.911
359.584
339.486
349.374
333.583
363.065
341.394
349.735
333.668
363.123
341.101
349.185
332.917
360.093
356.402
343.382
339.199
360.283
356.698
342.017
337.88
359.478
356.113
339.874
336.018
386.601
408.671
369.155
356.022
336.754
409.606
387.321
368.565
354.109
334.266
404.719
382.309
363.659
348.914
332.779
351.778
344.74
332.408
320.873
352.475
345.973
331.724
320.721
352.072
345.57
330.579
320.254
403.089
393.905
381.891
374.09
364.658
358.478
350.005
342.76
330.165
320.747
397.519
385.379
376.541
366.129
358.691
349.464
343.856
334.282
329.366
320.618
371.921
358.293
368.425
353.029
392.069
376.397
388.906
369.952
351.541
338.545
354.767
342.741
366.229
349.264
365.437
348.514
387.287
364.974
386.815
364.296
349.369
335.638
348.369
334.765
336.707
325.428
325.625
314.28
340.367
328.344
327.74
316.666
334.237
323.623
323.739
312.273
333.781
322.595
322.474
311.991
337.124
333.996
299.703
296.382
340.287
336.585
300.55
296.97
338.756
333.628
301.205
296.908
384.925
379.675
366.51
362.133
351.056
346.717
333.77
328.343
301.425
296.388
373.095
369.192
355.368
351.463
338.822
334.866
321.509
318.093
299.229
295.309
328.507
317.238
310.063
304.052
329.039
317.375
310.096
303.95
327.848
316.954
309.971
304.082
328.413
317.048
309.993
303.965
326.695
316.451
309.853
304.198
327.44
316.528
309.777
303.902
326.773
315.998
309.206
303.369
325.737
315.226
308.512
302.836
325.34
315.611
309.362
303.925
322.371
314.518
308.856
304.161
324.929
315.686
309.575
304.305
322.611
314.848
309.127
304.481
325.196
315.289
308.944
303.498
321.933
314.084
308.442
303.776
324.622
314.756
308.408
303.005
321.3
313.55
307.971
303.365
327.367
316.9
309.993
304.3
325.571
316.378
309.782
304.663
326.725
316.653
309.911
304.349
325.064
316.196
309.703
304.696
325.663
316.234
309.78
304.476
324.262
315.869
309.577
304.777
324.042
315.571
309.532
304.634
323.392
315.496
309.436
304.86
322.579
315.018
309.241
304.712
323.436
315.862
309.414
305.556
321.917
315.589
309.295
306.006
323.212
315.75
309.383
305.553
321.743
315.48
309.255
305.987
322.747
315.514
309.29
305.522
321.379
315.257
309.153
305.939
322.251
315.204
309.201
305.499
320.976
314.952
309.035
305.88
321.576
314.777
309.053
305.455
320.322
314.55
308.861
305.794
319.666
313.765
308.377
305.025
317.997
313.424
308.191
305.314
320.708
314.327
308.772
305.3
319.198
314.033
308.575
305.607
318.649
313.153
307.883
304.615
316.909
312.779
307.7
304.915
317.823
312.541
307.392
304.179
316.125
312.152
307.209
304.495
297.629
293.148
289.849
287.686
286.616
297.59
293.133
289.842
287.682
286.613
297.594
293.117
289.828
287.671
286.605
297.527
293.088
289.812
287.662
286.597
297.55
293.081
289.803
287.655
286.592
297.409
293.013
289.765
287.63
286.573
297.205
292.893
289.693
287.583
286.537
296.989
292.768
289.617
287.534
286.499
297.375
292.977
289.74
287.614
286.56
297.415
292.982
289.74
287.613
286.559
297.496
293.041
289.777
287.637
286.578
297.491
293.02
289.762
287.627
286.57
297.231
292.899
289.694
287.584
286.537
297.273
292.906
289.696
287.584
286.537
296.991
292.762
289.612
287.53
286.496
297.036
292.771
289.615
287.532
286.497
297.682
293.167
289.858
287.691
286.62
297.729
293.178
289.863
287.694
286.622
297.665
293.145
289.842
287.68
286.612
297.715
293.16
289.849
287.685
286.615
297.638
293.115
289.821
287.666
286.6
297.69
293.132
289.83
287.671
286.604
297.592
293.077
289.796
287.649
286.587
297.634
293.095
289.806
287.655
286.592
297.542
293.047
289.778
287.637
286.578
536.105
532.422
536.169
532.458
536.074
532.342
535.656
531.705
535.23
530.901
536.139
533.39
535.706
532.413
536.27
533.602
536.43
533.702
565.468
571.378
572.639
572.921
572.98
559.356
569.744
572.272
572.843
572.962
565.68
571.445
572.656
572.925
572.981
559.496
569.81
572.291
572.848
572.964
565.845
571.506
572.672
572.929
572.982
559.606
569.873
572.31
572.853
572.965
566.036
571.573
572.688
572.932
572.983
559.644
569.913
572.322
572.856
572.965
566.183
571.606
572.693
572.932
572.983
559.628
569.906
572.315
572.853
572.964
565.139
571.224
572.585
572.905
572.975
559.141
569.557
572.195
572.819
572.954
565.568
571.396
572.637
572.918
572.979
559.339
569.725
572.256
572.837
572.959
564.838
571.105
572.549
572.895
572.972
558.997
569.453
572.155
572.807
572.95
564.936
571.121
572.549
572.894
572.972
559.048
569.45
572.148
572.803
572.949
427.182
463.982
460.191
424.239
418.229
424.347
416.06
423.554
444.59
460.132
448.428
463.148
283.529
284.172
285.605
287.87
290.967
294.888
284.075
284.707
286.104
288.287
291.264
295.049
283.079
282.853
283.738
283.513
285.224
285.012
287.643
287.522
290.965
291.094
295.246
295.861
299.547
305.331
312.806
322.779
331.148
337.206
299.671
305.243
311.818
318.993
325.158
329.084
282.528
281.089
279.157
276.85
274.31
283.11
281.582
279.531
277.084
274.389
284.404
282.678
280.364
277.604
274.566
286.449
284.411
281.68
278.426
274.846
289.244
286.775
283.474
279.546
275.226
292.776
289.759
285.737
280.957
275.706
283.022
281.508
279.475
277.049
274.378
283.593
281.991
279.842
277.278
274.456
284.855
283.06
280.654
277.785
274.628
286.825
284.728
281.921
278.576
274.897
289.51
286.999
283.644
279.652
275.262
292.919
289.878
285.827
281.014
275.726
282.121
280.744
278.894
276.686
274.254
281.917
280.57
278.763
276.604
274.226
282.717
281.249
279.278
276.926
274.336
282.514
281.077
279.147
276.844
274.308
284.06
282.387
280.143
277.466
274.519
283.869
282.225
280.02
277.39
274.493
286.245
284.238
281.549
278.344
274.818
286.136
284.146
281.479
278.3
274.803
289.242
286.774
283.473
279.545
275.226
289.358
286.872
283.547
279.591
275.241
293.099
290.032
285.942
281.084
275.749
293.651
290.496
286.292
281.301
275.822
296.962
293.287
288.408
282.624
276.273
302.135
297.631
291.694
284.68
276.974
308.764
303.164
295.884
287.319
277.88
317.476
310.368
301.378
290.854
279.115
324.609
316.224
305.928
293.915
280.25
329.675
320.365
309.204
296.2
281.118
297.071
293.379
288.479
282.671
276.29
302.058
297.57
291.655
284.659
276.968
307.909
302.47
295.37
286.998
277.77
314.243
307.751
299.388
289.555
278.656
319.635
312.232
302.823
291.778
279.442
323.047
315.066
305.015
293.22
279.958
283.65
284.542
286.243
288.808
292.241
296.536
284.199
285.082
286.745
289.212
292.491
296.58
283.198
282.971
284.104
283.875
285.861
285.646
288.597
288.482
292.292
292.441
297.058
297.807
301.556
307.635
315.241
324.948
332.671
337.758
301.47
307.215
313.789
320.698
326.327
329.501
282.638
281.182
279.228
276.895
274.325
283.445
281.867
279.749
277.221
274.436
284.983
283.172
280.741
277.841
274.647
287.301
285.137
282.236
278.775
274.965
290.403
287.765
284.233
280.023
275.389
294.278
291.045
286.725
281.58
275.919
283.134
281.603
279.548
277.095
274.393
283.933
282.281
280.064
277.417
274.503
285.436
283.556
281.033
278.023
274.709
287.666
285.445
282.47
278.921
275.014
290.626
287.953
284.375
280.112
275.419
294.314
291.073
286.745
281.593
275.923
282.229
280.836
278.964
276.73
274.269
282.024
280.661
278.832
276.647
274.241
283.049
281.531
279.494
277.061
274.382
282.842
281.356
279.36
276.978
274.353
284.638
282.879
280.519
277.702
274.6
284.443
282.714
280.394
277.624
274.573
287.112
284.977
282.114
278.699
274.939
287.007
284.889
282.047
278.657
274.925
290.45
287.806
284.264
280.043
275.396
290.585
287.921
284.352
280.097
275.414
294.751
291.447
287.03
281.771
275.984
295.428
292.021
287.466
282.043
276.076
298.798
294.865
289.624
283.393
276.536
304.25
299.458
293.111
285.58
277.283
311.016
305.126
297.42
288.303
278.219
319.507
312.163
302.804
291.781
279.438
326.054
317.516
306.97
294.605
280.494
330.205
320.844
309.594
296.462
281.212
298.714
294.79
289.567
283.359
276.525
303.865
299.129
292.861
285.425
277.231
309.724
304.045
296.597
287.781
278.039
315.824
309.133
300.474
290.253
278.898
320.725
313.191
303.583
292.27
279.613
323.438
315.411
305.29
293.399
280.021
368.755
351.023
308.408
302.106
307.678
303.237
308.502
376.77
375.089
353.292
366.035
331.444
343.248
325.451
330.096
323.555
368.121
343.156
327.44
324.222
331.075
325.598
316.752
317.91
317.388
313.564
321.605
319.097
364.918
343.657
352.624
334.413
328.898
341.928
318.282
312.02
322.227
353.064
338.042
324.416
309.299
287.842
340.433
328.825
316.17
301.622
283.434
304.953
300.056
293.565
285.861
277.377
299.297
295.289
289.947
283.594
276.604
304.32
299.537
293.17
285.606
277.289
300.32
296.157
290.605
284.004
276.743
305.052
300.148
293.634
285.899
277.389
361.882
345.274
329.737
312.313
289.17
360.477
343.954
328
309.897
286.821
343.575
331.7
317.957
302.065
283.34
353.779
338.404
323.031
305.685
285.095
325.33
317.028
306.432
294.006
280.2
335.338
325.086
312.599
298.108
281.726
320.143
312.779
303.199
291.912
279.453
324.198
316.12
305.729
293.528
280.02
318.488
311.414
302.162
291.246
279.219
354.661
339.49
325.166
308.984
287.608
335.153
324.962
312.712
298.43
281.903
321.852
314.182
304.288
292.641
279.718
319.02
311.834
302.512
291.515
279.326
324.945
316.704
306.261
293.99
280.219
320.189
312.778
303.243
292.005
279.497
312.379
306.275
298.289
288.843
278.4
313.445
307.189
298.978
289.263
278.542
313.021
306.856
298.715
289.076
278.473
309.599
303.98
296.538
287.715
278.008
316.752
309.966
301.074
290.57
278.989
314.519
308.099
299.664
289.687
278.686
350.957
336.373
322.889
307.739
287.076
334.918
324.554
312.632
298.793
282.214
343.102
330.421
317.252
301.95
282.68
327.648
318.786
307.922
295.19
280.628
323.014
315.065
305.007
293.177
279.901
334.117
323.958
311.935
297.893
281.511
313.756
307.437
299.17
289.393
278.588
308.203
302.799
295.644
287.16
277.82
317.253
310.359
301.391
290.803
279.077
280.639
295.258
308.399
319.634
328.499
335.077
488.604
483.529
460.66
465.767
475.825
469.42
453.18
444.537
507.802
524.54
503.907
520.088
498.651
489.852
515.301
478.943
475.233
453.162
457.108
468.82
464.081
446.878
440.113
497.688
510.994
495.181
507.901
490.889
483.591
504.204
465.46
463.146
442.521
445.267
458.51
455.773
437.71
432.639
482.435
495.816
480.868
493.91
478.157
473.106
491.439
451.889
450.316
431.258
433.404
446.848
445.115
427.224
422.77
468.066
481.457
467.012
479.951
464.824
460.586
477.899
442.092
440.717
423.002
424.994
437.341
435.398
419.041
414.021
457.164
469.397
456.402
468.815
454.53
450.512
467.221
435.295
433.959
417.412
419.355
430.607
428.58
413.524
408.586
448.917
461.409
448.184
461.249
446.641
442.876
459.673
411.893
408.986
434.529
438.216
405.096
397.919
428.952
420.068
389.355
370.489
386.924
369.812
381.76
380.268
368.714
407.827
404.962
429.06
432.275
401.179
394.326
423.961
415.939
384.346
368.003
381.798
367.626
377.149
376.088
366.477
401.816
399.136
420.906
423.542
395.57
389.484
416.539
409.809
382.061
366.085
379.732
365.143
375.368
374.273
363.448
395.025
392.299
411.778
414.147
388.172
381.617
407.608
400.69
377.822
362.906
375.233
361.093
370.514
368.606
358.315
390.041
387.272
405.087
407.393
383.197
376.555
400.924
393.936
374.471
361.086
371.516
357.972
366.321
363.54
353.829
386.995
384.181
400.679
402.968
380.137
373.43
396.55
389.727
373.32
359.397
370.092
355.357
363.975
360.584
350.561
542.422
557.946
529.523
548.356
513.072
534.866
487.526
511.269
490.865
514.847
514.511
538.103
525.365
546.887
536.343
554.681
504.643
489.333
521.066
497.312
479.488
462.767
494.931
469.671
549.667
555.938
561.819
564.927
539.946
548.319
554.473
559.426
538.807
526.741
514.694
508.094
540.108
549.964
540.027
545.332
504.893
511.612
517.371
522.907
477.273
483.154
551.009
555.703
523.42
532.319
560.866
566.211
560.454
567.799
567.338
570.814
553.645
565.252
562.538
569.06
544.679
561.099
553.005
565.344
559.097
567.433
562.784
568.743
476.605
462.808
483.446
465.587
444.054
431.615
451.362
435.199
509.62
492.682
503.803
489.913
488.183
467.489
490.957
468.508
456.517
437.583
459.479
438.868
514.055
494.579
516.621
495.528
533.862
559.134
519.279
549.143
528.627
555.659
515.871
546.153
537.58
560.872
521.296
550.881
539.572
561.596
522.173
551.964
556.676
547.925
565.198
558.647
549.258
540.48
562.075
554.66
538.786
529.322
556.878
548.319
462.84
424.998
496.016
521.631
549.264
423.775
461.037
492.336
516.757
541.716
423.05
457.962
486.66
511.307
540.091
530.351
514.165
533.911
518.526
525.071
508.867
531.776
516
516.608
500.685
528.17
512.139
417.153
404.875
454.353
442.665
483.727
469.807
505.685
490.55
524.572
508.32
415.949
402.288
449.957
437.36
477.656
464.146
500.888
485.94
521.613
504.657
448.389
438.078
447.101
436.659
414.725
395.037
413.258
391.454
475.908
467.854
476.73
467.985
446.31
435.315
446.814
435.928
412.998
389.871
413.983
391.29
475.111
466.729
475.608
467.288
501.802
494.211
523.713
516.889
501.709
493.179
523.229
514.555
501.159
493.289
523.596
517.146
501.196
493.415
523.412
516.504
495.501
480.096
471.704
498.386
482.348
473.827
490.703
474.96
466.565
495.544
478.816
470.043
481.746
465.527
456.766
491.029
473.335
464.112
389.022
377.678
371.923
426.608
411.858
403.894
453.048
436.554
427.27
471.872
455.202
446.279
485.844
466.936
456.987
385.159
373.14
366.595
422.727
409.419
402.519
448.13
433.064
425.09
466.765
449.457
440.215
480.065
461.055
451.317
420.048
406.991
423.825
411.251
448.343
432.823
456.469
438.857
392.803
373.119
394.002
375.096
393.658
373.534
395.437
376.157
393.54
390.303
392.832
386.393
372.421
376.699
413.992
416.871
443.065
446.816
395.13
397.515
395.408
397.217
379.097
380.783
351.883
333.571
357.499
337.041
353.312
333.232
358.938
337.239
354.249
332.602
361.16
337.862
364.282
340.183
366.471
342.09
385.909
374.289
393.114
379.201
412.26
399.467
420.189
404.322
372.846
359.308
365.35
354.603
397.198
382.135
399.68
383.764
424.913
407.225
427.679
408.725
376.707
362.173
378.9
363.833
355.928
334.896
343.81
328.528
349.193
330.452
339.844
325.581
359.812
337.88
346.4
330.536
362.113
339.96
348.057
331.87
334.366
322.909
326.558
318.793
335.385
324.453
326.169
318.85
336.644
327.842
325.527
319.548
366.141
390.209
349.16
338.169
324.366
388.289
362.689
343.092
331.364
319.811
388.53
364.614
347.011
334.426
322.077
313.193
303.552
310.312
300.775
315.726
306.108
311.368
302.073
319.999
311.01
313.087
304.187
381.642
369.37
355.823
344.526
337.704
328.738
325.765
316.977
315.354
306.968
381.399
368.741
358.16
347.126
341.038
331.419
328.543
319.093
318.155
309.697
361.186
347.571
362.19
346.786
382.649
366.345
383.394
363.908
345.227
332.633
344.095
332.605
363.059
346.192
364.45
347.577
384.524
361.997
385.961
363.387
346.099
332.704
347.336
333.858
330.966
320.339
320.595
310.148
330.744
319.726
319.926
309.98
331.144
320.989
320.943
310.095
332.729
321.737
321.627
311.34
291.321
284.6
281.992
283.735
278.95
277.373
294.769
287.727
284.811
285.161
280.206
278.431
299.993
292.746
289.872
287.297
281.973
280.119
355.913
346.603
342.237
333.573
326.008
322.779
318.136
311.159
308.492
305.567
298.306
295.393
289.302
283.902
281.817
354.303
344.24
339.427
334.88
326
321.7
319.831
311.868
308.22
306.118
299.331
296.745
290.489
285.385
282.894
319.772
311.488
306.134
301.398
321.318
312.108
306.416
301.434
319.634
311.521
306.257
301.588
321.572
312.34
306.684
301.7
319.318
311.524
306.442
301.88
321.889
312.658
307.032
302.036
323.173
313.436
307.41
302.196
324.458
314.304
307.855
302.392
320.755
312.397
307.05
302.299
318.253
311.583
306.701
302.535
318.616
311.409
306.566
302.212
316.829
310.863
306.329
302.486
322.376
313.264
307.44
302.381
319.452
312.273
307.065
302.678
323.661
314.056
307.889
302.627
320.467
312.934
307.498
302.984
317.184
310.52
305.746
301.44
314.076
309.413
305.282
301.585
316.993
310.505
305.812
301.592
314.093
309.464
305.342
301.71
316.669
310.471
305.91
301.847
314.367
309.644
305.493
301.935
316.116
310.388
306
302.177
314.481
309.773
305.651
302.21
315.439
310.253
306
302.442
311.191
308.498
304.78
302.124
309.501
308.055
304.561
302.359
311.629
308.678
304.894
302.222
310.018
308.256
304.675
302.449
312.319
308.98
305.083
302.385
310.837
308.592
304.865
302.605
313.139
309.348
305.356
302.625
311.827
309.02
305.132
302.815
314.161
309.833
305.689
302.883
312.745
309.472
305.414
303.04
315.594
310.788
306.232
303.307
313.985
310.42
306.03
303.54
314.925
310.288
305.946
303.097
313.448
309.949
305.716
303.286
316.23
311.32
306.533
303.506
314.557
310.943
306.355
303.799
317.031
311.928
306.936
303.801
315.365
311.544
306.76
304.12
296.09
292.225
289.285
287.317
286.332
296.102
292.234
289.291
287.321
286.335
296.172
292.267
289.308
287.332
286.343
296.201
292.289
289.323
287.341
286.351
296.258
292.312
289.334
287.348
286.356
296.34
292.369
289.371
287.372
286.374
296.534
292.487
289.444
287.42
286.411
296.726
292.608
289.519
287.47
286.45
296.444
292.418
289.398
287.389
286.388
296.486
292.426
289.4
287.39
286.388
296.351
292.36
289.362
287.365
286.369
296.428
292.39
289.377
287.375
286.377
296.557
292.49
289.443
287.419
286.411
296.597
292.495
289.443
287.419
286.41
296.761
292.621
289.525
287.474
286.452
296.796
292.623
289.524
287.472
286.451
296.081
292.215
289.278
287.312
286.328
296.085
292.209
289.273
287.309
286.326
296.146
292.246
289.295
287.323
286.336
296.141
292.237
289.288
287.318
286.333
296.227
292.285
289.316
287.336
286.346
296.219
292.273
289.308
287.33
286.342
296.319
292.33
289.341
287.352
286.358
296.295
292.312
289.331
287.344
286.353
296.379
292.362
289.36
287.364
286.368
541.562
537.479
540.785
536.64
539.385
535.201
537.676
533.287
536.143
531.426
536.245
533.4
536.067
532.583
536.278
533.56
536.424
533.68
566.398
571.552
572.673
572.928
572.982
560.903
570.077
572.34
572.857
572.965
566.455
571.591
572.685
572.931
572.983
560.813
570.099
572.351
572.86
572.966
566.411
571.615
572.695
572.933
572.983
560.571
570.093
572.357
572.863
572.967
566.387
571.644
572.704
572.935
572.984
560.244