/*--------------------------------*- C++ -*----------------------------------*\
| =========                 |                                                 |
| \\      /  F ield         | OpenFOAM: The Open Source CFD Toolbox           |
|  \\    /   O peration     | Version:  2412                                  |
|   \\  /    A nd           | Website:  www.openfoam.com                      |
|    \\/     M anipulation  |                                                 |
\*---------------------------------------------------------------------------*/
FoamFile
{
    version     2.0;
    format      ascii;
    arch        "LSB;label=32;scalar=64";
    class       volScalarField;
    location    "50/heater";
    object      T;
}
// * * * * * * * * * * * * * * * * * * * * * * * * * * * * * * * * * * * * * //

dimensions      [0 0 0 1 0 0 0];

internalField   nonuniform List<scalar> 
80
(
314.55224
314.06355
313.12307
311.81242
318.23047
317.58969
316.34224
314.58162
326.1231
325.17684
323.27548
320.48114
339.27034
337.94748
335.09321
330.44065
481.65263
482.40527
482.41516
481.71678
449.30099
450.19506
450.15382
449.25989
420.79896
421.46778
421.24042
420.28861
396.07621
396.32683
395.65082
394.40501
375.30033
374.89025
373.22714
370.80288
358.95121
357.59338
354.18322
347.22068
481.6526
482.40525
482.41514
481.71677
449.30093
450.19502
450.1538
449.25988
420.7989
421.46775
421.24041
420.28862
396.07615
396.3268
395.65082
394.40505
375.30029
374.89024
373.22716
370.80292
358.95123
357.59342
354.18326
347.22072
339.27035
337.9475
335.09323
330.44067
326.12311
325.17686
323.27551
320.48118
318.23047
317.58971
316.34229
314.58168
314.55218
314.06356
313.12313
311.81252
)
;

boundaryField
{
    minY
    {
        type            fixedValue;
        value           uniform 500;
    }
    minZ
    {
        type            zeroGradient;
    }
    maxZ
    {
        type            zeroGradient;
    }
    heater_to_topAir
    {
        type            compressible::turbulentTemperatureRadCoupledMixed;
        refValue        nonuniform List<scalar> 
40
(
300.86396
301.59822
302.21792
302.70854
300.90203
301.68055
302.34336
302.87188
301.26255
302.34276
303.2508
303.95622
301.8949
303.5169
304.87921
305.91632
302.82253
305.25039
307.31464
308.87606
302.82254
305.2504
307.31465
308.87606
301.8949
303.5169
304.87921
305.91633
301.26255
302.34276
303.2508
303.95622
300.90203
301.68055
302.34337
302.87189
300.86396
301.59822
302.21793
302.70855
)
;
        refGradient     uniform 0;
        valueFraction   uniform 0.00032132529;
        source          uniform 0;
        logInterval     -1;
        writePrecision  8;
        updateHeader    1;
        writeToFile     0;
        useUserTime     1;
        kappaMethod     solidThermo;
        value           nonuniform List<scalar> 
40
(
314.53421
314.04622
313.10683
311.79761
318.21063
317.57062
316.32441
314.56541
326.09978
325.1545
323.25469
320.46244
339.24196
337.92036
335.06809
330.41834
358.91639
357.56001
354.15212
347.19318
358.91642
357.56005
354.15216
347.19322
339.24197
337.92038
335.06812
330.41836
326.09979
325.15452
323.25473
320.46248
318.21063
317.57064
316.32445
314.56547
314.53415
314.04623
313.10689
311.79771
)
;
    }
    heater_to_rightSolid
    {
        type            compressible::turbulentTemperatureRadCoupledMixed;
        refValue        nonuniform List<scalar> 10(310.25523 312.48241 317.05968 324.06418 332.46106 332.46105 324.06417 317.05971 312.48247 310.25531);
        refGradient     uniform 0;
        valueFraction   uniform 0.49999997;
        source          uniform 0;
        logInterval     -1;
        writePrecision  8;
        updateHeader    1;
        writeToFile     0;
        useUserTime     1;
        kappaMethod     solidThermo;
        value           nonuniform List<scalar> 10(311.02788 313.52579 318.76371 327.2452 339.83328 339.83329 327.2452 318.76375 313.52585 311.02797);
    }
    heater_to_leftSolid
    {
        type            compressible::turbulentTemperatureRadCoupledMixed;
        refValue        nonuniform List<scalar> 10(300.0173 300.0248 300.0433 300.07893 300.12887 300.12887 300.07893 300.0433 300.0248 300.0173);
        refGradient     uniform 0;
        valueFraction   uniform 2.0832464e-05;
        source          uniform 0;
        logInterval     -1;
        thicknessLayers List<scalar> 1(0.001);
        kappaLayers     List<scalar> 1(0.0005);
        writePrecision  8;
        updateHeader    1;
        writeToFile     0;
        useUserTime     1;
        kappaMethod     solidThermo;
        value           nonuniform List<scalar> 10(314.5383 318.21582 326.10722 339.25314 358.9332 358.93322 339.25316 326.10723 318.21581 314.53825);
    }
    heater_to_bottomWater
    {
        type            compressible::turbulentTemperatureRadCoupledMixed;
        refValue        nonuniform List<scalar> 
92
(
300.4198
300.64615
300.74467
300.75464
300.48202
300.76796
300.92676
300.98255
301.0799
301.52566
301.72087
301.76601
308.34267
311.14595
313.59638
314.9341
304.61898
306.63936
308.61991
310.33762
303.21217
304.64044
306.03196
307.26722
302.74504
303.8696
304.91331
305.7496
303.70294
303.70294
305.33726
305.33726
306.45748
306.45748
306.80639
306.80639
319.97071
331.93107
310.85366
325.69186
307.75242
318.57966
306.749
312.95335
307.12313
311.35086
319.9707
308.34267
311.14594
313.59637
331.93106
314.93408
310.85365
304.61897
306.63935
308.6199
325.69186
310.3376
307.75241
303.21217
304.64044
306.03195
318.57968
307.26721
306.74899
302.74503
303.8696
304.91331
312.95338
305.74959
307.12312
303.70294
305.33726
306.45748
311.3509
306.80639
303.70294
305.33726
306.45748
306.80639
301.0799
301.52566
301.72088
301.76602
300.48202
300.76796
300.92677
300.98256
300.4198
300.64615
300.74467
300.75464
)
;
        refGradient     uniform 0;
        valueFraction   nonuniform List<scalar> 
92
(
0.0075140686
0.0075140686
0.0075140686
0.0075140686
0.0075140686
0.0075140686
0.0075140686
0.0075140686
0.0075140686
0.0075140686
0.0075140686
0.0075140686
0.0075140686
0.0075140686
0.0075140686
0.0075140686
0.0075140686
0.0075140686
0.0075140686
0.0075140686
0.0075140686
0.0075140686
0.0075140686
0.0075140686
0.0075140686
0.0075140686
0.0075140686
0.0075140686
0.0075140686
0.0075140686
0.0075140686
0.0075140686
0.0075140686
0.0075140686
0.0075140686
0.0075140686
0.0075140679
0.0075140679
0.0075140679
0.0075140679
0.0075140679
0.0075140679
0.0075140679
0.0075140679
0.0075140679
0.0075140679
0.0075140679
0.0075140686
0.0075140686
0.0075140686
0.0075140679
0.0075140686
0.0075140679
0.0075140686
0.0075140686
0.0075140686
0.0075140679
0.0075140686
0.0075140679
0.0075140686
0.0075140686
0.0075140686
0.0075140679
0.0075140686
0.0075140679
0.0075140686
0.0075140686
0.0075140686
0.0075140679
0.0075140686
0.0075140679
0.0075140686
0.0075140686
0.0075140686
0.0075140679
0.0075140686
0.0075140686
0.0075140686
0.0075140686
0.0075140686
0.0075140686
0.0075140686
0.0075140686
0.0075140686
0.0075140686
0.0075140686
0.0075140686
0.0075140686
0.0075140686
0.0075140686
0.0075140686
0.0075140686
)
;
        source          uniform 0;
        logInterval     -1;
        writePrecision  8;
        updateHeader    1;
        writeToFile     0;
        useUserTime     1;
        kappaMethod     solidThermo;
        value           nonuniform List<scalar> 
92
(
314.43251
313.9495
313.01742
311.71753
318.08294
317.44944
316.21317
314.46708
325.9197
324.98423
323.09927
320.32722
480.34789
481.11593
481.14413
480.46101
448.20674
449.10922
449.08314
448.20879
419.90437
420.57883
420.36363
419.42827
395.36092
395.61807
394.95506
393.72502
338.98683
374.7465
337.6865
374.35184
334.86274
372.70988
330.24873
370.30676
480.43526
480.58872
448.25359
448.32416
419.93848
419.51327
395.39101
393.77915
374.7722
370.34091
480.43524
480.34786
481.11591
481.14412
480.58872
480.461
448.25353
448.20668
449.10918
449.08311
448.32416
448.20879
419.93842
419.9043
420.5788
420.36362
419.51329
419.42828
395.39094
395.36086
395.61804
394.95506
393.77918
393.72505
374.77216
374.74646
374.35183
372.7099
370.34096
370.30681
338.98684
337.68653
334.86276
330.24876
325.91971
324.98425
323.0993
320.32726
318.08293
317.44945
316.21321
314.46714
314.43246
313.94951
313.01747
311.71763
)
;
    }
}


// ************************************************************************* //
