/*--------------------------------*- C++ -*----------------------------------*\
| =========                 |                                                 |
| \\      /  F ield         | OpenFOAM: The Open Source CFD Toolbox           |
|  \\    /   O peration     | Version:  2412                                  |
|   \\  /    A nd           | Website:  www.openfoam.com                      |
|    \\/     M anipulation  |                                                 |
\*---------------------------------------------------------------------------*/
FoamFile
{
    version     2.0;
    format      ascii;
    arch        "LSB;label=32;scalar=64";
    class       volScalarField;
    location    "70/heater";
    object      T;
}
// * * * * * * * * * * * * * * * * * * * * * * * * * * * * * * * * * * * * * //

dimensions      [0 0 0 1 0 0 0];

internalField   nonuniform List<scalar> 
80
(
323.63866
322.98553
321.72134
319.94277
327.4982
326.6924
325.11927
322.8859
335.6568
334.54996
332.3282
329.06216
348.96233
347.49974
344.35851
339.26795
482.94554
483.70739
483.73278
483.06619
453.03335
453.96181
453.94735
453.08576
426.66588
427.37857
427.1682
426.22321
403.6409
403.92436
403.23278
401.95067
384.06077
383.64409
381.89902
379.36215
368.41714
366.97065
363.36159
356.07692
482.94553
483.70738
483.73278
483.06619
453.03333
453.96179
453.94734
453.08575
426.66585
427.37855
427.16819
426.22321
403.64087
403.92435
403.23278
401.95068
384.06075
383.64408
381.89902
379.36217
368.41715
366.97067
363.3616
356.07693
348.96234
347.49975
344.35852
339.26795
335.6568
334.54996
332.32821
329.06217
327.49819
326.6924
325.11929
322.88592
323.63861
322.98553
321.72136
319.94283
)
;

boundaryField
{
    minY
    {
        type            fixedValue;
        value           uniform 500;
    }
    minZ
    {
        type            zeroGradient;
    }
    maxZ
    {
        type            zeroGradient;
    }
    heater_to_topAir
    {
        type            compressible::turbulentTemperatureRadCoupledMixed;
        refValue        nonuniform List<scalar> 
40
(
301.39137
302.57205
303.58269
304.40862
301.35647
302.52442
303.53047
304.35392
301.7172
303.18521
304.4353
305.43571
302.35259
304.36689
306.08457
307.43402
303.26714
306.08154
308.49466
310.36842
303.26714
306.08154
308.49466
310.36842
302.35259
304.3669
306.08457
307.43402
301.7172
303.18521
304.4353
305.43571
301.35647
302.52442
303.53047
304.35393
301.39136
302.57204
303.58269
304.40862
)
;
        refGradient     uniform 0;
        valueFraction   uniform 0.00032132529;
        source          uniform 0;
        logInterval     -1;
        writePrecision  8;
        updateHeader    1;
        writeToFile     0;
        useUserTime     1;
        kappaMethod     solidThermo;
        value           nonuniform List<scalar> 
40
(
323.62067
322.96829
321.70513
319.92785
327.47895
326.67393
325.10193
322.86997
335.6351
334.52922
332.30884
329.04458
348.93682
347.47545
344.33599
339.24781
368.38636
366.94129
363.33426
356.05269
368.38637
366.94131
363.33428
356.05271
348.93683
347.47546
344.336
339.24781
335.6351
334.52922
332.30885
329.04459
327.47894
326.67393
325.10195
322.87
323.62062
322.96828
321.70515
319.92791
)
;
    }
    heater_to_rightSolid
    {
        type            compressible::turbulentTemperatureRadCoupledMixed;
        refValue        nonuniform List<scalar> 10(317.79701 320.18908 325.03491 332.30299 340.82854 340.82852 332.30297 325.03492 320.1891 317.79705);
        refGradient     uniform 0;
        valueFraction   uniform 0.49999997;
        source          uniform 0;
        logInterval     -1;
        writePrecision  8;
        updateHeader    1;
        writeToFile     0;
        useUserTime     1;
        kappaMethod     solidThermo;
        value           nonuniform List<scalar> 10(318.86492 321.5325 327.04354 335.78052 348.44796 348.44796 335.7805 327.04355 321.53253 318.86497);
    }
    heater_to_leftSolid
    {
        type            compressible::turbulentTemperatureRadCoupledMixed;
        refValue        nonuniform List<scalar> 10(300.04269 300.05486 300.08351 300.13486 300.20154 300.20154 300.13486 300.08351 300.05486 300.04269);
        refGradient     uniform 0;
        valueFraction   uniform 2.0832464e-05;
        source          uniform 0;
        logInterval     -1;
        thicknessLayers List<scalar> 1(0.001);
        kappaLayers     List<scalar> 1(0.0005);
        writePrecision  8;
        updateHeader    1;
        writeToFile     0;
        useUserTime     1;
        kappaMethod     solidThermo;
        value           nonuniform List<scalar> 10(323.62732 327.48677 335.64526 348.95078 368.40587 368.40588 348.95079 335.64526 327.48677 323.62727);
    }
    heater_to_bottomWater
    {
        type            compressible::turbulentTemperatureRadCoupledMixed;
        refValue        nonuniform List<scalar> 
92
(
300.83421
301.38125
301.70995
301.85843
300.84204
301.41138
301.80777
302.05022
301.70249
302.49802
302.96706
303.23313
309.49094
312.72295
315.73103
317.55645
304.85218
307.06848
309.34344
311.4938
303.369
304.93871
306.54701
308.0944
303.19364
304.58939
305.98297
307.2442
305.10776
305.10776
307.4577
307.4577
309.33006
309.33006
310.23897
310.23897
321.56991
339.14988
311.21304
333.10387
308.0694
325.19883
307.61811
318.58377
309.26637
317.49926
321.5699
309.49094
312.72295
315.73102
339.14988
317.55645
311.21304
304.85218
307.06847
309.34343
333.10387
311.49379
308.06939
303.369
304.9387
306.54701
325.19885
308.09439
307.61811
303.19364
304.58939
305.98297
318.58379
307.2442
309.26636
305.10776
307.45769
309.33006
317.49928
310.23897
305.10776
307.45769
309.33006
310.23897
301.70249
302.49802
302.96706
303.23313
300.84204
301.41138
301.80777
302.05022
300.83421
301.38125
301.70995
301.85843
)
;
        refGradient     uniform 0;
        valueFraction   nonuniform List<scalar> 
92
(
0.0075140686
0.0075140686
0.0075140686
0.0075140686
0.0075140686
0.0075140686
0.0075140686
0.0075140686
0.0075140686
0.0075140686
0.0075140686
0.0075140686
0.0075140686
0.0075140686
0.0075140686
0.0075140686
0.0075140686
0.0075140686
0.0075140686
0.0075140686
0.0075140686
0.0075140686
0.0075140686
0.0075140686
0.0075140686
0.0075140686
0.0075140686
0.0075140686
0.0075140686
0.0075140686
0.0075140686
0.0075140686
0.0075140686
0.0075140686
0.0075140686
0.0075140686
0.0075140679
0.0075140679
0.0075140679
0.0075140679
0.0075140679
0.0075140679
0.0075140679
0.0075140679
0.0075140679
0.0075140679
0.0075140679
0.0075140686
0.0075140686
0.0075140686
0.0075140679
0.0075140686
0.0075140679
0.0075140686
0.0075140686
0.0075140686
0.0075140679
0.0075140686
0.0075140679
0.0075140686
0.0075140686
0.0075140686
0.0075140679
0.0075140686
0.0075140679
0.0075140686
0.0075140686
0.0075140686
0.0075140679
0.0075140686
0.0075140679
0.0075140686
0.0075140686
0.0075140686
0.0075140679
0.0075140686
0.0075140686
0.0075140686
0.0075140686
0.0075140686
0.0075140686
0.0075140686
0.0075140686
0.0075140686
0.0075140686
0.0075140686
0.0075140686
0.0075140686
0.0075140686
0.0075140686
0.0075140686
0.0075140686
)
;
        source          uniform 0;
        logInterval     -1;
        writePrecision  8;
        updateHeader    1;
        writeToFile     0;
        useUserTime     1;
        kappaMethod     solidThermo;
        value           nonuniform List<scalar> 
92
(
323.45654
322.81259
321.56066
319.79702
327.28713
326.49181
324.93378
322.71944
335.39094
334.29853
332.09726
328.85816
481.64097
482.42137
482.46915
481.82125
451.91635
452.85444
452.85716
452.01815
425.73376
426.45283
426.25609
425.32981
402.8787
403.17047
402.49455
401.23155
348.62235
383.4587
347.18851
383.06279
344.08516
381.34493
339.03999
378.834
481.73173
481.9835
451.96415
452.18053
425.76908
425.45833
402.91195
401.31675
383.48995
378.88855
481.73172
481.64096
482.42136
482.46914
481.9835
481.82124
451.96412
451.91632
452.85442
452.85714
452.18052
452.01814
425.76904
425.73372
426.45281
426.25608
425.45833
425.32981
402.91191
402.87867
403.17045
402.49454
401.31677
401.23156
383.48993
383.45868
383.06278
381.34493
378.88857
378.83402
348.62236
347.18852
344.08516
339.03998
335.39095
334.29854
332.09727
328.85817
327.28712
326.49181
324.93379
322.71946
323.45649
322.81258
321.56069
319.79708
)
;
    }
}


// ************************************************************************* //
