/*--------------------------------*- C++ -*----------------------------------*\
| =========                 |                                                 |
| \\      /  F ield         | OpenFOAM: The Open Source CFD Toolbox           |
|  \\    /   O peration     | Version:  2412                                  |
|   \\  /    A nd           | Website:  www.openfoam.com                      |
|    \\/     M anipulation  |                                                 |
\*---------------------------------------------------------------------------*/
FoamFile
{
    version     2.0;
    format      ascii;
    arch        "LSB;label=32;scalar=64";
    class       volVectorField;
    location    "2";
    object      flux;
}
// * * * * * * * * * * * * * * * * * * * * * * * * * * * * * * * * * * * * * //

dimensions      [0 1 -1 1 0 0 0];

internalField   nonuniform List<vector> 
5712
(
(-0.320183 0.519262 0.295299)
(-0.391312 0.285313 0.896988)
(-0.731484 0.90419 0.224066)
(-1.14299 0.592175 0.981101)
(-1.1051 0.870826 0.122783)
(-2.15641 0.740667 1.03889)
(-0.763616 1.28303 0.209213)
(-2.29828 1.59029 1.64467)
(-0.787824 1.95341 0.341727)
(-1.84299 2.47435 2.0651)
(-0.968861 1.03509 0.350365)
(-1.59337 0.90959 1.46565)
(-0.741188 0.637242 0.374031)
(-0.980426 0.43917 1.30285)
(-0.398716 0.420645 0.368691)
(-0.404787 0.2395 1.1195)
(-0.520996 0.862729 0.173267)
(-0.590083 0.776535 0.0945479)
(-0.714046 0.780198 0.522494)
(-0.647332 0.771496 0.24738)
(-0.495837 0.990316 0.161618)
(-0.746255 0.948734 0.0743991)
(-0.739631 1.14473 0.56286)
(-0.740202 0.983812 0.226763)
(-0.209922 0.305344 0.226069)
(-0.15242 0.213629 0.166944)
(-0.28461 0.159087 0.66725)
(-0.203803 0.110007 0.48847)
(-0.476324 0.444337 0.151564)
(-0.309647 0.286454 0.119522)
(-0.880726 0.246416 0.671111)
(-0.614627 0.15968 0.50878)
(-0.733053 0.878423 0.340682)
(-0.74351 0.929416 0.124018)
(-0.744945 0.787032 0.258801)
(-0.754375 0.639853 0.0943446)
(-0.172224 0.635543 0.118315)
(-0.153475 0.497154 0.316491)
(-1.70538 0.538944 1.60938)
(-2.10877 0.514725 0.491639)
(-0.907386 0.719772 0.483605)
(-1.21084 0.707461 0.22313)
(-2.1975 1.46728 1.95248)
(-2.70437 1.6161 0.611805)
(-1.01756 1.05001 0.450586)
(-1.25225 1.11061 0.211301)
(-1.27787 0.759285 1.06662)
(-1.67052 0.597649 0.355494)
(-1.01867 0.774289 0.543935)
(-1.41059 0.543499 0.247788)
(-0.585889 0.328958 0.869137)
(-0.741577 0.284065 0.276238)
(-0.120098 0.246251 0.205034)
(-0.0380596 0.367752 0.111078)
(-0.156025 0.122542 0.357053)
(-0.0540961 0.167119 0.144678)
(-0.26876 0.326392 0.183025)
(-0.110573 0.490377 0.115299)
(-0.465442 0.205258 0.374728)
(-0.170905 0.281573 0.141717)
(-0.305995 0.332676 0.244533)
(-0.101613 0.587187 0.155262)
(-0.308433 0.253938 0.235729)
(-0.087379 0.417867 0.0992499)
(-0.606121 0.0792627 0.417418)
(-0.176598 0.28044 0.150986)
(-0.794327 0.0137621 0.164215)
(-0.249143 0.200615 0.0607567)
(-1.02222 0.736789 0.512128)
(-0.584615 0.887163 0.387041)
(-0.864366 0.774495 0.3098)
(-0.596991 0.878963 0.278787)
(-1.04612 0.930147 0.568665)
(-0.673909 0.946522 0.498929)
(-0.830025 0.949529 0.30818)
(-0.670855 0.924673 0.328933)
(-0.670648 0.691 0.288543)
(-0.483586 0.835527 0.24904)
(-0.736108 0.68988 0.378685)
(-0.465689 0.823438 0.325515)
(-0.839847 0.776579 0.229999)
(-0.619078 0.872675 0.198452)
(-0.868099 0.762302 0.133041)
(-0.6354 0.867017 0.114619)
(-0.813713 0.95741 0.228078)
(-0.686294 0.911923 0.227626)
(-0.84564 0.958006 0.129867)
(-0.700212 0.904684 0.130146)
(-0.692334 0.649112 0.221045)
(-0.512586 0.837008 0.174378)
(-0.746465 0.592118 0.128679)
(-0.531877 0.833269 0.0913278)
(-0.739079 0.714802 0.248497)
(-0.3036 0.766523 0.140047)
(-0.421809 0.900206 0.250575)
(-0.481613 1.2626 0.275382)
(-0.795073 0.748593 0.332273)
(-0.350255 0.885311 0.252742)
(-0.418311 0.895454 0.359996)
(-0.503919 1.38073 0.472351)
(-0.741294 0.676316 0.180718)
(-0.283256 0.678823 0.0775521)
(-0.441929 0.895195 0.160495)
(-0.474789 1.19821 0.165069)
(-0.766521 0.650015 0.101991)
(-0.285103 0.623278 0.0357783)
(-0.464812 0.893767 0.0735189)
(-0.479083 1.16666 0.0633765)
(-0.116134 0.182764 0.236986)
(-0.130656 0.231322 0.477303)
(-0.0408694 0.498434 0.172225)
(-0.0812082 0.814534 0.539656)
(-0.334798 0.219067 0.256337)
(-0.393081 0.245756 0.482986)
(-0.137765 0.61597 0.205176)
(-0.262534 0.913088 0.573844)
(-0.544244 0.260625 0.336494)
(-0.646275 0.271644 0.478493)
(-0.246011 0.752446 0.2839)
(-0.441335 1.02794 0.582963)
(-0.705925 1.00678 0.368148)
(-0.371758 1.11549 0.437154)
(-0.717073 0.849195 0.288176)
(-0.862305 0.777855 0.290286)
(-0.434566 1.06159 0.352091)
(-0.271609 1.13644 0.288422)
(-0.434799 0.983718 0.321975)
(-0.500716 0.849419 0.446297)
(-0.876031 0.718158 0.522766)
(-0.559928 1.20265 0.764407)
(-0.405241 1.04147 0.390517)
(-0.532106 0.960218 0.319479)
(-0.590554 0.806257 0.307346)
(-0.572721 0.829502 0.389473)
(-0.714671 1.56075 0.616631)
(-0.128418 0.0655736 0.595629)
(-0.131615 0.0864156 0.577678)
(-0.079599 0.176853 0.696214)
(-0.0849205 0.365157 0.702885)
(-0.380685 0.0928943 0.580673)
(-0.362745 0.129175 0.582328)
(-0.24559 0.234268 0.69769)
(-0.249251 0.425539 0.696069)
(-0.570622 0.139782 0.534313)
(-0.521817 0.135015 0.555521)
(-0.363342 0.313643 0.667989)
(-0.36481 0.505422 0.676316)
(-0.389686 1.1085 0.363083)
(-0.435398 1.10642 0.385972)
(-0.615868 0.919984 0.359215)
(-0.653391 0.881047 0.38032)
(-0.688847 0.775939 0.437461)
(-0.648049 0.690503 0.440396)
(-0.819224 0.566419 0.51372)
(-0.751601 0.501787 0.502475)
(-0.567188 0.439176 0.650439)
(-0.565332 0.653796 0.660301)
(-0.525304 0.980313 0.330951)
(-0.570046 0.886219 0.364533)
(-0.677892 0.905292 0.377023)
(-0.619364 0.850184 0.405746)
(-0.638933 0.764155 0.423385)
(-0.534489 0.706779 0.461047)
(-0.572714 0.658464 0.489868)
(-0.458436 0.582273 0.541307)
(-0.637722 0.522214 0.645812)
(-0.507245 0.715014 0.706139)
(-0.572107 0.93027 0.387671)
(-0.306616 0.990511 0.264744)
(-0.44921 0.9627 0.313539)
(-0.43669 1.05685 0.315191)
(-0.630688 0.938154 0.431937)
(-0.733279 0.86674 0.489767)
(-0.644 0.951599 0.351131)
(-0.838731 0.912222 0.462744)
(-0.378996 0.841146 0.289278)
(-0.373221 0.850483 0.293207)
(-0.518594 0.829495 0.368373)
(-0.234534 0.8244 0.264812)
(-0.43397 0.978921 0.133211)
(-0.683969 1.08234 0.227429)
(-0.448732 0.971202 0.0543715)
(-0.730217 1.07131 0.0846747)
(-0.653479 0.96357 0.217433)
(-1.02832 0.949987 0.342738)
(-0.675319 0.951981 0.084966)
(-1.05221 0.942381 0.128176)
(-0.367517 0.833074 0.112763)
(-0.601056 0.84377 0.200486)
(-0.380194 0.843207 0.0422115)
(-0.651443 0.849715 0.073157)
(-0.452932 0.722252 0.276293)
(-0.336815 0.713757 0.235654)
(-0.580916 0.496253 0.283128)
(-0.261473 0.592357 0.17788)
(-0.490572 0.72872 0.389441)
(-0.182629 0.703106 0.278533)
(-0.549711 0.511166 0.444006)
(-0.132473 0.613639 0.297801)
(-0.470328 0.702075 0.129852)
(-0.482868 0.703274 0.150209)
(-0.608235 0.489948 0.161325)
(-0.313318 0.592477 0.0922306)
(-0.424194 0.708092 0.0994249)
(-0.556832 0.695246 0.107945)
(-0.558627 0.485044 0.110587)
(-0.398689 0.577988 0.0839275)
(-0.123084 0.0743688 0.502959)
(-0.11446 0.0605689 0.331648)
(-0.0986049 0.0446615 0.10876)
(-0.0795446 0.0412283 0.544741)
(-0.0777777 0.0353979 0.343354)
(-0.0679621 0.0349154 0.118813)
(-0.333004 0.111513 0.494781)
(-0.286795 0.0788733 0.324126)
(-0.249968 0.061535 0.110559)
(-0.21767 0.0961157 0.54334)
(-0.181777 0.0858265 0.342194)
(-0.153182 0.0742488 0.116143)
(-0.435501 0.118305 0.47183)
(-0.36843 0.114135 0.304492)
(-0.336286 0.121142 0.102166)
(-0.313506 0.17369 0.53311)
(-0.25177 0.150846 0.336587)
(-0.227231 0.137915 0.115851)
(-0.390553 1.05433 0.277501)
(-0.315984 0.937057 0.159373)
(-0.299444 0.855764 0.0420731)
(-0.609116 0.878944 0.332496)
(-0.45216 0.82295 0.227234)
(-0.366576 0.776855 0.0739856)
(-0.549751 0.600936 0.38421)
(-0.401589 0.574289 0.270506)
(-0.3106 0.560109 0.091346)
(-0.612424 0.427106 0.426585)
(-0.478368 0.404003 0.278464)
(-0.401722 0.393732 0.0914644)
(-0.476197 0.282548 0.515205)
(-0.322838 0.208022 0.324984)
(-0.239734 0.169441 0.114952)
(-0.730461 0.833592 0.304878)
(-0.592521 0.767105 0.168068)
(-0.524931 0.719532 0.0553461)
(-0.536701 0.832849 0.300288)
(-0.423464 0.774436 0.195036)
(-0.349717 0.740291 0.0680461)
(-0.474757 0.620847 0.339775)
(-0.355243 0.550962 0.224599)
(-0.278116 0.512802 0.0771774)
(-0.425142 0.447721 0.403897)
(-0.316113 0.393955 0.259849)
(-0.249456 0.369564 0.0890269)
(-0.460382 0.297545 0.489066)
(-0.274787 0.219052 0.286409)
(-0.170053 0.178584 0.0994164)
(-0.459942 1.14361 -0.0199372)
(-0.749996 1.18463 0.039658)
(-0.390187 1.21759 0.0178464)
(-0.559216 1.11765 0.10597)
(-0.374236 1.1174 0.0721904)
(-0.770857 1.11614 0.0727128)
(-0.313413 1.33365 0.185925)
(-0.632296 1.1479 0.162513)
(-0.00722954 0.729394 0.024188)
(-0.0690337 0.801709 0.0388331)
(0.0101034 0.727217 0.0256288)
(-0.0405346 0.71638 0.0407346)
(-0.142353 0.967956 0.0136596)
(-0.268804 0.850524 0.0376524)
(-0.0893363 0.947203 0.0251264)
(-0.162607 0.747843 0.0551834)
(-0.073663 1.0448 0.0755566)
(-0.156916 1.08958 0.0454068)
(-0.44054 0.893687 0.152743)
(-0.656474 1.00241 0.108319)
(-0.349426 1.17044 0.0697124)
(-0.260314 1.02903 0.114591)
(-0.468297 1.1627 0.117522)
(-0.409443 1.20716 0.0322511)
(-0.629221 1.23202 0.237755)
(-0.673737 1.32056 0.0747458)
(0.0227725 1.00061 -0.168199)
(0.221995 1.0262 -0.026164)
(-0.336222 0.868796 0.0255924)
(-0.235813 0.856063 0.0267363)
(-0.26328 0.99312 -0.000489633)
(-0.151679 0.958976 0.00540857)
(-0.0634061 0.669757 0.41128)
(-0.0405684 0.383212 0.178491)
(-0.0510647 0.626728 0.109012)
(-0.031307 0.423676 0.0639979)
(-0.155694 0.650092 0.405067)
(-0.0497792 0.37534 0.180919)
(-0.0773102 0.603588 0.118913)
(-0.00923481 0.410461 0.0756925)
(-0.399058 0.59405 0.391125)
(-0.119387 0.347303 0.197668)
(-0.300321 0.560372 0.159712)
(-0.0928515 0.389979 0.112196)
(-0.341887 0.55055 0.122836)
(-0.102982 0.405013 0.0794621)
(-0.387436 0.528722 0.0679633)
(-0.127852 0.404446 0.0611376)
(-0.492093 0.910907 0.52625)
(-0.487307 0.718814 0.459701)
(-0.383392 0.892368 0.230237)
(-0.483589 0.723346 0.294316)
(-0.747347 1.01842 0.593573)
(-0.673804 0.911322 0.554136)
(-0.612308 1.02109 0.288853)
(-0.641178 0.89599 0.34625)
(-0.28416 0.823078 0.208059)
(-0.3733 0.56956 0.251015)
(-0.33135 0.855371 0.444329)
(-0.344385 0.550857 0.365775)
(-0.359409 0.909144 0.14615)
(-0.481211 0.725528 0.191739)
(-0.378279 0.933296 0.0836357)
(-0.486127 0.723929 0.111083)
(-0.584961 1.04507 0.192802)
(-0.62929 0.89011 0.225323)
(-0.60655 1.06261 0.110744)
(-0.634239 0.886049 0.128585)
(-0.251535 0.800679 0.117764)
(-0.379052 0.576515 0.165331)
(-0.243889 0.794739 0.0655037)
(-0.384199 0.576421 0.100291)
(-0.0316162 0.490108 0.18456)
(-0.0577504 0.339513 0.129922)
(-0.300047 0.432741 0.209015)
(-0.167739 0.277491 0.139056)
(-0.0305054 0.452719 0.318016)
(-0.0484154 0.303854 0.187317)
(-0.262482 0.405073 0.28123)
(-0.141697 0.25424 0.182515)
(-0.0316403 0.501225 0.109301)
(-0.0521217 0.35989 0.0887933)
(-0.317215 0.444898 0.144946)
(-0.184935 0.290637 0.0954521)
(-0.044156 0.504171 0.060832)
(-0.0570861 0.373342 0.0557567)
(-0.320788 0.448037 0.0916394)
(-0.195288 0.298472 0.0590459)
(0.00733952 0.108563 0.478073)
(0.0130948 0.058971 0.31489)
(-0.0191469 0.203521 0.231754)
(-0.0130625 0.116086 0.23873)
(0.0347185 0.112148 0.473767)
(0.055817 0.0678431 0.313861)
(-0.0309659 0.206233 0.228865)
(-0.0203499 0.127705 0.233949)
(-0.0461967 0.121865 0.478514)
(-0.00421612 0.0902464 0.301544)
(-0.102359 0.204134 0.232662)
(-0.0892229 0.146425 0.217344)
(0.307098 0.543804 0.530361)
(0.155891 0.909839 0.515775)
(0.180753 0.352982 0.491836)
(0.120451 0.319638 0.375901)
(-0.00128047 0.229313 0.213971)
(0.283573 0.930978 0.313813)
(0.414879 0.598961 0.37497)
(0.196953 0.336164 0.392989)
(0.199284 0.298723 0.365928)
(-0.000427249 0.17895 0.252847)
(-0.376687 0.897955 0.446415)
(-0.275093 0.649889 0.397023)
(-0.225501 0.47615 0.326696)
(-0.232141 0.348596 0.262009)
(-0.13612 0.21711 0.168656)
(0.0214016 0.0419433 0.26597)
(0.0173077 0.0403412 0.260999)
(-0.0074441 0.0806491 0.264968)
(-0.011618 0.0750958 0.318127)
(0.0601064 0.0520301 0.265099)
(0.0663804 0.0407184 0.253095)
(-0.0207681 0.0971635 0.25902)
(-0.0285406 0.0883086 0.3115)
(0.0515031 0.0731949 0.253394)
(0.075161 0.0639899 0.240014)
(-0.0571182 0.11725 0.246375)
(-0.0689478 0.105281 0.298448)
(0.123878 0.944298 0.35237)
(0.0637739 0.900679 0.333282)
(0.321565 0.601306 0.324823)
(0.227141 0.547434 0.278868)
(0.171975 0.377222 0.240178)
(0.123131 0.360399 0.239718)
(0.156166 0.288836 0.229291)
(0.1295 0.274805 0.237844)
(-0.0118362 0.16499 0.215232)
(-0.0418315 0.149168 0.281711)
(-0.198734 0.823343 0.259052)
(-0.13794 0.705599 0.293531)
(0.0191478 0.599666 0.214439)
(0.0875731 0.514257 0.243549)
(0.0269468 0.447649 0.188459)
(0.0775989 0.405392 0.21499)
(-0.0155635 0.317154 0.18233)
(0.0276377 0.302333 0.217991)
(-0.0333151 0.201055 0.163005)
(-0.0484947 0.222323 0.258626)
(-0.162724 0.567178 0.189928)
(-0.180166 0.447026 0.152299)
(-0.387885 0.572514 0.130115)
(-0.246008 0.421262 0.0701873)
(-0.346315 0.7252 0.293954)
(-0.336952 0.535837 0.223311)
(-0.520339 0.73588 0.237501)
(-0.406425 0.526663 0.150632)
(-0.296469 0.465707 0.0977606)
(-0.181981 0.373005 0.056145)
(-0.100165 0.460986 0.144704)
(-0.128219 0.398183 0.130274)
(-0.459183 0.591196 0.168882)
(-0.194005 0.401476 0.0738017)
(-0.49251 0.595987 0.0784211)
(-0.178962 0.40579 0.0432429)
(-0.597653 0.771593 0.2213)
(-0.391658 0.540449 0.126994)
(-0.636188 0.769413 0.0906978)
(-0.376421 0.544388 0.0625416)
(-0.357343 0.468674 0.13593)
(-0.132505 0.350116 0.0578856)
(-0.388367 0.476174 0.0691168)
(-0.114471 0.364409 0.0346146)
(-0.223049 0.33287 0.0809697)
(-0.181627 0.302348 0.0963512)
(-0.169024 0.22169 0.099211)
(-0.2978 0.292481 0.167257)
(-0.109601 0.337585 0.122342)
(-0.146312 0.316998 0.148725)
(-0.110938 0.22559 0.119076)
(-0.250128 0.288573 0.216832)
(-0.245771 0.331453 0.0983598)
(-0.169545 0.293695 0.0708258)
(-0.205252 0.215617 0.0731715)
(-0.341904 0.305205 0.120286)
(-0.297163 0.348502 0.044075)
(-0.16024 0.296291 0.0172165)
(-0.242866 0.224248 0.0152027)
(-0.338483 0.30181 0.0297775)
(0.0226219 0.0920053 0.205456)
(0.0293024 0.0733756 0.0943301)
(0.0341186 0.0573907 0.027207)
(-0.00739441 0.341205 0.219863)
(0.00559829 0.168091 0.0587605)
(0.00766539 0.128878 0.0155708)
(0.0814606 0.0850562 0.200646)
(0.0974771 0.0791108 0.0986111)
(0.104662 0.0671213 0.0308408)
(-0.0105062 0.358103 0.218652)
(0.0232687 0.196051 0.0606069)
(0.0281517 0.157948 0.0168536)
(0.0987679 0.105223 0.183972)
(0.139081 0.110973 0.091278)
(0.156321 0.110911 0.0236853)
(-0.0365543 0.377763 0.208528)
(0.0407751 0.241955 0.056326)
(0.0568021 0.211574 0.0128116)
(0.0338951 0.804973 0.225871)
(0.0559396 0.724448 0.124064)
(0.0502806 0.668612 0.0329531)
(0.17422 0.510968 0.186762)
(0.186549 0.476094 0.100808)
(0.172848 0.453664 0.0282455)
(0.136325 0.367411 0.179598)
(0.159264 0.349554 0.0908128)
(0.153928 0.340063 0.0260681)
(0.145204 0.319292 0.173754)
(0.181162 0.29922 0.0828673)
(0.187029 0.290367 0.0194686)
(-0.0204654 0.435431 0.198322)
(0.0593021 0.31625 0.0499922)
(0.0564994 0.282339 0.00861776)
(-0.162193 0.597079 0.250067)
(-0.0799614 0.531976 0.132044)
(-0.0461642 0.489227 0.0411301)
(0.0524428 0.450475 0.212644)
(0.100006 0.40732 0.116151)
(0.115292 0.382431 0.0383145)
(0.062706 0.392843 0.189096)
(0.113808 0.350586 0.0996328)
(0.126705 0.321392 0.0327809)
(0.0381146 0.372216 0.178616)
(0.100292 0.329186 0.0741545)
(0.113269 0.306278 0.0203045)
(-0.069392 0.562151 0.207309)
(0.0401334 0.393898 0.0521036)
(0.047578 0.357941 0.0166923)
(-0.00295933 0.207961 0.0683325)
(0.000262216 0.1246 0.0260952)
(0.00140574 0.0886883 0.0127453)
(0.00288914 0.078189 0.00103902)
(0.00420191 0.232483 0.0277326)
(0.00402755 0.134023 0.0111606)
(0.00471517 0.0921486 0.00588162)
(0.00461375 0.0802494 0.0013168)
(-0.00800931 0.20201 0.0705714)
(0.000258098 0.122781 0.027927)
(0.00383894 0.0884612 0.0151081)
(0.00767575 0.0791001 0.00334833)
(0.00961155 0.230871 0.0335584)
(0.00923633 0.134404 0.0149479)
(0.0101975 0.0931956 0.00970632)
(0.010414 0.0810075 0.00451948)
(-0.0160163 0.191384 0.0808062)
(-0.00203189 0.120247 0.0333233)
(0.00397227 0.0895106 0.0196655)
(0.0118238 0.0783024 0.00643312)
(0.00168667 0.224549 0.0576339)
(0.00761826 0.135673 0.0293603)
(0.00873719 0.0959264 0.0164498)
(0.0116492 0.0801454 0.00751877)
(0.00186914 0.235345 0.0425422)
(0.00497091 0.141065 0.0261366)
(0.00334836 0.0963366 0.0121021)
(0.00373337 0.0842203 0.00380915)
(-0.00628819 0.241854 0.0442169)
(-0.000447807 0.146857 0.0296073)
(0.00172847 0.100014 0.0167151)
(0.00411731 0.0871573 0.00906025)
(-0.0408761 0.203536 0.0673442)
(-0.0123175 0.127294 0.0318037)
(-0.00517358 0.0929334 0.016536)
(0.0063537 0.0795512 0.00204989)
(-0.0609841 0.166159 0.063937)
(-0.0194797 0.112564 0.0292916)
(-0.0125758 0.0870568 0.0174348)
(0.00886036 0.0746934 -0.000824825)
(-0.0340593 0.177161 0.0846629)
(-0.00927135 0.115613 0.0355389)
(-0.00218853 0.0888727 0.0213008)
(0.0112917 0.0734154 0.00514636)
(-0.049593 0.149698 0.0757337)
(-0.0155518 0.1048 0.0313341)
(-0.0108919 0.0834259 0.0198065)
(0.00901293 0.0711687 -0.00164969)
(-0.0377885 0.219223 0.0511261)
(-0.0118779 0.135888 0.0276442)
(-0.00491252 0.096153 0.0141625)
(0.00532356 0.0832493 0.00204417)
(-0.0673086 0.176462 0.0497448)
(-0.0216056 0.118695 0.0257466)
(-0.0133922 0.089755 0.0156925)
(0.0110628 0.0769214 0.00271797)
(-0.0402039 0.228231 0.0380347)
(-0.0139016 0.142075 0.0239248)
(-0.00473773 0.0992506 0.014717)
(0.00731153 0.0851073 0.00833156)
(-0.0706875 0.182436 0.0347292)
(-0.0228808 0.123297 0.0214057)
(-0.0140562 0.0923064 0.0144588)
(0.0121555 0.0779322 0.00807689)
(-0.00290474 0.158523 0.0871713)
(-0.000176142 0.108784 0.0318187)
(0.000483072 0.0833726 0.0158273)
(0.00255154 0.0739002 -0.00188744)
(-0.00247749 0.106689 0.0906406)
(-7.19432e-05 0.0900655 0.0309611)
(-7.5035e-05 0.0764654 0.0178526)
(0.0026909 0.0681278 -0.00783488)
(-0.00791534 0.153807 0.0868507)
(-0.000690408 0.107184 0.0322573)
(0.00140405 0.0833157 0.0171431)
(0.00680387 0.0739129 -0.000756319)
(-0.00419475 0.106022 0.0870059)
(0.000715636 0.0898525 0.0298848)
(0.000380695 0.0764034 0.0177985)
(0.00735621 0.068475 -0.00726927)
(-0.027794 0.146573 0.0873576)
(-0.00714877 0.104786 0.0331351)
(-0.00187619 0.0835513 0.0198149)
(0.010315 0.0735661 0.00114386)
(-0.0214262 0.108788 0.07797)
(-0.00449539 0.0910952 0.0270548)
(-0.00190362 0.0766596 0.0176474)
(0.0117435 0.0696962 -0.00504109)
(-0.0134409 0.139018 0.0812106)
(-0.00128102 0.101073 0.0319262)
(0.00155519 0.0821062 0.0216655)
(0.0117747 0.0732423 0.00602247)
(-0.0090094 0.109783 0.0860059)
(-0.000233884 0.0914316 0.0306241)
(-0.000323238 0.0780605 0.0226096)
(0.0115175 0.0698971 -0.0046675)
(-0.0418296 0.128245 0.0630574)
(-0.012029 0.0971843 0.0247797)
(-0.00815614 0.0788927 0.0170793)
(0.012927 0.0685096 0.00219922)
(0.0014204 0.050588 0.0745805)
(0.0011821 0.0724424 0.0227047)
(0.00078975 0.0615062 0.0134199)
(0.002184 0.0192162 -0.00751252)
(0.00503096 -0.0143899 0.0292336)
(0.00223431 0.0627917 0.00806332)
(0.00129743 0.0541944 0.00411394)
(0.00136406 0.0183406 -0.00168746)
(0.000962064 0.0571194 0.0737275)
(0.00229375 0.0749088 0.0230597)
(0.00139535 0.062608 0.0137833)
(0.00570938 0.0202724 -0.00666889)
(0.0122976 -0.00457709 0.0298361)
(0.0057791 0.0656652 0.00850572)
(0.00319254 0.0550824 0.00453468)
(0.00359159 0.0186607 -0.00119812)
(-0.00325568 0.0676472 0.0694069)
(0.00167069 0.0786336 0.0225137)
(0.00133342 0.0636132 0.0143001)
(0.00892514 0.0201674 -0.00508728)
(0.0166466 0.0106525 0.0288278)
(0.00831666 0.0702989 0.00861447)
(0.00477748 0.0561405 0.00504065)
(0.00548968 0.0187547 -0.000499826)
(-0.00422923 0.0824187 0.0585593)
(0.0021843 0.0832937 0.0193251)
(0.00168127 0.0652374 0.0137238)
(0.0118103 0.0214726 -0.00331194)
(0.0173268 0.0284667 0.0254482)
(0.00977646 0.0760326 0.00764148)
(0.00538428 0.0579406 0.00539379)
(0.00644744 0.0194452 0.000399613)
(-0.0126705 0.103255 0.0514144)
(0.000421178 0.0895961 0.0180664)
(-0.00134365 0.0681376 0.0132475)
(0.0113027 0.0240046 -0.000910429)
(0.00955065 0.0467241 0.0230187)
(0.0087386 0.0815222 0.00775443)
(0.00398479 0.0597132 0.00599182)
(0.00589348 0.0200105 0.00165242)
(-0.0426387 0.117517 0.0402248)
(-0.00531581 0.0971028 0.01737)
(-0.0058647 0.06995 0.0105421)
(0.0103896 0.0225304 0.000860903)
(-0.0125581 0.043906 0.0211697)
(0.00278437 0.0878448 0.0106853)
(0.000868985 0.0634827 0.00651588)
(0.00412816 0.0208392 0.00336485)
(-0.0277465 0.115399 0.0428656)
(-0.00153432 0.0937747 0.0158584)
(-0.00405111 0.0684114 0.0109651)
(0.0106472 0.0226238 -2.71251e-05)
(-0.00392698 0.0461748 0.0209924)
(0.00583898 0.085416 0.00864776)
(0.00230998 0.0614436 0.00611335)
(0.00504538 0.0203063 0.00262645)
(-0.055344 0.116853 0.0357126)
(-0.0104973 0.0995627 0.0185189)
(-0.00821601 0.0713276 0.0110846)
(0.0111547 0.0212414 0.00272845)
(-0.0183383 0.0397259 0.0213803)
(-0.000430996 0.0900601 0.0125475)
(-0.000570061 0.0650163 0.00743835)
(0.00363478 0.0208668 0.0045085)
(-0.0643711 0.116308 0.0278591)
(-0.0160363 0.102674 0.0177652)
(-0.0108845 0.0740574 0.0116874)
(0.0109637 0.0218613 0.00683876)
(-0.0237336 0.0457241 0.0197717)
(-0.0044127 0.0932351 0.013448)
(-0.00235386 0.0671629 0.00879223)
(0.00301487 0.0214219 0.00638362)
(0.00114169 0.071015 0.000650495)
(0.000537976 0.0530405 0.000420252)
(0.000278237 0.0362168 0.000256436)
(0.000159482 0.0209575 0.00015955)
(0.000112469 0.00684792 0.000116343)
(0.00157845 0.0712616 0.000352575)
(0.000818121 0.0531186 0.00021522)
(0.000442528 0.0362645 0.000130101)
(0.000259691 0.0209828 8.13873e-05)
(0.000184704 0.00685568 5.985e-05)
(0.00243443 0.0722875 0.00137955)
(0.00114365 0.0534835 0.000854117)
(0.00058911 0.0364179 0.000506)
(0.000338668 0.0210477 0.000311093)
(0.000240845 0.00687373 0.000225517)
(0.0041558 0.07235 0.00138426)
(0.00222722 0.0536363 0.000828301)
(0.00122478 0.0365216 0.00047918)
(0.000727804 0.0211022 0.000291706)
(0.00052139 0.00689047 0.000210787)
(0.00347785 0.0730413 0.00312001)
(0.00165143 0.0539588 0.00192644)
(0.000864646 0.0366414 0.00112978)
(0.000503375 0.0211482 0.000694504)
(0.000360597 0.00690251 0.000504318)
(0.00598447 0.0726887 0.00603066)
(0.00317059 0.0543648 0.0035408)
(0.0017593 0.0369102 0.00205326)
(0.00105476 0.0212878 0.00125488)
(0.000759355 0.00694541 0.000908156)
(0.00201809 0.0752016 0.00616277)
(0.00103962 0.0553697 0.00372136)
(0.000578643 0.0374639 0.00218853)
(0.000348796 0.0215632 0.00134668)
(0.000251702 0.0070286 0.000978708)
(0.00112255 0.0765475 0.00662926)
(0.000562118 0.05631 0.00390047)
(0.000306476 0.0380191 0.00227182)
(0.000183649 0.0218448 0.00139347)
(0.000132029 0.00711408 0.00101295)
(0.00308339 0.0750569 0.004076)
(0.00137717 0.0549605 0.00256314)
(0.000724959 0.0371537 0.00152496)
(0.000426411 0.0213945 0.00094236)
(0.000304601 0.00697603 0.000682757)
(0.000694612 0.0769443 0.00320172)
(0.000203631 0.055238 0.00201495)
(8.52312e-05 0.0372032 0.00120179)
(4.45224e-05 0.0214047 0.000745589)
(3.02861e-05 0.00697769 0.000541321)
(0.0045872 0.0736557 0.00424955)
(0.00227573 0.0544743 0.00256803)
(0.00124067 0.0368779 0.00150097)
(0.000740075 0.0212553 0.000924811)
(0.000532264 0.00693339 0.000671145)
(0.00126331 0.0763664 0.00326046)
(0.000506799 0.0549347 0.00181533)
(0.000255813 0.0370351 0.00104497)
(0.000147269 0.0213203 0.000642781)
(0.00010373 0.00695175 0.000464725)
(0.00105737 0.0760744 0.00452425)
(0.000292573 0.0555277 0.00298726)
(0.000114636 0.0374872 0.0017997)
(5.84077e-05 0.0215646 0.00111719)
(3.95798e-05 0.00702802 0.000813201)
(0.000718538 0.0778543 0.00434825)
(0.000227799 0.055792 0.00275888)
(0.000102077 0.0375262 0.00164693)
(5.64043e-05 0.0215693 0.00102076)
(3.95158e-05 0.0070281 0.000742407)
(0.000995084 0.0769978 0.00591199)
(0.000263812 0.0565107 0.00356147)
(9.94522e-05 0.0380885 0.00208464)
(5.01063e-05 0.0218717 0.00128056)
(3.29402e-05 0.00712162 0.000930676)
(0.000501403 0.0789265 0.00566976)
(7.65817e-05 0.056744 0.00343272)
(1.22173e-05 0.0381108 0.00201301)
(1.18307e-06 0.0218695 0.00123715)
(-1.18214e-06 0.00712001 0.000897973)
(0.000924634 0.0707685 0.000359042)
(0.000405521 0.0529731 0.000337616)
(0.000200684 0.0361672 0.000213592)
(0.000111631 0.0209303 0.000133809)
(7.76075e-05 0.00683946 9.78451e-05)
(0.000872388 0.0716623 5.33456e-05)
(0.000383727 0.0529887 0.000127195)
(0.000190179 0.0361406 8.40736e-05)
(0.000105736 0.020914 5.36914e-05)
(7.34794e-05 0.00683437 3.99267e-05)
(0.00213097 0.0716068 0.000788445)
(0.00092061 0.0533287 0.000574797)
(0.000456523 0.0363207 0.000349912)
(0.000255118 0.0209965 0.000217317)
(0.000178595 0.006858 0.000158948)
(0.00202894 0.0724359 0.000142249)
(0.000871571 0.0533099 0.00018112)
(0.000433286 0.0362762 0.000115601)
(0.000241943 0.0209718 7.30253e-05)
(0.000168514 0.00685051 5.44002e-05)
(0.00277503 0.0728654 0.00121694)
(0.00112603 0.0538048 0.000872933)
(0.000553588 0.0365206 0.000525911)
(0.000308428 0.021083 0.000327418)
(0.000216105 0.0068822 0.000240754)
(0.00245504 0.0740292 0.000685356)
(0.00107218 0.0537712 0.000455006)
(0.000544601 0.0364626 0.000262767)
(0.000307022 0.0210515 0.000159339)
(0.000216279 0.00687273 0.000116959)
(0.00332181 0.0747287 0.00356967)
(0.00161185 0.0543324 0.00212769)
(0.000869673 0.0367432 0.00122869)
(0.000514006 0.0211816 0.000757909)
(0.000369548 0.00691015 0.000553743)
(0.00164972 0.0756709 0.00178459)
(0.000785763 0.0542142 0.00105823)
(0.000414179 0.0366627 0.000604105)
(0.000237935 0.0211412 0.000370683)
(0.000170311 0.00689776 0.000271423)
(0.00192099 0.0758545 0.00446792)
(0.00097294 0.0546719 0.00233511)
(0.000535736 0.0369015 0.00130878)
(0.00032141 0.0212551 0.000796185)
(0.000231686 0.00693175 0.000575674)
(-0.020368 0.353973 0.101861)
(-0.0247365 0.548461 0.176823)
(-0.0561569 0.372507 0.0961542)
(-0.0703469 0.562897 0.171624)
(-0.0859678 0.403275 0.0897076)
(-0.112639 0.586461 0.159778)
(-0.104265 0.440025 0.0875877)
(-0.1491 0.628658 0.153709)
(-0.10338 0.48011 0.0954025)
(-0.147756 0.701403 0.175173)
(-0.0934822 0.440303 0.0561562)
(-0.124496 0.543188 0.0814227)
(-0.0860913 0.453405 0.0776213)
(-0.104358 0.584066 0.122048)
(-0.107251 0.437306 0.037315)
(-0.14586 0.53559 0.0488792)
(-0.11172 0.431833 0.0147328)
(-0.152656 0.53361 0.0196789)
(-0.0205383 0.284491 0.301131)
(-0.00450462 0.0509786 0.0725698)
(-0.000981419 0.0112259 0.0166566)
(-0.000208424 0.00252555 0.003693)
(-5.06545e-05 0.000445512 0.000925839)
(-0.0086097 0.338639 0.0803)
(-0.00312871 0.0936007 0.0213044)
(-0.000340833 0.0228124 0.00570775)
(-9.74443e-05 0.00517924 0.00127944)
(-3.93203e-05 0.000905661 0.000285555)
(-0.0663347 0.290852 0.298621)
(-0.0146546 0.0502767 0.070965)
(-0.00321148 0.0108678 0.0161684)
(-0.000687308 0.00242275 0.00355865)
(-0.000168268 0.000424966 0.000888052)
(-0.0222975 0.345226 0.0829875)
(-0.00474562 0.0940442 0.0241621)
(-0.000961454 0.0226268 0.00594285)
(-0.000187287 0.0050708 0.00137873)
(-3.99773e-05 0.000883628 0.000345621)
(-0.116742 0.302414 0.287717)
(-0.0259401 0.0503352 0.0672004)
(-0.00571809 0.0106102 0.015145)
(-0.00123495 0.00233428 0.00330771)
(-0.000305027 0.000406715 0.000820788)
(-0.0390896 0.358021 0.0805696)
(-0.00928899 0.0954274 0.0233696)
(-0.00205209 0.0225461 0.00570299)
(-0.000447562 0.00499327 0.00130949)
(-0.000108208 0.00086396 0.00032514)
(-0.167151 0.316263 0.269406)
(-0.0373501 0.0501643 0.0616824)
(-0.00831451 0.0103092 0.0137737)
(-0.00181652 0.00224605 0.00299667)
(-0.000454304 0.000390198 0.000742988)
(-0.0548817 0.374473 0.0774765)
(-0.0142568 0.0971546 0.0219591)
(-0.00337248 0.0226007 0.00525104)
(-0.000774335 0.00496904 0.00118629)
(-0.000196585 0.000857241 0.000290409)
(-0.232527 0.327405 0.235705)
(-0.053452 0.0498975 0.0531381)
(-0.0121551 0.0101875 0.0118523)
(-0.00270468 0.00223087 0.0025883)
(-0.00068828 0.000389981 0.000646)
(-0.0731608 0.389212 0.0720262)
(-0.0215353 0.0985426 0.0194842)
(-0.00540501 0.0228905 0.00455374)
(-0.00128205 0.00505965 0.00101588)
(-0.000334297 0.000877835 0.000246418)
(-0.312007 0.316447 0.131889)
(-0.0783147 0.057323 0.0317425)
(-0.0188063 0.0129885 0.0073315)
(-0.00435709 0.00302235 0.00163816)
(-0.00114372 0.000547218 0.000415983)
(-0.0850554 0.356144 0.0367673)
(-0.0265256 0.101737 0.00935103)
(-0.00687474 0.0255299 0.0020371)
(-0.00166021 0.00596837 0.000421394)
(-0.000440186 0.00107503 9.63636e-05)
(-0.28489 0.322684 0.184347)
(-0.0692946 0.0544621 0.0431257)
(-0.0162367 0.0117581 0.009783)
(-0.0036881 0.00265259 0.00215894)
(-0.000952979 0.000471417 0.000543773)
(-0.0822208 0.370253 0.0511814)
(-0.0259265 0.100795 0.0133847)
(-0.00671234 0.0243299 0.00306334)
(-0.0016175 0.00551784 0.000674998)
(-0.000425224 0.000973829 0.000162868)
(-0.324734 0.313047 0.0826203)
(-0.0826075 0.0591973 0.0203947)
(-0.0200859 0.0137999 0.00477922)
(-0.00470558 0.00327695 0.00107842)
(-0.00124619 0.000601189 0.000275426)
(-0.0870569 0.351484 0.023571)
(-0.0263556 0.102323 0.00613643)
(-0.00672187 0.0262265 0.00131678)
(-0.00160458 0.00625114 0.000259926)
(-0.000424125 0.00114243 5.68149e-05)
(-0.334274 0.310752 0.0304011)
(-0.0847801 0.0582928 0.0075952)
(-0.0207047 0.0136477 0.0017945)
(-0.00487774 0.00326737 0.000407867)
(-0.00129855 0.00060342 0.000104768)
(-0.0871643 0.348874 0.0114741)
(-0.0264447 0.101413 0.00272983)
(-0.00673713 0.0261719 0.000554272)
(-0.00149301 0.00628713 0.000149289)
(-0.000418252 0.00115539 2.20851e-05)
(-0.00995186 1.43461 -0.0518165)
(-0.264385 1.99843 0.0244813)
(-0.259709 1.78863 0.168987)
(-0.146377 1.34884 -0.144716)
(0.149368 0.753973 0.0393396)
(0.205379 0.79162 0.0419624)
(0.413663 1.20123 0.105256)
(0.543906 1.20488 0.128422)
(0.235278 0.810843 0.0871541)
(0.474611 0.866012 0.14059)
(0.0906391 1.29247 0.11622)
(0.285974 1.722 0.175561)
(0.231772 1.91059 0.111025)
(0.385126 2.59396 0.145004)
(0.423312 0.974035 0.0530808)
(0.583964 1.06987 0.0773506)
(0.509905 0.787156 0.0577314)
(0.580256 0.767589 0.067236)
(0.291188 0.545786 0.0402927)
(0.329525 0.561072 0.0417506)
(-0.758021 0.165207 0.115477)
(-0.565631 0.116775 0.0905879)
(-0.173656 0.0304885 -0.0126185)