/*--------------------------------*- C++ -*----------------------------------*\
| =========                 |                                                 |
| \\      /  F ield         | OpenFOAM: The Open Source CFD Toolbox           |
|  \\    /   O peration     | Version:  2412                                  |
|   \\  /    A nd           | Website:  www.openfoam.com                      |
|    \\/     M anipulation  |                                                 |
\*---------------------------------------------------------------------------*/
FoamFile
{
    version     2.0;
    format      ascii;
    arch        "LSB;label=32;scalar=64";
    class       volScalarField;
    location    "2";
    object      gradTz;
}
// * * * * * * * * * * * * * * * * * * * * * * * * * * * * * * * * * * * * * //

dimensions      [0 -1 0 1 0 0 0];

internalField   nonuniform List<scalar> 
5712
(
7382.47
22424.7
5601.66
24527.5
3069.57
25972.1
5230.32
41116.9
8543.18
51627.5
8759.12
36641.2
9350.78
32571.2
9217.27
27987.6
4331.68
2363.7
13062.3
6184.5
4040.45
1859.98
14071.5
5669.08
5651.73
4173.59
16681.2
12211.8
3789.09
2988.04
16777.8
12719.5
8517.05
3100.44
6470.02
2358.62
2957.88
7912.27
40234.5
12291
12090.1
5578.25
48811.9
15295.1
11264.6
5282.54
26665.5
8887.36
13598.4
6194.69
21728.4
6905.94
5125.84
2776.96
8926.34
3616.95
4575.64
2882.48
9368.21
3542.93
6113.32
3881.56
5893.21
2481.25
10435.4
3774.65
4105.37
1518.92
12803.2
9676.02
7745.01
6969.69
14216.6
12473.2
7704.49
8223.33
7213.57
6225.99
9467.14
8137.87
5749.97
4961.3
3326.02
2865.47
5701.96
5690.66
3246.69
3253.65
5526.12
4359.44
3216.97
2283.2
6212.41
3501.17
6264.37
6884.55
8306.83
6318.56
8999.9
11808.8
4517.96
1938.8
4012.37
4126.72
2549.78
894.457
1837.97
1584.41
5924.64
11932.6
4305.63
13491.4
6408.42
12074.7
5129.4
14346.1
8412.34
11962.3
7097.49
14574.1
9203.7
10928.9
7204.4
7257.16
8802.28
7210.55
8049.38
11157.4
13069.2
19110.2
9762.92
7986.96
7683.65
9736.83
15415.8
14890.7
14442
17405.3
17572.1
14516.8
14558.2
17442.2
17401.7
13357.8
13888
16699.7
16907.9
9077.08
9649.29
8980.37
9508
10936.5
11009.9
12843
12561.9
16261
16507.5
8273.78
9113.33
9425.59
10143.6
10584.6
11526.2
12246.7
13532.7
16145.3
17653.5
9691.78
6618.6
7838.47
7879.77
10798.4
12244.2
8778.28
11568.6
7231.95
7330.18
9209.33
6620.29
3330.26
5685.73
1359.29
2116.87
5435.82
8568.45
2124.15
3204.41
2819.06
5012.15
1055.29
1828.92
6907.32
5891.35
7078.2
4446.99
9736.02
6963.32
11100.1
7445.03
3246.31
3755.23
4033.11
2305.76
2485.62
2698.62
2764.68
2098.19
12574
8291.2
2718.99
13618.5
8583.86
2970.33
12369.5
8103.14
2763.97
13583.5
8554.86
2903.58
11795.7
7612.3
2554.14
13327.7
8414.67
2896.28
6937.52
3984.33
1051.83
8312.4
5680.85
1849.64
9605.25
6762.65
2283.65
10664.6
6961.6
2286.61
12880.1
8124.59
2873.79
7621.96
4201.7
1383.65
7507.2
4875.89
1701.15
8494.38
5614.99
1929.43
10097.4
6496.24
2225.67
12226.7
7160.22
2485.41
-498.429
991.449
446.159
2649.26
1804.76
1817.82
4648.12
4062.83
604.699
970.828
640.719
1018.37
341.49
941.31
628.161
1379.58
1888.91
1135.17
3818.59
2707.98
1742.81
2864.77
2938.05
806.276
5943.87
1868.65
-4204.97
-654.101
639.81
668.409
-12.2408
135.214
10282
4462.28
2725.29
1599.95
10126.7
4522.97
2972.83
1892.31
9778.13
4941.69
3992.8
2804.9
3070.89
1986.55
1699.08
1528.44
13156.2
11492.5
5755.91
7357.9
14839.3
13853.4
7221.32
8656.26
5201.49
6275.37
11108.2
9144.36
3653.76
4793.49
2090.89
2777.07
4820.05
5633.07
2768.59
3214.62
2944.1
4133.29
1637.59
2507.28
4613.99
3248.05
5225.39
3476.41
7950.39
4682.94
7030.76
4562.88
2732.53
2219.83
3623.66
2386.3
1520.8
1393.92
2290.98
1476.15
11951.8
7872.26
5793.85
5968.24
11844.2
7846.54
5721.61
5848.73
11962.8
7538.6
5816.55
5433.61
13259
12894.4
12295.9
9397.52
5349.28
7845.31
9374.24
9824.73
9148.19
6321.18
11160.4
9925.57
8167.41
6550.21
4216.41
6649.25
6524.98
6624.19
7953.18
6627.47
6327.38
6475.5
7787.5
6334.85
6000.35
6159.38
7461.19
8809.26
8332.04
8120.58
6971.71
6004.46
5992.94
5732.29
5946.09
5380.79
7042.78
6476.31
7338.28
5360.97
6088.71
4711.48
5374.74
4558.26
5449.78
4075.14
6465.64
4748.2
3807.47
3252.87
1754.68
7348.86
5582.77
5937.52
3765.8
2444.01
1403.63
3617.6
3256.85
4222.05
1845.04
1960.53
1081.07
5532.5
3174.86
2267.44
1563.54
3398.24
1447.14
1727.92
865.366
2024.24
2408.78
2480.27
4181.43
3058.56
3718.13
2976.89
5420.81
2458.99
1770.64
1829.29
3007.14
1101.87
430.411
380.068
744.438
5136.4
2358.25
680.174
5496.57
1469.01
389.27
5016.14
2465.28
771.021
5466.31
1515.17
421.34
4599.29
2281.95
592.132
5213.2
1408.15
320.29
5646.78
3101.6
823.827
4669.06
2520.19
706.138
4489.95
2270.32
651.702
4343.85
2071.68
486.715
4958.05
1249.81
215.444
6251.68
3301.1
1028.25
5316.09
2903.79
957.863
4727.39
2490.82
819.523
4465.41
1853.86
507.611
5182.73
1302.59
417.307
1708.31
652.381
318.633
25.9755
693.316
279.015
147.041
32.92
1764.29
698.175
377.704
83.7082
838.961
373.698
242.658
112.987
2020.15
833.082
491.637
160.828
1440.85
734.009
411.245
187.969
1063.55
653.414
302.551
95.2288
1105.42
740.182
417.877
226.506
1683.61
795.092
413.399
51.2471
1598.43
732.289
435.871
-20.6206
2116.57
888.472
532.52
128.659
1893.34
783.352
495.162
-41.2423
1278.15
691.104
354.062
51.1043
1243.62
643.665
392.313
67.9492
950.867
598.119
367.926
208.289
868.231
535.143
361.47
201.922
2179.28
795.469
395.682
-47.1859
2266.02
774.026
446.315
-195.872
2171.27
806.434
428.576
-18.908
2175.15
747.121
444.962
-181.732
2183.94
828.377
495.374
28.5965
1949.25
676.371
441.186
-126.027
2030.27
798.155
541.638
150.562
2150.15
765.602
565.24
-116.687
1576.43
619.492
426.983
54.9806
1864.51
567.616
335.498
-187.813
730.841
201.583
102.848
-42.1864
1843.19
576.492
344.583
-166.722
745.903
212.643
113.367
-29.953
1735.17
562.843
357.503
-127.182
720.695
215.362
126.016
-12.4957
1463.98
483.127
343.095
-82.7986
636.205
191.037
134.845
9.99031
1285.36
451.66
331.188
-22.7607
575.468
193.861
149.795
41.3105
1005.62
434.249
263.551
21.5226
529.243
267.132
162.897
84.1212
1071.64
396.459
274.126
-0.678128
524.811
216.194
152.834
65.6611
892.815
462.972
277.115
68.2112
534.507
313.687
185.959
112.713
696.477
444.13
292.185
170.969
494.292
336.2
219.806
159.591
16.2624
10.5063
6.41089
3.98875
2.90857
8.81438
5.3805
3.25252
2.03468
1.49625
34.4887
21.3529
12.65
7.77732
5.63791
34.6066
20.7075
11.9795
7.29266
5.26967
78.0003
48.1609
28.2445
17.3626
12.6079
150.767
88.52
51.3316
31.3721
22.7039
154.069
93.0341
54.7132
33.667
24.4677
165.732
97.5117
56.7956
34.8367
25.3238
101.9
64.0786
38.1241
23.559
17.0689
80.0429
50.3738
30.0448
18.6397
13.533
106.239
64.2008
37.5243
23.1203
16.7786
81.5116
45.3833
26.1241
16.0695
11.6181
113.106
74.6816
44.9925
27.9297
20.33
108.706
68.9719
41.1732
25.5189
18.5602
147.8
89.0369
52.1161
32.014
23.2669
141.744
85.818
50.3252
30.9289
22.4493
8.97604
8.4404
5.33979
3.34522
2.44613
1.33364
3.17987
2.10184
1.34228
0.998167
19.7111
14.3699
8.74779
5.43292
3.97369
3.55622
4.528
2.89001
1.82563
1.36
30.4234
21.8233
13.1478
8.18545
6.01886
17.1339
11.3751
6.56917
3.98347
2.92398
89.2418
53.1922
30.7173
18.9477
13.8436
44.6148
26.4558
15.1026
9.26706
6.78558
111.698
58.3777
32.7196
19.9046
14.3919
2546.52
4420.57
2403.86
4290.61
2242.69
3994.45
2189.69
3842.72
2385.06
4379.32
1403.91
2035.57
1940.53
3051.2
932.876
1221.98
368.319
491.973
7528.28
1814.25
416.415
92.3251
23.146
2007.5
532.611
142.694
31.9861
7.13888
7465.53
1774.12
404.211
88.9663
22.2013
2074.69
604.054
148.571
34.4682
8.64051
7192.93
1680.01
378.625
82.6927
20.5197
2014.24
584.241
142.575
32.7373
8.12849
6735.16
1542.06
344.344
74.9167
18.5747
1936.91
548.978
131.276
29.6573
7.26024
5892.63
1328.45
296.309
64.7076
16.15
1800.65
487.106
113.843
25.3971
6.16046
3297.23
793.563
183.288
40.9541
10.3996
919.182
233.776
50.9275
10.5349
2.40909
4608.66
1078.14
244.575
53.9736
13.5943
1279.53
334.617
76.5835
16.8749
4.07169
2065.51
509.868
119.48
26.9605
6.88565
589.276
153.411
32.9195
6.49816
1.42037
760.027
189.88
44.8626
10.1967
2.61921
286.852
68.2458
13.8568
3.73221
0.552126
-1295.41
612.033
4224.66
-3617.91
983.49
1049.06
2631.41
3210.54
2178.85
3514.75
2905.51
4389.02
2775.63
3625.09
1327.02
1933.76
1443.29
1680.9
1007.32
1043.76
2886.92
2264.7
-315.463
-867.675
-945.497
-1267.72
-648.002
12081
3241.98
4147.88
3380.84
392.475
10.5181
3341.41
-942.509
-390.767
-777.69
-262.155
5961.37
3095.36
1430.23
798.359
3313.69
1553.13
249.911
430.259
-1068.41
-1046.42
889.831
767.005
9350.14
4597.52
4538.5
2617.74
3439.83
3233.15
32.6268
-1022.04
345.678
2022.59
1782.44
1562.56
1453.29
1103.5
1814.93
1471.2
1195.26
883.189
350.627
-284.195
-237.348
-174.518
-104.375
-34.4062
-774.616
-647.164
-485.064
-299.908
-101.407
-844.378
-705.331
-527.873
-325.623
-109.975
-1133.09
-947.771
-710.696
-439.299
-148.539
-573.06
-472.348
-347.559
-210.889
-70.5833
8973.03
8227.74
7030.94
6575.18
6120.33
2996.85
2446.93
2216.95
1861.01
845.143
3388.71
2709.59
2272.89
1799.72
833.52
2622.6
2058.04
1698.23
1273.43
483.752
330.598
233.926
238.676
192.067
99.9749
74.4394
122.64
139.391
113.994
44.2136
2776.81
2223.2
1729.81
1199.15
455.867
-593.241
-313.958
-157.713
-70.8332
-22.9432
-311.677
-220.695
-131.48
-60.9612
-15.8357
-562.755
-363.178
-212.646
-107.812
-33.2993
-245.772
-209.881
-153.669
-89.7534
-28.5404
4118.3
4043.66
3523.03
3473.23
3479.34
2558.97
2018.25
1682.7
1286.79
508.049
1304.92
1135.76
925.097
637.236
232.48
702.513
592.028
472.782
322.276
116.709
2775.85
2215.71
1689.75
1124.03
408.498
1390.04
1167.65
910.276
592.075
196.038
215.384
180.134
147.282
103.688
37.4453
388.404
334.206
267.386
178.649
62.6586
-927.209
-749.321
-542.942
-326.434
-108.714
-922.187
-757.095
-554.963
-335.579
-111.984
787.064
662.338
516.654
339.963
120.659
677.564
569.291
443.957
291.843
103.072
6192.52
5003.76
4428.07
4276.29
3552.93
3601.28
2856.27
2293.63
1698.47
705.775
3607.35
3052.26
2572.59
2114.92
898.674
2092.24
1727.36
1388.61
1009.02
450.989
2950.62
2404.45
1841.19
1206.86
425.204
2704.99
1952.82
1597.33
1177.45
225.983
31.8388
35.2168
43.6433
40.9455
16.0029
-907.805
-751.844
-555.506
-337.863
-113.117
319.469
282.76
239.665
169.542
59.2369
-29162.2
-45619.7
-22069.6
-38775
-23462.8
-54461.2
-30865.4
-66218.4
-16500.3
-11066.6
-18324.7
-9858.69
-15390.8
-10108.7
-18466.1
-8774.7
-24009.8
-16888.6
-33258.7
-23992.6
-18903.8
-13848.2
-28637.3
-21459.4
-14505
-14740.5
-10153
-9798.58
-12336.5
-13043.2
-43600.6
-13401.4
-13933.1
-6630.84
-51280.1
-16284.2
-12645.4
-6091.28
-30504.9
-10053
-15485.1
-7226.76
-25626.4
-7817.63
-11526.8
-4903.66
-15792
-5939.45
-10033.4
-4485.88
-14608.2
-5213.6
-10450.5
-5051.69
-8930.59
-3414.14
-12631.5
-4491.01
-4948.24
-1833.19
-10376.4
-7486.82
-8469.23
-6316.3
-8992.52
-7673.38
-7522.44
-6586.27
-8468.26
-6199.13
-9791.9
-7703.99
-6355.82
-4666.63
-3768.9
-2672.97
-5748.26
-4828.58
-3295.41
-2637.93
-6412.38
-4410.26
-3836.63
-2343.03
-7562.03
-4006.15
-6466.1
-6954.27
-9826.78
-6900.98
-9180.23
-11825.8
-5385.29
-2264.1
-4174.47
-4192.23
-3132.53
-1120.42
-1971.86
-1640.83
-10124.2
-12909.2
-5796.08
-14577.1
-10036.7
-12594.3
-6334.49
-15079.5
-11113.1
-12167.3
-7879.17
-14774.5
-6206.86
-3831.51
-7964.1
-9251.12
-9499.18
-5674.59
-7886.73
-11824
-13544.6
-19188.5
-5112.89
-5846.8
-7127.88
-9697.38
-15340.7
-13649.8
-11239.3
-16949.8
-14060.5
-13253.2
-11534.1
-16966.4
-14172.8
-12118.3
-10734.3
-16038.6
-14080.2
-8316.36
-7792.18
-8323.22
-7519.05
-9567.08
-8516.38
-11016.3
-9755.4
-15393.1
-14129.6
-6859.91
-7516.23
-7663.09
-7497.02
-8798.23
-8576.3
-10693.9
-10631
-15333.2
-15088.6
-8112.93
-5525.91
-6801.98
-6929.19
-8474.27
-10622
-7143.22
-10071.4
-6678.33
-6726.7
-8291.87
-5850.98
-2619.14
-4959.34
-744.228
-1511.03
-4241.88
-7466.3
-1138.94
-2307.25
-2443.77
-4558.28
-713.007
-1441.11
-6646.01
-5542.4
-6950.12
-4257.43
-9230.07
-6412.67
-10837.8
-7013.4
-3065.51
-3501.36
-3929.91
-2170.77
-2300.37
-2463.89
-2656.92
-1963.2
-8193.76
-3165.03
-8750.45
-3045.66
-8389.55
-3144.73
-9180.32
-3382.69
-8034.88
-2962.5
-9931.44
-3924.62
-4390.51
-1042.75
-5247.71
-1882.42
-6091.18
-2374.49
-7384.83
-2798.72
-9895.28
-3837.44
-5336.71
-883.042
-4637.01
-1560.71
-5351.97
-1973.94
-6954.01
-2579.18
-8982.39
-2943.99
-6266.46
-6089.05
-4053.39
-3914.6
-9993.62
-7930.56
-7732.19
-6111.57
-5408.47
-5000.92
-2077.39
-1703.41
-5061.08
-4900.35
-1777.08
-1689.3
-2485.1
-5743.84
-3728.32
-6946.9
-4746.4
-2022.57
-3129.55
-704.582
-6671.35
-2285.59
4100.89
1270.8
-176.133
10.8764
1067.29
1254.68
-2628.61
-1410.04
-1042.9
-411.071
-2624.66
-1560.04
-1136.02
-394.096
-2876.34
-1868.28
-1237.52
-232.644
-1050.06
311.014
324.803
1000.85
-5096.98
-5016.52
-3750.86
-4273.4
-7373.92
-7115.46
-6000.94
-6006.01
-2521.93
-3218.84
-4094.95
-3913.57
-2536.01
-2878.03
-1197.65
-1251.44
-4253.65
-4139.43
-2357.37
-2098.43
-1280.71
-2018.9
-270.403
-715.759
-1604.27
-946.644
-2545.18
-1465.57
-2711.98
-1978.11
-3149.33
-2249.32
-646.451
-189.513
-1553.81
-581.121
253.929
539.866
-417.815
254.486
-2952.44
-2979.37
-2464.01
-3913.84
-3044.13
-3138.16
-2597.87
-4013.45
-3603.35
-3269.8
-2948.93
-3936.07
-2222.17
-2677.35
-2797.6
-2718.27
-2473.38
-4422.7
-3524.24
-3301.37
-4062.93
-4320.1
-4526.32
-3443.31
-2922.54
-2709.9
-2070.7
-3985.98
-5058.38
-6793.58
-11768.2
-3809.96
-4280.1
-6374.9
-10929.4
-3868.23
-4699.22
-5849.73
-9766.66
-7573.41
-6533.23
-6057.56
-5308.6
-4239.03
-4676.8
-4452.3
-5398.7
-5023.69
-8734.53
-5126.69
-5944.7
-3716.09
-4788.73
-3054.77
-4266.8
-3253.91
-4837.42
-2967.61
-6910.57
-2307.53
-2458.23
-1249.19
-302.344
-4729.72
-4166.01
-3948.66
-2295.54
-596.006
-74.2177
-1573.34
-2091.44
-2539.02
-631.728
-482.304
-0.973358
-3954.53
-1956.12
-958.333
-507.682
-1776.23
-338.917
-216.038
158.099
-524.436
-1435.71
-1402.61
-3743.2
-1523.43
-2971.03
-2059.47
-5423.09
-1048.08
-867.02
-591.731
-2345.53
325.508
495.916
904.735
36.2281
-4248.74
-1394.76
-8624.65
-1203.28
-3663.39
-1523.42
-8137.02
-1191.79
-3288.34
-980.206
-6737.32
-599.052
-3541.17
-774.063
-3074.63
-732.607
-3458.96
-1039.61
-3251.54
-535.408
-6043.22
-511.935
-4319
-555.9
-3806.62
-573.146
-3794.28
-745.806
-3854.16
-390.18
-6010.75
-606.593
-647.262
-195.725
-83.2784
135.561
-201.067
-51.8701
-29.092
36.6088
-622.594
-160.26
-79.3572
130.515
-81.6562
28.2055
-6.37885
42.38
-671.383
-132.851
-59.0402
196.271
183.192
250.834
282.178
366.203
671.632
490.958
496.54
478.961
974.952
687.116
549.018
388.942
-268.972
78.0697
191.417
417.921
-260.143
120.724
133.194
461.735
-769.489
-129.014
-28.2225
333.381
-601.293
-22.9538
-17.3098
462.888
191.481
286.808
321.613
437.575
95.0894
265.452
243.928
410.203
578.988
460.31
387.017
329.33
470.859
404.457
315.845
309.2
-1062.27
-327.796
-173.911
241.171
-1450.38
-400.935
-314.983
403.031
-1035.61
-298.812
-177.956
237.862
-1407.09
-379.715
-309.764
389.049
-1030.04
-264.086
-207.461
223.322
-1270.32
-329.76
-301.767
337.85
-701.832
-97.3803
-135.981
251.129
-1192.94
-253.555
-324.53
425.537
-515.341
-29.5465
-42.6431
396.282
-1430.62
-311.424
-255.09
350.787
-627.079
-114.683
-67.4296
95.5478
-1282.16
-265.292
-237.008
337.273
-580.632
-100.5
-64.7192
91.2762
-1039.41
-182.661
-217.422
297.976
-483.241
-69.921
-58.2966
86.0835
-809.382
-119.308
-190.881
253.233
-407.161
-52.5447
-58.9613
75.3984
-537.941
-37.8655
-111.447
244.896
-223.084
2.65919
-28.1613
79.6247
-188.903
104.311
112.209
318.425
147.488
175.45
138.922
173.67
-452.306
-19.2149
-23.9994
263.347
-18.9255
84.4234
46.9143
117.766
121.148
248.165
218.283
335.886
264.711
256.47
208.902
209.212
411.562
363.625
269.676
269.784
369.265
312.207
229.566
198.633
41.532
15.1204
7.00265
3.94639
2.8011
17.9694
7.02675
3.34511
1.88685
1.32894
60.0312
25.5377
13.0442
7.65326
5.51325
45.6571
22.0859
12.0522
7.24657
5.25868
112.316
51.9206
27.7681
16.5016
11.9117
170.233
90.4101
50.5412
30.526
22.1757
178.147
96.5932
54.1038
32.612
23.6193
175.63
98.8365
56.506
34.3617
24.9308
144.427
70.2058
37.9846
22.651
16.4386
118.454
55.3086
29.6201
17.5653
12.7233
140.347
66.1977
35.7737
21.2675
15.3793
90.2587
44.31
24.2173
14.4103
10.4662
164.696
82.8509
45.2673
27.0414
19.5649
147.54
74.7747
41.0609
24.5708
17.8153
163.961
91.2365
51.9613
31.545
22.8749
158.711
88.4231
50.2788
30.493
22.122
44.8367
13.5603
5.92267
3.2775
2.31171
20.9423
5.32194
2.18683
1.17106
0.805775
52.4792
18.7603
9.00551
5.16187
3.66938
22.8215
6.56373
2.92724
1.62661
1.12654
66.6352
25.4491
12.7406
7.37031
5.22484
31.1275
12.5196
6.58531
3.93074
2.79706
114.71
51.7445
27.7906
16.3905
11.7341
54.8374
24.8805
13.5287
8.02161
5.72512
100.165
53.1812
29.8337
17.934
13.0077
-2898.14
-4386.4
-2768.8
-4294.74
-2555.06
-3998.75
-2418.43
-3811.86
-2430.21
-4156.82
-1376.96
-1956.68
-1933.66
-2925.89
-874.392
-1147.35
-290.116
-412.529
-8133.65
-1934.04
-439.519
-96.6759
-24.0643
-2145.86
-567.013
-150.942
-33.578
-7.43251
-7981.01
-1876.45
-424.135
-92.743
-23.0039
-2225.86
-643.981
-157.065
-36.1611
-9.00184
-7541.77
-1751.58
-392.986
-85.4791
-21.1228
-2153.11
-619.251
-149.942
-34.196
-8.43957
-6909.33
-1580.75
-352.643
-76.6077
-18.9551
-2036.45
-574.104
-136.642
-30.7315
-7.4924
-5933.96
-1341.54
-299.653
-65.4607
-16.3316
-1843.91
-500.121
-116.857
-26.0289
-6.30222
-3277.35
-790.557
-182.96
-40.9424
-10.4083
-908.49
-233.237
-51.1179
-10.6171
-2.43563
-4596.25
-1078.47
-245.18
-54.1777
-13.6554
-1283.23
-338.425
-77.7264
-17.1453
-4.13813
-2046.2
-506.217
-118.857
-26.8655
-6.87144
-569.45
-149.76
-32.3406
-6.41806
-1.41045
-741.971
-186.197
-44.1477
-10.0684
-2.59459
-261.885
-62.8563
-12.8042
-3.54419
-0.51683
686.461
-1561.17
-5513.97
1801.62
-6687.86
-2939.56
-6555.8
-2983.5
-11148
-6071.63
-13061.6
-7136.91
-117.497
-468.625
-726.675
-839.25
-736.927
-388.226
-187.233
-714.918
-1086.49
-1204.97
-984.04
-361.274
-92.4577
-90.0014
-339.762
-318.223
-437.019
-421.101
-306.173
-316.267
-195.255
-234.241
-336.594
-259.345
487.558
1744.39
3398.01
2713.56
2465.21
1189.16
735.25
2195.4
3655.15
4051.73
3456.25
1589.43
-105.933
-89.5192
-67.8125
-42.2451
-14.3422
-423.099
-358.187
-271.856
-169.627
-57.6382
-655.999
-555.265
-421.378
-262.905
-89.3338
-757.269
-640.638
-485.912
-303.05
-102.953
-664.574
-561.806
-425.749
-265.316
-90.089
-350.734
-296.75
-224.63
-139.607
-47.291
-168.714
-142.482
-107.872
-67.1753
-22.8021
-645.131
-545.825
-414.046
-258.256
-87.7402
-980.174
-829.06
-628.777
-392.166
-133.238
-1086.3
-918.154
-695.94
-433.916
-147.406
-886.365
-748.479
-566.909
-353.319
-120.009
-326.145
-275.881
-209.02
-130.135
-44.1515
-83.4129
-70.5504
-53.4902
-33.3446
-11.3236
-81.2491
-68.7712
-52.1811
-32.5488
-11.0574
-306.865
-259.906
-197.348
-123.173
-41.8579
-287.476
-243.54
-184.965
-115.466
-39.2427
-394.644
-334.192
-253.711
-158.332
-53.8017
-380.283
-322.035
-244.486
-152.578
-51.8485
-276.506
-234.169
-177.764
-110.913
-37.6797
-285.454
-241.577
-183.283
-114.321
-38.8351
-176.268
-149.138
-113.008
-70.3506
-23.8599
-211.018
-178.165
-134.836
-83.9291
-28.4768
-302.979
-255.322
-192.568
-119.376
-40.3867
-233.141
-196.265
-148.005
-91.8204
-31.0924
433.218
361.989
273.676
171.693
58.7401
1544.59
1286.79
972.029
610.693
209.277
2974.88
2460.88
1865.59
1187.55
411.885
2362.57
1975.2
1517.17
985.309
359.161
2158.9
1807.61
1389.44
897.491
313.914
1072.47
914.208
707.48
452.72
154.669
654.672
547.382
412.938
257.966
87.9582
1949.64
1627.19
1227.83
768.72
262.698
3227.99
2685.09
2028.8
1277.45
439.165
3563.71
2962.76
2245.99
1424.32
494.514
3036.02
2524.58
1919.39
1222.53
424.633
1409.52
1182.98
906.027
579.088
201.005
265.043
614.494
868.506
974.388
863.91
526.827
391.982
915.13
1274.26
1367.36
1107.56
444.481
203.994
179.208
444.827
403.315
526.166
494.508
366.425
363.796
244.071
224.747
463.785
292.211
-327.85
-1516.34
-2988
-2175.34
-1803.02
-450.717
-674.423
-2097.87
-3425.28
-3636.41
-2843.88
-848.851
239.716
203.384
154.717
96.7147
32.8961
555.461
470.92
357.959
223.631
76.0434
784.808
665.111
505.392
315.657
107.322
880.218
745.716
566.467
353.73
120.254
780.408
661.12
502.145
313.516
106.571
477.372
405.534
308.483
192.606
65.4345
354.446
300.639
228.643
142.904
48.6035
826.88
700.709
532.417
332.536
113.063
1150.8
974.673
740.234
462.197
157.127
1234.12
1044.58
792.936
494.98
168.26
999.05
845.112
641.259
400.237
136.053
402.095
341.04
259.176
161.798
54.9829
184.522
156.575
119.121
74.4675
25.3291
162.104
137.55
104.644
65.4148
22.2492
402.166
341.043
259.295
162.013
55.0913
364.656
309.247
235.129
146.917
49.9587
475.583
403.19
306.462
191.443
65.0903
446.952
378.888
287.969
179.881
61.1585
331.296
280.968
213.619
133.458
45.3735
328.719
278.581
211.673
132.193
44.9382
220.963
187.638
142.769
89.2026
30.3202
203.034
172.02
130.658
81.5687
27.7212
419.549
355.861
270.406
168.76
57.3295
263.939
223.53
169.672
105.851
35.9609
-287.598
-237.146
-177.646
-111.119
-38.0361
-1337.23
-1109.65
-836.367
-525.512
-180.237
-2600.21
-2138.76
-1617.5
-1031.35
-358.541
-1858.84
-1530.98
-1165.3
-757.887
-281.376
-1531.98
-1249.2
-941.08
-601.802
-209.446
-370.426
-285.399
-198.96
-114.339
-34.4705
-599.665
-500.75
-377.513
-235.863
-80.4472
-1862.07
-1553.6
-1172.51
-734.566
-251.171
-3019.32
-2507.24
-1893.03
-1192.53
-410.31
-3181.13
-2631.03
-1987.82
-1259.88
-438.146
-2467.16
-2026.66
-1527.51
-969.835
-336.982
-718.854
-575.514
-425.239
-267.235
-92.4044
-1962.69
-1416.01
715.978
1205.64
1272.41
1764.44
1146.67
-10093.4
-1609.74
-3073.67
-1351.99
647.593
-4047.32
962.929
2372.34
822.837
-4967.2
-2030.67
-565.695
-287.909
-2937.47
-764.453
185.877
143.105
1829.07
1763.14
-479.878
-291.562
-8378.54
-3841.45
-3585.67
-1836.83
-2906.15
-2231.08
646.815
1777.49
303.173
-1056.52
-873.42
-770.215
-865.368
-860.188
-985.622
-712.486
-565.537
-449.541
-191.822
652.726
556.726
422.998
262.648
88.8332
1085.26
916.08
694.113
433.011
147.159
1146.31
968.111
733.23
456.936
155.238
1588.6
1341.01
1015.63
633.143
215.14
1034.44
874.723
662.712
412.843
140.306
-7251.47
-6919.13
-6202.52
-6370.54
-6732.12
-1114.09
-702.637
-788.066
-893.366
-438.089
-2323.61
-1751.46
-1509.42
-1313.91
-671.814
-912.248
-632.209
-606.455
-551.909
-187.578
575.291
476.198
351.951
213.976
72.5272
-3350.92
-2680.95
-2087.45
-1449.13
-550.499
861.057
720.196
538.866
331.822
111.623
2059.05
1683.37
1263.9
801.192
280
742.17
626
470.794
290.049
97.2652
-3189.99
-3231.34
-2911.85
-3178.03
-3631.34
-1502.93
-1043.02
-886.442
-761.471
-322.248
-450.33
-352.193
-287.169
-215.89
-83.4565
-215.938
-156.584
-125.201
-96.9518
-38.3718
-2448.65
-1947.9
-1498.63
-1017.14
-376.658
-637.523
-491.186
-365.644
-234.141
-68.9262
190.038
175.676
132.812
76.3074
24.8661
147.933
138.7
106.507
62.6728
21.1123
1633.2
1367.5
1030.34
641.62
218.389
1584.97
1335.16
1008.44
627.053
212.889
-400.806
-319.734
-244.799
-164.143
-59.6248
-232.91
-177.736
-135.268
-93.3846
-34.4446
-5286.55
-4211.23
-3809.66
-3927.92
-3548.41
-2888.39
-2221.34
-1786.38
-1369.8
-593.641
-2658.99
-2210.02
-1881.34
-1660.53
-722.842
-1354.13
-1069.39
-862.853
-668.86
-338.83
-2453.76
-1969.37
-1499.92
-988.632
-348.996
-1753.15
-1075.15
-888.978
-714.212
-42.3778
602.2
522.788
396.886
243.006
82.4712
1601.82
1352.63
1023.12
636.315
215.962
298.413
271.617
205.527
121.537
42.8931
-89.2855
-188.754
-229.978
-286.032
-420.173
-588.06
-20502.4
-16882.5
-15847.3
-18978.8
-14447.5
-11087.3
-13258.2
-10081.1
-18091.5
-14401.8
-15222.1
-12962.5
-13091.9
-9971.03
-12394.8
-17289.9
-15153.9
-13455.1
-15281.9
-12854.6
-9978.22
-11426.8
-8585.91
-16754.5
-14140.4
-15097.1
-13235.7
-13053.2
-10896.1
-12667.3
-13489.7
-12360.7
-10803.4
-11762.6
-10761.5
-8902.38
-9603.38
-8225.87
-13926.1
-12752.1
-13216.3
-12304.3
-12053.6
-10449
-11768.3
-9279.53
-8899.56
-7692.46
-8003.19
-8239.08
-7717.9
-7332.04
-7303.76
-10059
-11144
-9738.54
-10694.1
-9296.52
-8474.13
-10146.9
-5973.85
-5880.52
-4951.84
-5033.99
-5800.95
-5873.41
-4886.78
-5051.23
-7035.59
-8589.56
-6915.12
-8010.79
-6807.8
-6602.47
-7626.07
-2182.44
-2168.12
-1782.25
-1800.15
-2182.51
-2290.39
-1754.83
-1746.66
-2875.94
-3609.88
-2809.03
-3183.41
-2792.58
-2768.17
-3033.23
-7628.69
-7673.62
-10798.1
-11900.9
-7688.88
-7273.6
-10038.1
-8357.58
-7166.55
-4588.55
-7298.41
-4512.24
-7382.71
-7420.76
-4604.97
-7249.76
-7083.48
-9957.41
-10762.9
-6838.27
-6015.97
-9051.68
-7417.81
-5033.11
-1837.99
-4979.6
-2077.84
-4231.2
-4039.56
-2428.06
-6092.65
-5980.07
-8387.67
-8850.78
-6003.69
-5524.76
-7852.15
-7035.53
-2648.96
-1749.42
-2616.33
-2355.28
-2546.57
-2816.98
-3041.78
-4484.84
-4495.44
-6154.08
-6300.43
-4624.48
-4554.26
-6045.95
-5936.11
-2735.96
-1622.58
-2941.49
-2577.64
-3211.75
-3771.36
-3508.11
-2785.57
-2799.36
-3921.51
-3961.25
-2739
-2741.52
-3891.85
-3837.89
-1527.1
-1197.06
-1725.68
-2038.44
-2196.83
-2690.38
-2750.7
-939.98
-947.924
-1387.58
-1396.56
-943.656
-988.715
-1371.56
-1329.25
-267.38
-497.66
-433.478
-925.607
-750.342
-976.596
-1153.31
7295.86
21963.2
5591.58
24539.8
3065.29
25977.1
5228.17
41115.4
8539.6
51623
8751.28
36638.6
9337.14
32567.4
9094.63
27334.5
4329.77
2363.32
13063.7
6184.78
4039.14
1859.56
14070.6
5668.73
5582.6
4122.17
16370
11984.7
3780.16
2984.16
16792.3
12736.9
8522.33
3098.77
6471.23
2358.41
2957.78
7919.82
40237.5
12291.2
12090.8
5578.15
48811.4
15294.6
11264.5
5282.21
26672.4
8888.66
13600
6195.05
21738.3
6907.62
5085.85
2741.9
8748.05
3538.88
4579.25
2882.47
9384.12
3546.62
6115.64
3881.96
5898.36
2482.85
10441.3
3776.58
4106.8
1519.45
12803.1
9676.05
7745.11
6969.74
14216.7
12473.3
7704.38
8223.31
7214.09
6226.16
9467.18
8137.97
5750.18
4961.35
3325.87
2865.39
5701.88
5690.63
3246.51
3253.58
5526.73
4359.6
3217.01
2283.16
6213.55
3501.64
6264.62
6884.68
8307.54
6318.77
9000.12
11808.8
4519.02
1939.23
4012.59
4126.85
2550.04
894.582
1838
1584.44
5931.89
11960.8
4288.37
13517.7
6413.79
12066.6
5131.57
14338
8413.07
11959.3
7097.25
14571.1
9203.74
10929.1
7204.5
7258.03
8802.11
7210.6
8049.27
11156.9
13068.2
19108.7
9763.05
7986.99
7683.66
9736.87
15415.6
14915.4
14453.4
17435.8
17552.1
14510.2
14555.2
17435.5
17404.7
13355.1
13886.4
16697.4
16908.2
9077.04
9649.15
8980.11
9507.7
10935.8
11009.3
12841.4
12560.9
16260
16507.4
8273.71
9113.2
9425.37
10143.4
10584.2
11525.8
12246.2
13532.3
16145.1
17653.3
9691.66
6618.54
7838.43
7879.74
10798.4
12244.1
8778.24
11568.5
7231.94
7330.19
9209.19
6620.26
3330.27
5685.71
1359.26
2116.86
5435.82
8568.41
2124.14
3204.4
2819.09
5012.17
1055.27
1828.92
6907.37
5891.39
7078.25
4447
9735.95
6963.34
11100.2
7445.03
3246.36
3755.26
4033.16
2305.77
2485.63
2698.62
2764.69
2098.18
12571.9
8283.07
2721.14
13604.8
8570.79
2964.74
12366.1
8100.85
2762.66
13584
8554
2902.77
11794.4
7611.31
2553.7
13327.9
8414.25
2895.96
6937.37
3984.21
1051.78
8312.12
5680.64
1849.56
9604.79
6762.3
2283.52
10664
6961.15
2286.43
12880.1
8124.32
2873.62
7621.82
4201.6
1383.61
7506.99
4875.72
1701.08
8494.1
5614.77
1929.34
10097.2
6496.02
2225.57
12226.5
7159.98
2485.27
-500.348
990.798
441.444
2648.35
1803.36
1817.22
4645.3
4062.03
594.592
967.287
628.676
1010.75
344.006
943.334
630.907
1381.37
1891.94
1136.74
3819
2708.22
1744.62
2867.9
2937.63
806.508
5943.47
1868.49
-4203.68
-652.781
640.129
669.161
-10.0874
136.849
10267
4458.44
2719.76
1594.76
10125.2
4524.48
2972.48
1894.16
9777.26
4941.99
3993.4
2806.19
3072.04
1987.69
1700.45
1529.38
13156.4
11492.6
5755.75
7357.89
14839.6
13853.6
7221.11
8656.22
5201.56
6275.36
11108
9144.17
3653.73
4793.54
2091.14
2777.25
4819.89
5633.05
2768.58
3214.65
2944.39
4133.43
1638.09
2507.55
4614.14
3248.38
5225.37
3476.43
7949.88
4682.7
7030.42
4562.56
2733.01
2220.33
3623.83
2386.49
1521.45
1394.42
2291.3
1476.42
11952.3
7885.68
5799.06
5977.52
11841.9
7842.85
5720.05
5842.05
11960.8
7536.47
5815.12
5430.68
13259.3
12894.8
12295.4
9396.39
5348.43
7845.44
9374.21
9824.07
9146.72
6319.47
11160.6
9925.6
8167.11
6549.69
4215.87
6658.26
6527.51
6628.9
7947.1
6624.48
6324.45
6468.69
7784.33
6333.12
5999.15
6156.52
7459.85
8809.29
8331.97
8120.48
6971.56
6004.08
5992.62
5731.48
5945.49
5379.44
7042.12
6476.33
7338.22
5360.95
6088.62
4711.3
5374.57
4557.9
5449.52
4074.51
6465.29
4748.24
3807.46
3252.89
1754.68
7348.94
5582.77
5937.54
3765.79
2443.98
1403.6
3617.5
3256.79
4222.08
1845.06
1960.6
1081.11
5532.5
3174.86
2267.47
1563.56
3398.29
1447.16
1728.03
865.419
2024.18
2408.74
2480.21
4181.39
3058.36
3718.02
2976.64
5420.68
2459.04
1770.67
1829.35
3007.17
1102
430.473
380.204
744.514
5134.01
2356.22
681.051
5495.69
1471.64
389.765
5014.12
2466.77
771.742
5465.22
1516.7
422.094
4598.69
2282.35
592.382
5212.73
1408.43
320.481
5646.68
3101.52
823.799
4668.95
2520.14
706.121
4489.78
2270.33
651.717
4343.49
2071.68
486.706
4957.82
1249.87
215.483
6251.59
3301.04
1028.23
5316
2903.73
957.835
4727.28
2490.76
819.499
4465.24
1853.76
507.557
5182.62
1302.59
417.327
1702.75
648.736
315.032
23.3785
687.229
275.645
144.403
31.3305
1765.07
698.483
377.95
83.8656
839.774
374.036
242.937
113.156
2020.3
833.15
491.731
160.917
1441.21
734.17
411.413
188.05
1063.89
653.574
302.686
95.29
1105.84
740.401
418.006
226.559
1683.76
795.175
413.477
51.3048
1598.46
732.333
435.923
-20.5665
2116.48
888.455
532.567
128.736
1893.19
783.316
495.188
-41.1798
1278.38
691.229
354.147
51.1543
1243.75
643.756
392.383
68.0017
951.145
598.275
368.021
208.339
868.421
535.267
361.552
201.974
2181.16
795.385
394.193
-49.1422
2270.72
775.291
446.204
-197.18
2170.56
806.156
428.48
-18.9212
2172.16
746.105
444.495
-181.613
2183.3
828.15
495.32
28.6648
1947.91
675.896
441.017
-125.94
2029.86
798.017
541.646
150.655
2149.38
765.332
565.179
-116.604
1576.19
619.416
427.003
55.066
1871.74
570.133
336.714
-188.901
735.376
203.041
103.435
-42.5275
1839.86
575.435
344.147
-166.561
745.534
212.585
113.4
-29.9123
1733.67
562.356
357.378
-127.07
720.21
215.224
126.007
-12.4362
1463.31
482.899
343.048
-82.741
635.917
190.944
134.833
10.0281
1285.05
451.555
331.18
-22.714
575.316
193.811
149.794
41.3406
1005.6
434.263
263.581
21.5655
529.224
267.142
162.921
84.1544
1071.52
396.425
274.134
-0.63757
524.732
216.174
152.844
65.6917
892.881
463.032
277.166
68.257
534.55
313.731
185.998
112.75
696.608
444.229
292.25
171.016
494.387
336.277
219.858
159.63
15.4597
10.0369
6.1167
3.79003
2.751
8.33227
5.08433
3.0565
1.89444
1.38109
34.5536
21.3934