/*--------------------------------*- C++ -*----------------------------------*\
| =========                 |                                                 |
| \\      /  F ield         | OpenFOAM: The Open Source CFD Toolbox           |
|  \\    /   O peration     | Version:  2412                                  |
|   \\  /    A nd           | Website:  www.openfoam.com                      |
|    \\/     M anipulation  |                                                 |
\*---------------------------------------------------------------------------*/
FoamFile
{
    version     2.0;
    format      ascii;
    arch        "LSB;label=32;scalar=64";
    class       volScalarField;
    location    "2";
    object      gradTy;
}
// * * * * * * * * * * * * * * * * * * * * * * * * * * * * * * * * * * * * * //

dimensions      [0 -1 0 1 0 0 0];

internalField   nonuniform List<scalar> 
5712
(
12981.6
7132.83
22604.8
14804.4
21770.6
18516.7
32075.8
39757.3
48835.3
61858.8
25877.2
22739.8
15931
10979.2
10516.1
5987.5
21568.2
19413.4
19504.9
19287.4
24757.9
23718.3
28618.3
24595.3
7633.59
5340.73
3977.18
2750.18
11108.4
7161.35
6160.4
3992
21960.6
23235.4
19675.8
15996.3
15888.6
12428.8
13473.6
12868.1
17994.3
17686.5
36682.1
40402.5
26250.3
27765.1
18982.1
14941.2
19357.2
13587.5
8223.94
7101.63
6156.27
9193.79
3063.55
4177.97
8159.79
12259.4
5131.45
7039.33
8316.9
14679.7
6348.45
10446.7
1981.57
7010.99
344.052
5015.38
18419.7
22179.1
19362.4
21974.1
23253.7
23663.1
23738.2
23116.8
17275
20888.2
17247
20586
19414.5
21816.9
19057.5
21675.4
23935.3
22798.1
23950.1
22617.1
16227.8
20925.2
14803
20831.7
17870
19163.1
22505.2
31564.9
18714.8
22132.8
22386.3
34518.1
16907.9
16970.6
22379.9
29955.3
16250.4
15581.9
22344.2
29166.5
4569.09
5783.04
12460.9
20363.4
5476.68
6143.9
15399.3
22827.2
6515.63
6791.1
18811.2
25698.5
25169.4
27887.1
21229.9
19446.4
26539.8
28410.9
24592.9
21235.5
17953.9
30066.2
26036.8
24005.4
20156.4
20737.6
39018.7
1639.34
2160.39
4421.33
9128.94
2322.36
3229.38
5856.69
10638.5
3494.55
3375.38
7841.08
12635.5
27712.5
27660.4
22999.6
22026.2
19398.5
17262.6
14160.5
12544.7
10979.4
16344.9
24507.8
22155.5
22632.3
21254.6
19103.9
17669.5
16461.6
14556.8
13055.3
17875.4
23256.8
24762.8
24067.5
26421.3
23453.8
21668.5
23790
22805.5
21028.6
21262.1
20737.4
20610
24473
27058.4
24280.1
26782.6
24089.3
23749.7
23799.5
23559.5
20826.8
21094.2
21080.2
21242.9
18056.3
17843.9
12406.3
14808.9
18218
17577.7
12779.1
15341
17551.9
17581.8
12248.7
14811.9
17702.3
17381.2
12126.1
14449.7
1859.22
1514.22
1116.54
1030.71
884.947
872.885
2787.83
1971.83
1538.38
2402.89
2145.66
1856.22
2957.62
2853.37
3028.54
4342.26
3771.15
3447.89
26358.2
23426.4
21394.1
21973.6
20573.8
19421.4
15023.4
14357.2
14002.7
10677.7
10100.1
9843.31
7063.69
5200.54
4236.03
20839.8
19177.6
17988.3
20821.2
19360.9
18507.3
15521.2
13774.1
12820.1
11193
9848.88
9239.11
7438.62
5476.3
4464.6
28590.4
29615.7
30439.7
27941.2
27935
27903.4
33341.3
28697.6
18234.9
20042.7
18180.4
17909.5
24198.9
21263.1
23680.1
18696.1
26120.1
27239.5
22342.2
25060.2
29260.9
25725.8
29067.4
30179
30800.4
33013.9
25015.3
25655
21719.9
21401.6
24828
23974.4
16743.9
9580.3
15668.2
10591.9
16252.3
9383.51
15089.7
10261.5
14851.2
8682.57
14009.3
9749.48
13763.8
10125.3
13218
10111.2
22772.7
17970.4
22309.2
18083.7
25460.5
22783.1
25527.1
22399.8
20576.9
14239
21384.3
13771.4
22728.6
18138.2
23332.4
18098.2
26126.7
22252.7
26565.3
22151.2
20017
14412.9
19868.5
14410.5
12252.7
8487.83
10818.5
6937.27
11318
7596.36
10126.8
6356
12530.6
8997.25
11122.5
7265.92
12604.3
9333.55
11200.9
7461.81
2714.08
1474.27
5088.01
2902.14
2803.7
1696.08
5155.82
3192.63
3046.63
2256.16
5103.36
3660.62
13595.1
22746
8824.54
7990.96
5732.84
23274.5
14974
8404.11
7468.09
4473.75
22448.9
16247.2
11903.8
8714.91
5427.74
1048.58
1008.53
2016.23
1877.4
1300.75
1017.96
2429.09
2207.72
1829.87
1599.75
2931.24
2632.03
23607.4
22517
15032.6
13685.8
9430.56
9009.97
7220.91
6870.12
4124.75
3729.19
20583.6
17640
14991.7
12856.4
11191.2
10134.8
7928.84
7558.33
5026.36
5558.09
14179.4
11175.7
14312.9
10531.5
18130
13395.9
18397
13166.6
11642.7
9325.12
11524.7
9954.57
14779.9
10036.9
14899.7
10144.8
19289.8
13511.2
19235.3
13609.7
11716.9
8752.9
11904.4
9110.23
8321.76
7558.71
5542.25
7312.02
8439.63
7924.95
5639.74
7214.33
8286.32
7342.37
5390.43
7630.12
8712.54
7407.27
5606.19
7545.25
2300.13
1834.39
1434.77
8530.12
4202.29
3221.96
2126.4
1977.77
1678.03
8952.57
4901.28
3948.7
2630.58
2774.33
2772.79
9444.07
6048.88
5289.34
20124.3
18111.2
16715.3
12774.2
11902.4
11341.6
9185.28
8738.85
8501.58
7982.31
7480.51
7259.18
10885.8
7906.25
7058.47
14927
13299.4
12230.7
11261.9
10183
9560.78
9821.08
8764.66
8034.79
9305.39
8229.65
7656.94
14053.8
9847.44
8948.52
5199.02
3115
2217.21
1954.72
5812.07
3350.57
2303.71
2006.23
5050.26
3069.52
2211.53
1977.5
5771.78
3360.11
2329.89
2025.19
4784.6
3006.16
2237.77
1957.56
5613.73
3391.84
2398.16
2003.64
5883.63
3526.63
2408.41
2105.51
6046.36
3671.41
2500.35
2178.93
5088.41
3182.35
2323.33
1988.78
4153.96
2814.09
2176.42
1867.34
4429.04
2890.31
2221.82
1835.38
3742.45
2620
2085.65
1779.22
5480.58
3397.2
2403.83
2081.23
4411.54
2967.39
2243.87
1923.04
5705.76
3551.87
2481.26
2127.68
4560.91
3082.43
2307.66
1948.3
3963.09
2719.61
2084.32
1847.5
2667.22
2251.64
1911.63
1703.2
3845.18
2679.61
2082.89
1847.82
2650.54
2246.31
1910.08
1711.88
3664.33
2619.64
2088.78
1839.15
2719.71
2277.38
1916.49
1742.41
3475.46
2526.81
2052.66
1831.06
2744.57
2285.79
1951.51
1747.43
3206.11
2429.61
1972.32
1712.74
1264.7
1811.06
1537.66
480.406
-359.747
1569.79
1354.86
458.515
1427.98
1872.72
1565.2
506.811
-114.427
1641.63
1377.06
466.516
1691.18
1965.84
1590.33
504.185
266.312
1757.47
1403.51
468.868
2060.47
2082.34
1630.94
536.815
711.668
1900.81
1448.51
486.129
2581.37
2239.9
1703.44
600.115
1168.1
2038.06
1492.83
500.263
2937.93
2427.57
1748.75
563.261
1097.65
2196.12
1587.07
520.98
2884.97
2344.37
1710.29
565.595
1154.37
2135.4
1536.09
507.657
2921.33
2489.07
1783.19
531.036
993.148
2251.5
1625.41
521.67
2907.71
2566.85
1851.44
546.533
1143.1
2330.88
1679.07
535.548
1775.37
1326.01
905.42
523.938
171.198
1781.54
1327.97
906.612
524.569
171.392
1807.19
1337.09
910.447
526.192
171.843
1808.75
1340.91
913.04
527.555
172.262
1826.03
1348.97
916.034
528.704
172.563
1817.22
1359.12
922.755
532.194
173.635
1880.04
1384.24
936.598
539.081
175.715
1913.69
1407.75
950.477
546.119
177.852
1876.42
1374.01
928.843
534.862
174.401
1923.61
1380.95
930.081
535.118
174.442
1841.39
1361.86
921.947
531.382
173.335
1909.16
1373.37
925.877
533.007
173.794
1901.86
1388.19
937.181
539.115
175.7
1946.36
1394.8
938.156
539.234
175.702
1924.94
1412.77
952.213
546.793
178.04
1973.16
1418.6
952.77
546.738
178
1769.21
1324.33
904.179
523.257
170.986
1791.56
1324.72
903.514
522.85
170.859
1790.17
1333.22
908.018
524.914
171.45
1810.9
1332.75
906.905
524.296
171.263
1821.64
1345.12
913.016
527.074
172.055
1850.73
1344.28
911.564
526.288
171.818
1868.22
1358.31
918.579
529.54
172.754
1891.77
1355.35
916.567
528.53
172.444
1896.36
1366.8
922.538
531.378
173.294
8849.33
13711.5
9312.66
14072.4
10081.9
14661.5
11000.6
15716.4
12002.7
17535.1
11007.6
13579.7
11335.1
14601.6
10932.7
13389.7
10795.8
13340.3
7112.29
1274.46
280.648
63.1389
11.1378
8465.98
2340.02
570.31
129.481
22.6415
7271.31
1256.92
271.696
60.5687
10.6241
8630.66
2351.1
565.669
126.77
22.0907
7560.35
1258.38
265.255
58.3569
10.1679
8950.52
2385.68
563.653
124.832
21.599
7906.58
1254.11
257.729
56.1512
9.75494
9361.82
2428.87
565.018
124.226
21.431
8185.12
1247.44
254.689
55.7719
9.74953
9730.3
2463.56
572.262
126.491
21.9459
7911.16
1433.07
324.713
75.5587
13.6805
8903.6
2543.43
638.247
149.209
26.8758
8067.1
1361.55
293.951
66.3147
11.7854
9256.33
2519.89
608.246
137.946
24.3457
7826.19
1479.93
344.997
81.9237
15.0297
8787.1
2558.08
655.661
156.278
28.5607
7768.8
1457.32
341.194
81.6842
15.0855
8721.84
2535.31
654.298
157.178
28.8847
35865.3
49960.9
44715.8
33721.1
18849.3
19790.5
30030.8
30122
20271.1
21650.3
32311.8
43050.1
47764.7
64848.9
24350.9
26746.8
19678.9
19189.7
13644.6
14026.8
4130.16
2919.37
762.213
594.525
714.711
610.726
747.299
4109.56
4179.51
2673.79
3564.94
3211.55
1497.97
2109.16
1831.25
1237.56
1405.11
1169.63
3578.24
2100.47
1335.92
1227.53
1511.12
1305.68
1018.67
1022.58
956.46
857.951
1109.94
1040.16
3678.72
2355.92
2504.43
1743.96
1462.74
2050.71
1050.5
837.256
1168.23
8701.6
9061.85
9306.38
11447.8
19843.6
6558.39
7496.01
8175.97
9600.9
11253.6
2007.09
2872.02
3534.61
3990.63
4226.68
1575.68
2276.17
2821.55
3196.23
3388.05
1888.85
2716
3351.04
3781.79
4000.51
1618.57
2337.53
2895.61
3276.92
3471.09
1970.99
2826.36
3481.45
3928.09
4156.71
9070.46
9761.81
9696.32
10979.2
17894.1
8925.24
9301.75
9255.45
10028.2
12012.3
6177.75
7243.39
7760.34
8514.89
9339.51
7752.3
8315.85
8330.95
8693.17
9562.22
7081.98
7765.75
7792.33
8046.17
8590.18
3742
4954.89
5743.44
6292.88
6617.65
5021.9
6186.28
6818.55
7357.31
7787.4
4445.28
5624.22
6283.2
6746.66
7044.99
3162.1
4325.42
5127.41
5659.58
5942.17
3534.72
4723.62
5498.54
6011.86
6293.81
3006.76
4148.1
4944.69
5465.96
5734.75
8086.63
9020.03
9225
10714.5
17604.7
5061.02
6323.85
7095.37
7907.17
8607.42
3392.92
4602.79
5437.27
6022.26
6356.37
3145.25
4323.01
5160.93
5750.54
6081.3
3789.43
5044.53
5899.51
6563.41
6992.62
3334.22
4556.94
5428.05
6069.05
6439.89
2646.65
3712.94
4506.54
5066.8
5369.13
2658.68
3733.15
4526.89
5074.01
5364.16
2498.46
3529.98
4290.21
4795.72
5052.39
2252.57
3207.38
3925.05
4407.97
4653.91
2867.7
3987.94
4790.85
5329.38
5611.73
2701.5
3786.62
4580.64
5119.76
5402.81
8050.08
8730.55
9012.82
10856.2
18251.5
5512.22
6666.94
7467.37
8596.1
9734.47
6268.59
7688.65
8277.37
9611.77
11068.8
4332.89
5658.63
6567.03
7422.96
8007.16
3704.27
4988.09
5889.63
6607.6
7041.15
5033.14
6348.24
7135.52
8046.46
8661.27
2725.64
3815.85
4620.98
5184.35
5487.67
2198.31
3131.27
3836.33
4315.97
4562.81
3007.76
4162.94
4997.41
5585.05
5909.43
19245.8
12536.3
20396
15401.6
24634.1
34887.2
26274.3
36369.1
21318
20867.3
18830.1
19530.8
22481
22321.7
27632.3
23686.1
14790.8
12984.4
6617.99
5233.45
17244.8
13742.1
9174.64
6138.62
22207.7
24450
20357.2
18131
21221.9
14182.9
13336.9
12875.6
18054.6
17705.4
36606
40428.3
25850.9
27666.1
19438.6
15067.2
19893.3
13695.8
8660.2
7184.95
13644.6
16335.9
5523.3
6678.11
14627.5
18266.2
7431.99
9376.22
12772
18560.9
7985.79
12245.9
2256.86
7649.3
363.529
5139.92
18882.6
20748.9
19156.4
21204.2
21790.9
21689.3
22808.4
22032.9
17792.5
20565.6
19074.5
19981.1
19263.6
21423.1
19002.8
21547
23466.4
22246.2
23817.4
22439.6
16376.5
20752.2
14821.9
20772.6
18436.8
20223.6
22621.1
31887.9
19686.7
24124.7
22639.1
35210.5
17166
17452.3
22419
30094.1
16317.8
15711.2
22350.6
29205.5
18228.8
20800.6
23982.3
33825
17396.2
18793.6
24756.9
33571.2
15190.4
15699.6
24932.8
32209.1
19075.8
20970.4
19512.8
19982.7
29419.7
20571.1
17995.2
20555.5
18519.4
33503.8
20793.9
19823.5
18422.2
21159.2
40345.7
13137.9
12601.7
10918.8
13672.1
12793.3
12398.8
11147.5
14167.2
11765.4
10736.4
11022.6
14257.1
20159.4
19591.7
17476.3
16704.8
18705.4
17216.8
14803.2
13192.1
12229.2
16257
20040.9
18768.6
19129.1
18667.3
17487.6
16323.6
16476.8
14250.2
13170.9
16816.4
21355.2
23014.3
22986.5
25338.4
21257.1
20004.1
22593.3
21857.7
20368.5
20528
19624.9
19452
23954
26560.9
24124.7
26634.9
23523.5
23329.7
23632.2
23435.5
20492.5
20722
20978.6
21134.4
17769.3
17424.8
12327.4
14585.1
17855.6
16985
12756.5
14990.6
17385.1
17347.6
12183.4
14676.5
17645.3
17306.1
12099.7
14402
12207.4
13204.9
4704.35
4830.26
11892.2
11996.2
5399.04
5618.23
9603.39
9357.49
5894.33
5733.85
19073
18115.7
17174
16956.2
15382
14889.5
11316.6
10395.4
7445.94
5783.62
18614.9
17815.7
19384.9
18421.9
14777.4
13479.6
11085.4
9919.12
6758.95
5246.82
23901.2
23863.8
28207.7
25254.1
25322.6
24461.9
33129.8
27213.8
19488.2
15312.6
20860.5
16410
20369.2
15358.4
21729
16374.6
22559.8
20866
19806
19223.5
21065.6
22361.9
27751.1
29784.6
30006.7
32773
23323.8
25125.8
20599.2
21084.4
23064.2
23449.6
12848.5
10308.4
13860
10690.9
12498.2
10029.3
13508.3
10368.6
11862.7
9239.98
12745.6
9762.47
13026.4
10057
12997.6
10077.3
18744.9
16714.9
20406.2
17219.2
22253.3
20600.8
23959.3
21164.4
18653.3
13872.3
17395.6
13517.9
21798.4
17649.2
23054.4
17934.8
25349
21610.9
26335.8
21943.2
19098.7
14157.6
19603.6
14317.2
11777.4
8784.16
10947.4
7361.12
11074.1
8495.33
10704.8
7264.67
12194.2
9079.86
11126.6
7463.98
12485.3
9341.47
11198
7533.83
11217
11676.2
9565.47
9224.12
10708.3
11305.3
9221.57
8887.16
10024.5
10475.1
8375.06
7976.21
16610.7
20695.8
14651.5
10344.6
8082.1
20149
17721
16176.6
10526.6
7636.12
20148.8
16564.6
13438.7
10797.9
7277.18
13361.3
15983.2
9860.72
11281.7
12578.1
14462.5
9248.01
10394.6
11187.7
12244.6
7867.64
8210.23
19507.1
18182.2
15951.5
14948.8
14723.8
15223.3
10853.3
11619.8
7500.98
7594.37
18152.8
15611.6
14934.6
12928.7
12717.7
11919.2
10275.4
10248.7
6922.47
7793.96
13819.2
11265.9
14076.7
10649
16734.5
12622.8
17609
12809
11858.1
9779.29
11997.2
10776.1
14615.6
10085.4
14840.2
10154
18885.8
13349
19111.3
13562.3
11758.5
8927.22
11886.7
9145.17
8759.04
8180.06
6042.46
8131.52
9402.8
9153.23
6677.07
8749.14
8448.56
7603.76
5618.24
8049.19
8768.76
7491.97
5699.77
7680.23
20923
22002.4
25832.5
21532.8
18166
19136.7
24203.1
20288.7
14796.1
15527.4
20914.2
17853.7
16931.8
16027.8
14728.5
14475.3
15920.9
16130.6
13579.6
13251.6
19756.2
17231.1
13385.2
12894
11816.8
11793.4
12176.5
12070.6
12937
12504.7
20856.6
17382.2
6598.96
4072.09
2799.06
2382.87
6794.73
4154.83
2833.67
2409.2
6327.72
3962.95
2742.39
2373.53
6612.77
4064.45
2789.08
2378.8
5876.19
3800.71
2695.85
2290.75
6239.85
3957.43
2783.13
2291.85
6243.05
3884.15
2682.23
2315.27
6163.03
3794.37
2591.4
2252.3
5661.69
3640.63
2629.71
2229.72
4664.82
3212.92
2427.06
2063.93
5391.2
3558.66
2619.59
2122.15
4580.34
3222.63
2429.28
2021.69
5783.11
3662.18
2589.95
2233.68
4688.11
3192.71
2402.1
2058.6
5795.8
3640.88
2547.84
2182.4
4651.68
3156.21
2363.29
1994.96
6181.6
3904.52
2743.07
2302.18
5515.41
3645.31
2648.97
2170.6
5866.74
3802.81
2702.08
2276.8
5211.68
3562.61
2613.42
2164.04
5405.3
3644.96
2652.93
2228.11
4793.64
3435.57
2547.25
2157.73
4926.35
3410.01
2525.99
2149.7
4488.99
3310.32
2493.55
2095.41
4444.63
3215.97
2403.56
1971.85
4351.27
3305.62
2232.71
647.069
2287.68
3079.35
2057.44
644.74
4164.88
3269.38
2227.31
671.899
2253.05
3049.61
2046.78
646.345
3890.45
3190.34
2178.46
649.028
2170.45
2990.74
2005.48
631.364
3861.17
3124.03
2161.46
677.228
2306.98
2938.92
1974.21
631.59
3892.89
3049.62
2149.01
730.369
2425.79
2860.12
1927.37
625.181
3384.74
2816.4
2053.08
674.918
1367.89
2570.97
1835.43
600.784
3692.44
2937.14
2098.93
690.662
1754.95
2715.27
1876.84
610.115
3135.43
2705.33
1976.02
605.765
1082.08
2456.95
1775.24
571.618
2961.03
2635.07
1916.29
572.096
1157.97
2394.71
1728.21
552.207
2105.4
1521.22
1012.91
576.88
187.062
2090.07
1515.73
1011.01
576.146
186.86
2122.09
1518.54
1009.69
574.985
186.458
2087.62
1509.05
1006.13
573.491
186.035
2117.07
1514.18
1005.85
572.797
185.766
2043.65
1494.67
997.686
569.172
184.725
2026.44
1468.85
983.7
562.421
182.725
1968.68
1440.8
969.021
555.34
180.627
2076.27
1492.04
993.921
566.964
184.029
2124.74
1498.93
994.854
567.037
184.013
2100.02
1508.28
1001.43
570.408
185.023
2162.01
1509.31
999.412
569.114
184.61
2036.96
1473.03
984.684
562.658
182.772
2077.51
1479.59
985.826
562.872
182.803
1970.38
1441.5
968.489
554.901
180.484
2017.61
1448.47
969.845
555.261
180.572
2129.4
1528.9
1015.25
577.73
187.291
2188.11
1536.09
1016.82
578.247
187.427
2140.83
1528.31
1013.19
576.393
186.851
2198.99
1535.89
1015.12
577.11
187.052
2158.28
1526.77
1010.16
574.545
186.253
2223.75
1534.77
1012.35
575.406
186.498
2185.37
1522.46
1006.07
572.302
185.546
2241.15
1528.44
1008.19
573.236
185.811
2187.36
1516.16
1002.6
570.592
185.032
11141.2
14919.5
11105.7
14892.2
11146.4
14894.4
11532.8
15510.6
12053.7
16856.9
10959.2
13436.7
11307.5
14343.1
10892.2
13305
10782.1
13313.7
8005.18
1388.56
299.868
66.6857
11.6844
9262.96
2525.72
608.19
136.76
23.7613
8003.33
1349.98
287.511
63.5235
11.0832
9249.21
2501.95
597.156
132.892
23.0436
8033.56
1319.51
276.02
60.44
10.4991
9291.98
2481.75
585.111
129.19
22.2946
8133.19
1283.37
263.306
57.3184
9.94989
9447.09
2469.98
576.057
126.704
21.8494
8217.11
1252.68
256.254
56.1977
9.8303
9622.27
2464.83
575.336
127.448
22.1305
7869.78
1425.66
323.391
75.3449
13.6535
8832.98
2527.76
635.356
148.741
26.8165
8035.47
1356.52
293.412
66.3102
11.797
9159.31
2505.7
606.796
137.912
24.3696
7795.06
1474.09
343.822
81.7007
14.9968
8742.2
2546.83
653.25
155.821
28.4929
7757.78
1455.2
340.748
81.5944
15.0716
8706.96
2531.44
653.418
157
28.8573
35435.3
49849.8
44474.6
32443.3
24260.9
28836.4
24076.6
28859.6
27077.7
42137.6
29209.6
45852.3
175.156
190.779
225.614
281.495
359.68
461.848
188.322
203.862
238.27
292.754
368.731
468.347
164.444
159.099
180.282
174.869
216.077
210.809
275.299
272.032
358.739
361.553
469.838
485.037
588.894
756.834
995.571
1360.65
1723.48
2016.46
595.173
756.476
960.134
1201.08
1425.47
1575.71
468.961
687.899
864.203
987.606
1051.11
510.569
748.456
939.727
1073.42
1142.16
603.37
883.519
1108.13
1264.77
1345.19
751.982
1099.25
1376.51
1569.26
1668.05
959.255
1398.73
1747.59
1989.23
2112.89
1228.66
1784.94
2223.16
2525.63
2680.4
504.054
739.063
928.148
1060.39
1128.41
545.39
799.103
1002.88
1145.19
1218.31
636.93
932.058
1168.36
1333.01
1417.49
781.608
1141.62
1428.61
1627.98
1730.16
982.676
1431.42
1787.08
2033.42
2159.59
1244.83
1806.24
2247.92
2553.14
2709.7
440.325
646.043
811.835
927.949
987.721
426.018
625.105
785.625
898.081
955.971
482.56
707.62
888.745
1015.43
1080.59
468.093
686.496
862.355
985.407
1048.7
578
846.706
1062.37
1212.87
1290.16
563.958
826.291
1036.97
1184.06
1259.6
735.625
1075.79
1347.64
1536.7
1633.59
726.973
1063.35
1332.31
1519.42
1615.29
956.966
1395.86
1744.42
1985.77
2109.18
964.485
1406.85
1758.1
2001.19
2125.42
1250.07
1816.27
2262.06
2569.24
2726.1
1290.25
1873.93
2332.71
2648.14
2808.87
1560.51
2254.15
2795.07
3167.91
3359.48
1992.24
2850.66
3510.83
3968.53
4207.48
2588.83
3640.99
4434.29
5000.56
5310.44
3459.3
4711.91
5631.93
6356.37
6802.8
4258.69
5590.48
6562.74
7452.69
8109.05
4871.96
6209.21
7190.88
8228.75
9087.03
1575.6
2273.1
2816.73
3192.58
3386.59
1990.48
2847.32
3507.49
3967.11
4208.31
2503.72
3537.25
4323.03
4881.45
5184.93
3093.91
4298.78
5203.11
5873.89
6261.33
3624.44
4951.23
5940.91
6718.29
7202.81
3970.51
5361.82
6399.54
7253.9
7815.16
177.88
199.083
240.106
303.07
389.292
500.291
191.115
212.348
252.888
314.067
397.183
503.906
167.089
161.696
188.43
182.899
230.481
225.085
297.244
294.057
389.668
392.948
512.285
530.76
635.429
808.806
1047.04
1400.16
1746.54
2023.38
636.641
801.021
1002.92
1235.77
1447.59
1583.19
476.262
698.664
877.831
1003.28
1067.85
532.918
781.521
981.636
1121.67
1193.72
642.41
941.371
1181.59
1349.46
1435.77
810.203
1185.78
1486.72
1696.64
1804.48
1039.38
1518.35
1900.66
2166.81
2303.5
1333.11
1941.86
2425.25
2761.32
2934.12
511.555
750.152
942.208
1076.58
1145.71
568.251
832.972
1045.87
1194.74
1271.29
676.339
990.536
1242.72
1418.83
1509.34
839.159
1227.25
1537.8
1754.31
1865.53
1059.69
1546.48
1934.42
2204.47
2343.25
1341.44
1951.4
2434.91
2771.27
2944.54
447.423
656.51
825.074
943.161
1003.96
432.988
635.379
798.61
912.994
971.882
504.472
740
929.741
1062.58
1130.95
489.679
718.375
902.692
1031.78
1098.21
616.776
904.111
1135.19
1296.76
1379.84
602.377
883.138
1109.05
1267.05
1348.29
794.825
1163.74
1459.6
1666.06
1772.12
786.381
1151.59
1444.63
1649.16
1754.22
1040.69
1520.92
1904.54
2171.62
2308.72
1049.55
1534.09
1921.26
2190.8
2329.12
1365.52
1990.01
2486.18
2830.99
3008.1
1414.87
2062.11
2576.31
2933.44
3116.76
1687.72
2447.1
3045.92
3462.7
3678.2
2135.84
3072
3802.99
4316.08
4585.84
2734.12
3871.6
4746.75
5380.14
5728.64
3576.56
4909.06
5911.34
6708.84
7199.91
4332.36
5722.58
6757.62
7708.16
8406.07
4895.99
6254.97
7260.7
8323.7
9200.47
1688.86
2444.74
3039.7
3454.45
3669.64
2113.17
3035.59
3755.06
4260.76
4527.49
2623.14
3724.01
4572.93
5182.13
5514.46
3192.75
4457.55
5420.54
6140.61
6557.1
3689
5057.79
6089.99
6904.71
7412.35
3992.75
5399.23
6452.64
7321.25
7891.64
4116.72
2921.46
825.4
647.859
794.109
675.401
821.468
3868.7
3760.29
2634.31
3129.52
1572.67
2093.16
1339.64
1508.27
1269.69
3488.7
2139.54
1424.61
1316.34
1587.49
1381.07
1085.48
1106.89
1072.35
961.738
1211.23
1135.51
3644.03
2372.81
2503.03
1786.53
1523.8
2089.85
1126.77
922.918
1252.51
8701.95
9107.77
9398.98
11626.6
20201.1
6579
7550.28
8268.26
9742.34
11438.4
2182.26
3143.44
3894.66
4420.58
4695.67
1721.62
2498.01
3110.63
3536.62
3756.45
2108.06
3053.79
3797.18
4312.96
4579.14
1795.71
2607.19
3247.66
3692.24
3921.17
2176.45
3144.37
3902.95
4431.1
4705.25
8910.76
10237.1
10853.8
12995
21585.1
8723.03
10137.4
11014.5
12951
16445.1
6326.49
7882.47
8952.74
10301.7
11610.6
7718.61
9481.77
10403.1
11881.7
13913.7
4036.83
5571.01
6713.07
7587.12
8123.93
5213.39
6860.19
8022.4
9082.1
9896.54
3488.91
4918.42
6004.87
6788.52
7226.55
3894.51
5421.85
6566.48
7416.5
7915.82
3321.41
4711.98
5775.24
6530.63
6942.07
8068.98
9363.15
9981.57
11993.6
19963.7
5267.3
6817.78
7923.69
9076.04
10025.4
3682.67
5137.61
6236.71
7058.62
7540.99
3416.83
4795.65
5845.21
6620.6
7064.92
4046.27
5530.51
6638.69
7537.63
8119.76
3564.44
4957.08
6007.9
6808.48
7277.15
2837.89
4022
4931.5
5588.52
5947.11
2901.67
4129.48
5075.61
5750.35
6115.08
2827.36
4056.35
5009.12
5674.8
6025.17
2542.16
3660.46
4532.15
5139.66
5456.89
3171.83
4507.23
5532.36
6261.7
6658.17
2979.31
4245.63
5221.94
5914.73
6288.14
8068.64
8898.42
9328.92
11396.4
19317.7
5589.84
6836.42
7739.05
8981.47
10211.9
6373.92
8016.47
8854.56
10487.9
12190
4475.4
5925.17
6970.62
7959.72
8627.98
3895.44
5327.2
6387.62
7250.92
7774.09
5213.05
6746.68
7783.32
8953.43
9740.3
2945.97
4176.15
5120.9
5801.83
6174.1
2437.96
3507.37
4341.07
4924.27
5229.98
3258.97
4588.68
5603.51
6347.24
6765.5
8657.68
8074.67
7151.28
5964.89
4354.22
1704.54
19295.6
20533.5
21976.9
22631.8
20806.5
21050.7
21156.1
21689.4
16842.9
19354.9
19068
19322.7
25410.3
17632.9
27598.4
18180.1
19482.4
20645.2
20894.3
20001.8
21207.8
20229.9
21372.2
17381.9
25630.1
19585.3
24931.8
26320.9
21474.2
31868.6
16932.8
18055
18784.1
18661.7
18870.2
20582.9
18862.5
20644.5
19618.8
24760.3
22016.6
24400
27474.3
24090.9
30624.8
15715.1
16752.9
17006
16673.2
17863.4
20137.5
17467.5
19822.6
17829.3
22787.6
19866.8
21656.9
24179.8
21263.7
27537.4
14512.3
15572.5
15609.9
15220.1
16958.5
19635.5
16105.1
18365.4
15795.6
18533.8
17853.7
17338.9
21084.3
17995.7
22150.9
13366.6
14399.1
14497.5
14100.1
15542.6
17711.6
14992.8
16927.4
13622.8
14933.8
15583
14479.8
18524.2
15160.5
19301.9
22222.4
22349.8
23104.1
24133
22933.5
23598
22147.3
22947.6
19119
12284.1
20270.2
12115.7
20383.4
16822.9
17405.9
21233.9
21671.2
21468.3
21988.6
22277.3
23034.8
20953.5
21925.4
17000.1
12271.3
17783.6
11980.4
17636.2
15845.2
16132.6
18628.3
19090.7
19190.3
19250.1
19846.7
20491.9
19177
20496.5
15671.4
12933.7
16572.3
12329
17075.8
14322.2
16652
16109.3
16720
17058
16832.5
17684.8
18350.3
17573.1
19008.2
13787.2
13846
14748.1
13016.2
15379
12962.5
17386.1
14429.6
15175
15496.5
15188
16277.4
17489.5
16036.6
17357
12789.2
15122.7
14141
14990.2
15447.5
14158.6
19548.7
12963
13803.9
14307.1
13961.7
15383.4
17054.8
14862.7
16408.3
12415.6
16224.8
14199.3
16848
16087.1
14858.9
21619.9
12695.5
6844.24
22587.8
14762
21766.3
18501.7
32070.2
39746.3
48830.2
61842
25883.2
22729.8
15937.2
10958.1
10160.7
5657.95
21563.4
19410.6
19499.4
19285
24754.2
23716.1
28613.5
24593.1
7457
5248.96
3852.73
2694.25
11100
7154.67
6161.09
3996.48
21955.5
23229.2
19673
15994.2
15885
12429.7
13471.9
12867.5
17993.1
17685.8
36680.1
40401.4
26248.9
27764.1
18981.7
14941.4
19356.7
13587.3
8223.9
7101.63
6049.8
9016.31
2995.6
4067.53
8164.1
12270.3
5141.09
7052.54
8319.49
14685
6352.24
10451.5
1982.11
7012.74
344.05
5015.96
18418.4
22178.3
19361.4
21973.5
23252.3
23662.2
23737
23116.1
17274.8
20888
17246.1
20585.6
19413.8
21816.5
19057
21675.1
23934.4
22797.5
23949.4
22616.6
16227.6
20925.1
14802.8
20831.7
17870.6
19165.1
22505.7
31565.9
18715.3
22135.4
22387
34519.6
16908.3
16971.8
22380.3
29956.1
16250.8
15582.8
22344.5
29167.1
4511.37
5738.92
12285.6
20207.3
5485.95
6154.08
15414.1
22846.5
6519.44
6794.94
18817.7
25704.4
25168.2
27886.2
21228.3
19446.9
26542.8
28409.9
24591.7
21233.5
17954.4
30069.2
26036
24004.6
20155.9
20738.4
39020.6
1613.86
2129.71
4366.3
9053.56
2331.88
3234.78
5868.76
10649.8
3497.92
3377.86
7846.21
12640
27711.7
27659.7
22998.7
22025.5
19397.3
17261.8
14161.4
12545.4
10981.9
16347.1
24507.2
22155
22631.7
21254.2
19103.6
17669.4
16462.3
14557.3
13056.5
17876.3
23256.3
24762.5
24067.2
26421
23453.3
21668.2
23789.6
22805.3
21028.6
21262
20737.2
20609.9
24472.8
27058.2
24279.8
26782.5
24088.9
23749.5
23799.2
23559.3
20826.8
21094.2
21080.1
21242.8
18056.5
17844
12406.6
14809.2
18218.3
17577.9
12779.7
15341.4
17552
17581.9
12248.9
14812.1
17702.4
17381.2
12126.2
14449.8
1822.95
1485.99
1097.48
1018.34
875.609
866.025
2790.2
1973.64
1540.82
2407.91
2149.92
1860.34
2958.92
2854.44
3029.59
4344.21
3772.77
3449.62
26357.7
23426
21393.8
21973.2
20573.5
19421.2
15023
14357
14002.7
10678.1
10100.4
9843.75
7064.67
5201.29
4236.77
20839.5
19177.4
17988.1
20821
19360.8
18507.2
15521.2
13774.1
12820.1
11193.4
9849.15
9239.41
7439.04
5476.64
4464.94
28594.8
29617.8
30443.6
27942.8
27932.7
27902.5
33338.1
28696.6
18091
20008.1
18000.1
17866.2
24221.4
21256.8
23707
18689.4
26125.7
27245.9
22344.6
25062.8
29260.7
25725.6
29067.9
30178.9
30799.6
33013.1
25017.2
25655.5
21720.7
21401.7
24828.7
23974.9
16726.9
9560.31
15647.9
10575.4
16249.3
9384.29
15087
10261.5
14850.3
8682.56
14008.6
9749.33
13763.9
10125.3
13218.4
10111.3
22773.5
17970.4
22309.7
18083.6
25460.1
22782.6
25526.6
22399.4
20577.5
14239.1
21384.8
13771.6
22728.7
18138.1
23332.2
18098
26126.2
22252.4
26564.6
22150.8
20017.3
14412.9
19868.6
14410.5
12253.1
8487.88
10818.7
6937.35
11318.5
7596.45
10127
6356.1
12530.9
8997.33
11122.6
7265.99
12604.5
9333.71
11201
7461.89
2701.24
1460.4
5072.95
2883.9
2806.3
1698.57
5157.08
3194.1
3047.52
2256.96
5103.75
3661.18
13595
22745.4
8824.68
7991.34
5733.09
23273.8
14973.7
8403.91
7468.24
4474.12
22448.3
16247
11903.8
8715.1
5427.89
1030.7
989.565
1992.9
1864.92
1301.95
1018.58
2430.31
2208.12
1830.46
1600.15
2931.78
2632.24
23606.8
22516.3
15032.1
13685.2
9430
9009.13
7220.81
6869.83
4125.06
3729.32
20583.1
17639.5
14991.4
12856.1
11191.1
10134.6
7928.94
7558.31
5026.51
5558.1
14179.3
11175.5
14312.7
10531.4
18129.6
13395.7
18396.7
13166.4
11642.7
9325.08
11524.6
9954.5
14779.8
10036.8
14899.5
10144.7
19289.6
13511.1
19235.1
13609.5
11716.8
8752.86
11904.3
9110.18
8321.82
7558.72
5542.3
7312.07
8439.71
7924.98
5639.83
7214.43
8286.35
7342.37
5390.46
7630.15
8712.55
7407.25
5606.21
7545.27
2268.15
1807.06
1412.99
8480.1
4166.12
3189.74
2125.55
1977.57
1678.6
8958.89
4906.64
3953.34
2631
2774.67
2773.06
9446.37
6050.96
5291.33
20123.7
18110.6
16714.8
12773.4
11901.6
11341
9184.23
8737.93
8500.85
7981.95
7480.09
7258.81
10887
7907.43
7059.7
14926.6
13299.1
12230.4
11261.5
10182.7
9560.49
9820.84
8764.42
8034.59
9305.4
8229.61
7656.93
14054.4
9848.14
8949.36
5198.4
3116.22
2217.52
1954.03
5810.11
3350.92
2303.7
2004.83
5048.8
3069.21
2211.43
1977.35
5770.81
3360.08
2329.92
2025.15
4784.01
3006
2237.71
1957.48
5613.28
3391.76
2398.15
2003.59
5883.43
3526.6
2408.41
2105.49
6046.35
3671.43
2500.38
2178.94
5088.26
3182.32
2323.33
1988.76
4153.95
2814.11
2176.44
1867.33
4428.85
2890.27
2221.8
1835.35
3742.43
2620.02
2085.66
1779.21
5480.52
3397.2
2403.84
2081.22
4411.55
2967.41
2243.9
1923.04
5705.79
3551.9
2481.3
2127.69
4560.95
3082.47
2307.7
1948.32
3962.3
2720.82
2084.91
1847.18
2663.02
2251.19
1911.89
1702.53
3843.77
2679.3
2082.76
1847.66
2649.69
2246.28
1909.95
1711.81
3663.82
2619.52
2088.72
1839.08
2719.59
2277.45
1916.49
1742.39
3475.37
2526.82
2052.66
1831.04
2744.63
2285.88
1951.55
1747.43
3206.15
2429.66
1972.35
1712.74
1259.66
1810.63
1538.34
480.623
-364.481
1568.27
1354.6
458.386
1429.02
1873.44
1565.43
506.993
-112.692
1642.44
1377.44
466.651
1691.67
1966.18
1590.47
504.265
267.172
1757.92
1403.73
468.945
2060.75
2082.52
1631.02
536.855
712.146
1901.06
1448.64
486.171
2581.52
2240
1703.49
600.138
1168.35
2038.19
1492.9
500.286
2937.95
2427.6
1748.77
563.265
1097.67
2196.16
1587.09
520.988
2885.03
2344.42
1710.31
565.603
1154.45
2135.47
1536.13
507.67
2921.35
2489.1
1783.21
531.04
993.15
2251.53
1625.43
521.678
2907.73
2566.89
1851.47
546.543
1143.1
2330.92
1679.11
535.559
1774.11
1325.42
905.148
523.817
171.162
1779.76
1327.26
906.282
524.417
171.347
1807.09
1337.04
910.425
526.184
171.841
1808.71
1340.87
913.026
527.554
172.264
1825.97
1348.94
916.02
528.701
172.563
1817.18
1359.09
922.743
532.193
173.637
1880.02
1384.22
936.587
539.079
175.715
1913.67
1407.74
950.468
546.116
177.852
1876.39
1373.99
928.831
534.858
174.401
1923.58
1380.93
930.068
535.114
174.442
1841.35
1361.83
921.934
531.379
173.335
1909.12
1373.34
925.864
533.002
173.793
1901.84
1388.17
937.171
539.111
175.7
1946.34
1394.78
938.145
539.23
175.702
1924.94
1412.75
952.205
546.79
178.04
1973.16
1418.59
952.762
546.735
178
1768.25
1323.82
903.953
523.157
170.957
1790.66
1324.25
903.308
522.765
170.838
1790.08
1333.16
907.991
524.905
171.449
1810.84
1332.69
906.871
524.286
171.265
1821.57
1345.08
912.998
527.07
172.056
1850.66
1344.24
911.542
526.283
171.82
1868.16
1358.28
918.564
529.535
172.754
1891.71
1355.32
916.549
528.526
172.444
1896.32
1366.77
922.524
531.374
173.293
8815.78
13673.1
9313.64
14075.1
10082.9
14662.9
11001.3
15717.2
12003.2
17535.6
11007.8
13579.9
11335.4
14602
10932.8
13389.9
10796
13340.4
7101.72
1268.34
279.153
62.8028
11.0794
8452.53
2335.55
569.194
129.223
22.5968
7269.04
1254.81
270.994
60.3817
10.5883
8628.64
2348.8
564.77
126.511
22.0387
7559.2
1257.64
264.962
58.2684
10.1497
8949.74
2384.58
563.16
124.676
21.566
7906.13
1253.84
257.606
56.1095
9.74577
9361.56
2428.39
564.777
124.142
21.4124
8185
1247.35
254.639
55.7533
9.74518
9730.28