/*--------------------------------*- C++ -*----------------------------------*\
| =========                 |                                                 |
| \\      /  F ield         | OpenFOAM: The Open Source CFD Toolbox           |
|  \\    /   O peration     | Version:  2412                                  |
|   \\  /    A nd           | Website:  www.openfoam.com                      |
|    \\/     M anipulation  |                                                 |
\*---------------------------------------------------------------------------*/
FoamFile
{
    version     2.0;
    format      ascii;
    arch        "LSB;label=32;scalar=64";
    class       volScalarField;
    location    "2";
    object      gradTx;
}
// * * * * * * * * * * * * * * * * * * * * * * * * * * * * * * * * * * * * * //

dimensions      [0 -1 0 1 0 0 0];

internalField   nonuniform List<scalar> 
5712
(
-8004.56
-9782.79
-18287.1
-28574.8
-27627.5
-53910.3
-19090.4
-57457.1
-19695.6
-46074.7
-24221.5
-39834.2
-18529.7
-24510.6
-9967.9
-10119.7
-13024.9
-14752.1
-17851.1
-16183.3
-12395.9
-18656.4
-18490.8
-18505.1
-5248.05
-3810.5
-7115.26
-5095.07
-11908.1
-7741.17
-22018.2
-15365.7
-18326.3
-18587.7
-18623.6
-18859.4
-4305.61
-3836.88
-42634.5
-52719.2
-22684.7
-30271
-54937.4
-67609.3
-25439
-31306.3
-31946.8
-41762.9
-25466.7
-35264.8
-14647.2
-18539.4
-3002.44
-951.491
-3900.63
-1352.4
-6718.99
-2764.31
-11636
-4272.61
-7649.86
-2540.33
-7710.83
-2184.47
-15153
-4414.95
-19858.2
-6228.57
-25555.5
-14615.4
-21609.1
-14924.8
-26153.1
-16847.7
-20750.6
-16771.4
-16766.2
-12089.6
-18402.7
-11642.2
-20996.2
-15477
-21702.5
-15885
-20342.8
-17157.4
-21141
-17505.3
-17308.4
-12814.6
-18661.6
-13296.9
-18477
-7589.99
-10545.2
-12040.3
-19876.8
-8756.37
-10457.8
-12598
-18532.3
-7081.41
-11048.2
-11869.7
-19163
-7127.56
-11620.3
-11977.1
-2903.35
-3266.39
-1021.74
-2030.2
-8369.96
-9827.02
-3444.13
-6563.35
-13606.1
-16156.9
-6150.28
-11033.4
-17648.1
-9293.95
-17926.8
-21557.6
-10864.2
-6790.22
-10870
-12517.9
-21900.8
-13998.2
-10131
-13302.7
-14763.9
-14318
-17866.8
-3210.44
-3290.37
-1989.97
-2123.01
-9517.13
-9068.62
-6139.74
-6231.28
-14265.5
-13045.4
-9083.56
-9120.25
-9742.14
-10885
-15396.7
-16334.8
-17221.2
-16201.2
-20480.6
-18790
-14179.7
-14133.3
-13132.6
-14251.2
-16947.3
-15484.1
-15973.3
-13362.2
-14317.9
-11460.9
-15943.1
-12681.1
-14302.7
-7665.4
-11230.3
-10917.2
-15767.2
-18332
-16100
-20968.3
-9474.91
-9330.52
-12964.8
-5863.35
-10849.2
-17099.2
-11218.3
-18255.4
-16337
-25708.1
-16883
-26305.3
-9187.93
-15026.4
-9504.85
-16286.1
-11323.3
-8420.37
-14522.9
-6536.81
-12264.3
-4565.73
-13742.8
-3311.82
-11758.2
-12071.7
-15205.9
-7832.94
-10604.9
-13920.8
-13965.7
-9967.24
-3077.09
-2861.5
-2465.12
-1988.61
-1944.44
-1699.05
-8325.09
-7169.88
-6249.21
-5441.76
-4544.42
-3829.55
-10887.5
-9210.74
-8407.16
-7837.65
-6294.26
-5680.77
-9763.83
-7899.6
-7486.1
-15227.9
-11304
-9164.39
-13743.8
-10039.7
-7765
-15310.6
-11959.2
-10043
-11904.9
-8070.94
-5993.35
-18261.5
-14813
-13123.3
-13417.5
-10586.6
-8742.91
-11868.9
-8881.08
-6952.9
-10628.6
-7902.83
-6236.41
-11509.6
-6869.67
-4251.31
-11498.5
-18749.9
-9754.68
-13980.4
-9355.9
-19271.4
-7835.32
-15807.4
-180.738
-1725.84
252.585
-1013.36
-3558.84
-6720.1
-2233.41
-4065.16
-1841.58
-3922.89
-11013.5
-16411.8
-8735.65
-6507.85
-11707.4
-10236.1
-15730.5
-16843.4
569.312
5549.86
-8405.55
-5895.33
-6581.99
-3791.98
-1585.15
-1014.21
-1276.62
-782.674
-3892.36
-1244.48
-1932.76
-230.87
-9976.45
-2984.68
-7508.02
-2321.29
-8547.18
-2574.55
-9685.91
-3196.31
-12302.3
-12182.7
-9584.81
-12089.7
-18683.7
-16845.1
-15307.7
-16029.5
-7104
-9332.49
-8283.74
-8609.62
-8985.23
-12030.3
-9456.97
-12153.2
-14624
-15732.3
-15163.8
-15856
-6288.37
-9476.3
-6097.21
-9604.98
-790.404
-1443.76
-7501.18
-4193.48
-762.636
-1210.38
-6562.04
-3542.42
-791.008
-1303.04
-7930.39
-4623.37
-1103.9
-1427.15
-8019.7
-4882.21
183.488
327.369
-478.672
-326.562
867.962
1395.43
-774.148
-508.747
-1154.92
-105.403
-2558.97
-2230.57
7677.45
3897.27
4518.83
3011.27
-32.0116
7089.31
10372
4923.83
4982.11
-10.6812
-9417.17
-6877.31
-5637.53
-5803.53
-3403.01
535.04
432.693
-186.103
-290.449
1502.66
1659.51
-519.202
-713.515
1287.58
1879.02
-1427.95
-1723.69
3096.94
1594.35
8039.13
5678.52
4299.38
3078.26
3904.14
3237.49
-295.905
-1045.79
-4968.35
-3448.5
478.695
2189.33
673.67
1939.97
-389.089
690.943
-832.877
-1212.37
-4068.11
-4504.14
-9697.11
-6150.21
-8657.87
-8423.8
-13008.5
-10160.6
-7411.74
-4549.52
-2504.12
-3205.46
-11479.6
-4850.13
-12312.8
-4474.05
-14941.3
-9791.45
-15904.7
-9410.52
-8933.59
-3312.61
-9709.18
-2861.78
-5576.24
-4540.67
-4225.59
-7445.01
-2740.03
-3657.8
-2773.46
-6253.2
-6144.29
-4238.62
-5131.3
-8547.6
-7429.06
-4006.01
-6071.65
-8462.08
565.547
732.56
852.964
-184.86
139.957
191.635
2036.52
2436.93
2616.56
-262.656
581.718
703.791
2469.2
3477.02
3908.02
-913.858
1019.38
1420.05
847.379
1398.49
1257.01
4355.5
4663.72
4321.2
3408.12
3981.59
3848.2
3630.09
4529.05
4675.72
-511.636
1482.55
1412.49
-4054.84
-1999.04
-1154.1
1311.07
2500.16
2882.31
1567.65
2845.21
3167.63
952.865
2507.3
2831.73
-1734.8
1003.34
1189.45
-73.9834
6.55539
35.1434
72.2285
105.048
100.689
117.879
115.344
-200.233
6.45245
95.9734
191.894
240.289
230.908
254.938
260.349
-400.407
-50.7972
99.3067
295.596
42.1668
190.457
218.43
291.231
46.7285
124.273
83.709
93.3342
-157.205
-11.1952
43.2119
102.933
-1021.9
-307.937
-129.339
158.842
-1524.6
-486.994
-314.395
221.509
-851.482
-231.784
-54.7131
282.292
-1239.83
-388.794
-272.298
225.323
-944.712
-296.946
-122.813
133.089
-1682.72
-540.141
-334.806
276.57
-1005.1
-347.541
-118.443
182.788
-1767.19
-572.019
-351.406
303.887
-72.6184
-4.40356
12.0768
63.7885
-61.9374
-1.79858
-1.87588
67.2725
-197.884
-17.2602
35.1014
170.097
-104.869
17.8909
9.51737
183.905
-694.85
-178.719
-46.9047
257.875
-535.655
-112.385
-47.5906
293.587
-336.022
-32.0254
38.8798
294.368
-225.235
-5.84709
-8.08096
287.937
-1045.74
-300.724
-203.903
323.175
35.5099
29.5525
19.7438
54.6
125.774
55.8578
32.4359
34.1015
24.0516
57.3438
34.8837
142.735
307.44
144.478
79.8135
89.7897
-81.3919
41.7671
33.3355
223.128
416.166
207.916
119.437
137.242
-105.731
54.6075
42.0318
295.259
433.169
244.412
134.607
161.186
-316.762
10.5295
-33.5912
282.567
238.766
218.465
99.6197
147.337
-1065.97
-132.895
-146.617
259.74
-313.953
69.6093
21.7246
103.204
-693.662
-38.3581
-101.278
266.181
-98.1745
145.975
57.7495
126.134
-1383.6
-262.432
-205.4
278.868
-458.459
-10.7749
-14.2515
90.8696
-1609.28
-400.908
-272.113
274.092
-593.339
-110.317
-58.8464
75.3718
28.5422
13.4494
6.95591
3.98704
2.81173
39.4613
20.453
11.0632
6.49228
4.6176
60.8606
28.5912
14.7277
8.4667
6.02113
103.895
55.6804
30.6195
18.1951
13.0348
86.9463
41.2857
21.6161
12.5844
9.01492
149.612
79.2648
43.9826
26.3691
18.9839
50.4524
25.9905
14.4661
8.7199
6.29254
28.0638
14.053
7.6619
4.59123
3.30073
77.0847
34.4294
18.124
10.6603
7.61504
17.3653
5.09077
2.13078
1.11306
0.757153
114.68
56.8932
31.0168
18.5019
13.3066
31.5827
12.67
6.39533
3.68173
2.59325
26.4343
7.31433
2.86591
1.46019
0.989495
17.9635
5.69496
2.55194
1.41011
0.987894
24.8771
6.5953
2.48631
1.25266
0.823504
12.5351
1.91454
0.305432
0.0295769
-0.0295535
23.1158
10.138
5.0171
2.79077
1.94019
21.8097
9.59318
4.75447
2.64341
1.83698
53.2743
23.0152
11.4131
6.37795
4.46486
50.7235
21.7893
10.8321
6.04857
4.21286
69.3758
28.1508
13.8397
7.71071
5.40263
61.3761
26.8044
13.615
7.67554
5.40697
83.0453
40.2961
21.7418
12.8501
9.23871
41.2431
19.6441
10.3545
5.94838
4.25778
48.0248
24.3235
13.3934
8.03526
5.79214
-509.201
-618.412
-1403.92
-1758.67
-2149.19
-2815.98
-2606.61
-3727.51
-2584.49
-3693.91
-2337.06
-3112.39
-2152.28
-2608.95
-2681.28
-3646.51
-2793.01
-3816.39
-513.457
-112.615
-24.5355
-5.2106
-1.26636
-215.242
-78.2179
-8.52083
-2.43611
-0.983006
-1658.37
-366.364
-80.2869
-17.1827
-4.20669
-557.438
-118.64
-24.0363
-4.68217
-0.999431
-2918.56
-648.503
-142.952
-30.8738
-7.62568
-977.24
-232.225
-51.3022
-11.1891
-2.70521
-4178.77
-933.753
-207.863
-45.4129
-11.3576
-1372.04
-356.421
-84.3121
-19.3584
-4.91463
-5813.17
-1336.3
-303.878
-67.617
-17.207
-1829.02
-538.382
-135.125
-32.0513
-8.35742
-7800.16
-1957.87
-470.158
-108.927
-28.5931
-2126.39
-663.139
-171.869
-41.5052
-11.0047
-7122.26
-1732.37
-405.918
-92.2026
-23.8245
-2055.52
-648.164
-167.808
-40.4376
-10.6306
-8118.36
-2065.19
-502.148
-117.639
-31.1549
-2176.42
-658.889
-168.047
-40.1146
-10.6031
-8356.86
-2119.5
-517.617
-121.944
-32.4638
-2179.11
-661.117
-168.428
-37.3252
-10.4563
-248.797
-6609.63
-6492.72
-3659.42
3734.21
5134.47
10341.6
13597.6
5881.96
11865.3
2265.98
7149.36
5794.3
9628.15
10582.8
14599.1
12747.6
14506.4
7279.71
8238.12
-18950.5
-14140.8
-4341.41
-3359.82
-2613.58
-4197.61
-2950.42
-12363.9
-12088.1
-10379.4
-10930.7
-8959.78
-6203.49
-8562.94
-5227.3
-4007.58
-4956.65
-3170.85
-20420.9
-10126.9
-3000.68
-5032.44
-7640.76
-5179.09
-6094.3
-4593.71
-2228.87
-3769.08
-3314.89
-3866.29
-19018.8
-11811.4
-11855.5
-7522.99
-7983.29
-8031.66
-3973.05
-5051.96
-5254.88
-12808.6
-12178.8
-10396.7
-10257.4
-9290.69
-10088.1
-7499.02
-6209
-5140.81
-2340.91
-3839.9
-3185.59
-2388.59
-1487.25
-505.688
-3002.24
-2514.42
-1893.09
-1176.75
-399.393
-2319.85
-1927.68
-1439.9
-889.584
-301.038
-3752.7
-3142.73
-2363.18
-1466.01
-496.903
-2619.75
-2179.12
-1631.25
-1010.58
-342.596
-8205.18
-6964.59
-5560.47
-5167.86
-5575.28
-6618.91
-5228.45
-3698.77
-2999.96
-2501.35
-7197.16
-4915.91
-3710.22
-2770.04
-1221.56
-5914.16
-4418.04
-3051.42
-2372.34
-1653.13
-4546.7
-3163.67
-2093.62
-1701.33
-1007.99
-4940.76
-3716.02
-2638.97
-1639.83
-580.011
-6141.88
-4255.72
-3018.4
-1985.04
-791.362
-3668.31
-2418.49
-1634.93
-1029.02
-390.081
-3311.72
-2567.05
-1836.22
-1123.59
-385.204
-3996.47
-3016.85
-2117.63
-1283.18
-439.642
-2650.27
-2073.07
-1485.26
-903.166
-306.56
-13880.9
-11451.1
-9490.33
-8780.78
-8169.8
-7786.67
-5807.78
-4424.53
-3165.49
-1338.43
-2497.44
-1954.19
-1414.77
-877.192
-303.474
-4265.65
-3405.52
-2513.51
-1582.92
-551.457
-6304.78
-4938.82
-3684.56
-2411.11
-876.592
-4424.76
-3560.77
-2651.42
-1679.99
-582.266
-5300.71
-4327.95
-3230.62
-2024.97
-690.113
-4004.15
-3274.31
-2431.89
-1510.93
-515.276
-1922.38
-1550.75
-1132.87
-692.614
-234.061
-3314.46
-2729.04
-2026.49
-1250.17
-423.45
-2819.8
-2248.17
-1636.98
-1006.7
-343.25
-3345.29
-2715.25
-2005.42
-1243.07
-424.455
-12769.2
-11406
-9735.33
-9341.87
-8234.27
-8755.74
-6546.95
-5287.44
-4154.53
-1865.84
-9512.03
-7716.96
-6128.23
-4789.32
-2130.13
-6152.43
-4655.65
-3559.2
-2441.48
-781.9
-6727.32
-5321.87
-3995.4
-2591.96
-878.278
-6541.87
-4918.16
-3744.18
-2561.64
-798.299
-3428.21
-2777.79
-2059.67
-1287.27
-441.124
-4447.33
-3669.8
-2736.64
-1697.06
-576.533
-4528.06
-3668.08
-2725.6
-1709.82
-587.655
-6360.54
-13965.1
-11175.8
-36377
-10534
-47470.1
-7061.89
-18674.5
-9196.85
-7741.49
-18072.5
-14109.9
-9352.08
-11244.1
-19761
-16397.2
-3994.62
-2722.76
-9197.73
-6462.12
-7002.58
-3657.99
-25342.5
-17864.2
-15331.3
-10657.7
-15913.2
-10358.2
1737.83
-1513.45
-43652.1
-53104.9
-22012.6
-30166.4
-55634.1
-67884.6
-24629.3
-31111.6
-32637.8
-42159.2
-24813.3
-35242.8
-15728.2
-18972.9
-2149.28
-410.663
-4690.39
-1510.44
-4067.65
-1918.52
-13132.9
-4690.63
-2048.43
-971.698
-5760.06
-1595.23
-15205
-4377.81
-20038
-6270.68
-18659.4
-11444.1
-19271.6
-13326.1
-18110.7
-12906.1
-18068.9
-14867.1
-15182.3
-10894.2
-13923.8
-9375.55
-20059.5
-14733.7
-21470
-15671.8
-19242.9
-16305.6
-20836.8
-17259
-16727.1
-12244.9
-18530
-13131.7
-17577.4
-7372.55
-9696.47
-11693.1
-17129.7
-8050.02
-8785.37
-11949.7
-18268.7
-7013.36
-10647.1
-11693.5
-19128.9
-7119.24
-11502.1
-11925.6
-660.598
-495.383
110.133
-681.212
-2457.75
-3040.48
-1735.27
-4514.26
-3667.99
-4907.93
-3821.79
-8296.83
-16905.9
-16169
-13517.1
-15894.2
-9595.02
-10851.6
-8673.69
-7503.77
-15723.9
-12896.3
-12645.6
-12034.7
-11465.3
-10819.3
-16485.5
-708.547
-900.429
-457.119
-681.915
-3042.46
-2723.08
-3448.85
-3417.69
-2934.31
-1541.9
-5723.37
-5457.35
-11815.1
-12684.5
-11081
-11040.2
-10046.4
-8367.52
-13556.6
-11665.5
-12075.1
-11427.5
-15244.5
-15700.4
-14392.7
-12925.7
-11824.3
-9750.65
-10646.3
-8357.03
-14289.2
-10617.1
-13238.8
-7889.06
-10847.7
-10967
-16237.4
-19200
-16197.2
-21265.9
-8863.6
-9185.55
-11361.6
-5698.22
-10710.8
-17049.6
-11175.5
-18229.4
-16416.7
-25952.3
-16888.6
-26319.5
-8943.96
-14880.4
-9435.73
-16240.5
-10770.6
-8267.27
-14226
-6480.49
-10912.7
-4446.46
-13142.4
-3417.93
-11527.5
-11947.4
-15066.9
-7790.32
-10539.5
-13879.1
-13930.3
-9944.34
-1095.58
-836.657
-621.059
-766.09
-2081.44
-1000.76
-2862.47
-2852.74
-447.753
-287.579
-5073.44
-4926.91
-13674.1
-11755.9
-10825.3
-8350.4
-7031.05
-4775.61
-9341.09
-7103.87
-9917.88
-6657.9
-19954.1
-16977.9
-10473.3
-8467.14
-8136.57
-5985.51
-7084.52
-4898.81
-7973.76
-4061.23
-5886.13
-11221.7
-5429.2
-10966.8
-7383.94
-12042.4
-8699.75
-13505.8
-1657.25
-1571.27
-1482.78
-1499.11
-4643.87
-4880.34
-4349.59
-4526.37
-1936.15
-2280.44
-9149.76
-10034.1
-5612.78
-6341.89
-10594.4
-9986.84
-14674.1
-16550.6
603.994
5401.72
-7808.28
-5824.82
-6345.16
-3813.42
-1396.97
-1326.29
-1525.06
-1302.48
-3131.34
-2098.59
-2477.29
-1521.98
-8314.95
-4098.77
-7798.98
-3751.5
-8641.89
-3385.31
-9752.51
-3526.84
-6708.73
-9701.61
-7585.06
-10728.5
-11458.3
-12993
-12765.2
-14129
-5990.84
-8703.26
-5202.53
-7738.45
-8159.7
-11445.6
-9211.5
-11985
-13541
-14909
-14844.2
-15618.3
-5846.22
-9212.19
-5967.96
-9530.91
-932.127
-1917.89
-7518.07
-4466.97
-1087.23
-2028.46
-6780.86
-3956.32
-978.306
-1682.42
-7957.04
-4819.61
-1185.16
-1584.78
-8014.22
-4970.01
-1280.97
-1454.21
-1340.48
-1520.77
-3123.88
-3469.99
-2351.65
-2704.27
-7591.87
-8202.89
-4376.4
-4804.09
-4196.76
-9495.42
-2816.41
-531.598
-1581.02
-4172.89
-1196.98
-1967.46
1755.84
-1056.25
-13799.5
-10084
-7795.08
-7619.31
-4283.33
-1749.63
-1908.34
-1779.7
-2171.52
-4107.2
-4399.66
-3205.08
-4000.64
-8711.54
-9787.74
-4854.59
-6141.99
-6183.06
-7501.44
-2180.33
-4200.59
-3471.78
-4769.01
-1043.75
-1912.19
-2050.25
-3197.42
-11333.2
-8839.22
-6239.51
-4300.5
-4690.12
-3215.22
-4520.29
-3095.01
-2636.4
-3272.47
-7485.36
-7991.62
-11276
-7684.06
-11245.7
-11216.3
-13999.6
-11394.2
-9298.78
-6124.59
-5843.7
-6545.39
-12246.7
-5726.94
-12522
-4679.12
-15392.6
-10521.8
-16010.2
-9560.85
-9901.82
-4211.04
-9988.89
-3093.44
-7425.76
-6032.7
-5877.06
-9195.55
-5663.26
-6596.35
-4888.46
-9032.1
-7140.24
-5131.97
-6131.1
-9602.01
-7737.32
-4277.37
-6393.1
-8739.26
-1595.39
-1667.42
-1545.41
-1238.45
-4769.59
-5385.98
-2472.06
-1418.06
-10527
-8725.6
-3669.97
-447.232
-9360.42
-8089.38
-6019.17
-4997.7
-5065.18
-4024.76
-1923.4
-904.971
-2260.67
628.643
-8464.06
-7001.29
-4187.45
-2934.74
-2829.68
-1423.28
-2271.14
-686.087
-3900.92
415.157
-303.144
-126.393
-41.621
30.537
-322.995
-160.097
-40.629
19.1269
-779.555
-329.446
-89.3498
104.697
-737.722
-373.958
-130.38
-2.19103
-1167.67
-499.811
-171.718
147.903
-1146.35
-565.749
-314.83
-116.144
-680.915
-354.623
-230.671
-85.0906
-472.622
-225.174
-98.1047
18.7477
-1446.44
-577.746
-332.596
5.4556
-1665.08
-548.197
-373.304
223.479
-1458.33
-578.995
-319.264
42.2194
-1421.37
-468.824
-347.818
227.062
-1270.77
-509.963
-254.888
85.0587
-1790.49
-589.434
-388.692
250.757
-1145.27
-441.447
-179.298
153.455
-1814.5
-595.54
-372.621
297.306
-285.577
-107.801
-42.2893
44.0625
-286.071
-94.4358
-55.2527
50.0463
-738.473
-283.784
-106.474
119.541
-726.027
-249.302
-139.161
141.611
-1296.11
-488.995
-228.035
210.377
-1253.27
-439.056
-248.346
240.304
-1285.84
-523.531
-273.167
96.0596
-946.73
-351.438
-201.791
245.851
-1440.72
-489.114
-360.612
277.669
-210.718
-68.9358
-28.8146
32.4352
-124.938
-48.8197
-16.4639
3.7597
-579.949
-191.753
-95.5238
83.2911
-347.443
-138.796
-57.9908
5.06913
-809.276
-279.739
-148.639
133.66
-489.184
-216.599
-91.9282
7.87602
-954.878
-354.338
-197.395
170.246
-635.878
-292.876
-132.459
3.10524
-1140.57
-397.961
-286.847
139.044
-859.765
-341.808
-191.428
-30.06
-1968.97
-647.697
-463.225
83.745
-1055.57
-370.066
-226.201
-45.904
-1697.17
-561.35
-423.402
85.8448
-1096.27
-385.03
-232.248
-52.2464
-1969.91
-620.02
-426.12
159.676
-909.47
-302.673
-181.194
-4.41953
-1805.56
-525.617
-349.21
233.387
-738.04
-209.233
-115.936
43.3376
-6.25241
-9.10574
-6.44
-4.24578
-3.17304
-22.7889
-16.797
-10.6224
-6.7652
-5.00804
-13.9539
-19.1896
-13.5007
-8.84901
-6.55837
-72.6003
-48.0853
-29.4084
-18.4343
-13.5482
-33.0095
-30.7729
-20.2114
-12.9456
-9.50889
-111.418
-70.4379
-41.9758
-25.9755
-18.9864
-37.1753
-23.3
-13.7806
-8.48493
-6.19246
-17.414
-11.718
-7.17315
-4.47111
-3.2935
-30.6759
-26.4331
-16.6931
-10.5192
-7.74464
5.8912
-1.67183
-1.7797
-1.27056
-0.972181
-75.8667
-49.1768
-29.2963
-18.1151
-13.2314
-6.29196
-8.93059
-5.91983
-3.79532
-2.82482
9.4749
-1.32538
-2.03371
-1.52393
-1.18059
2.50838
-2.51332
-2.10233
-1.41991
-1.06827
11.101
-0.74328
-1.72599
-1.3454
-1.10047
11.2054
1.44968
0.0495773
-0.141435
-0.176477
-0.486339
-6.05167
-4.70724
-3.20055
-2.41714
-2.58848
-6.11288
-4.5343
-3.05453
-2.30189
-4.16371
-14.7412
-10.9585
-7.34594
-5.50356
-7.89859
-14.8857
-10.6373
-7.07728
-5.31256
-4.24771
-19.0199
-13.7699
-9.16111
-6.8397
-20.8347
-21.5993
-14.1836
-9.22922
-6.84442
-54.6538
-35.571
-21.1555
-13.1424
-9.58631
-27.0755
-18.2336
-11.0426
-7.00773
-5.12217
-39.3596
-22.1404
-12.6891
-7.74404
-5.63293
-184.282
-309.319
-621.952
-993.852
-1219.74
-1868.46
-1800.99
-2845.75
-2041.4
-3103.46
-2289.64
-3082.79
-1955.68
-2494.46
-2678.41
-3637.74
-2796.52
-3815.94
-504.095
-112.757
-24.7255
-5.26121
-1.27931
-152.016
-70.8516
-6.84108
-2.20424
-0.96602
-1646.64
-369.034
-81.2364
-17.405
-4.2605
-398.834
-92.3116
-19.6973
-3.96939
-0.866119
-2903.09
-652.26
-144.345
-31.2131
-7.70995
-784.864
-200.005
-45.9578
-10.318
-2.54412
-4144.74
-934.2
-208.744
-45.6794
-11.4314
-1201.23
-326.859
-79.251
-18.5104
-4.75497
-5758.84
-1331.74
-303.758
-67.7007
-17.2448
-1721.44
-517.393
-131.266
-31.3752
-8.22702
-7754.34
-1948.65
-468.47
-108.643
-28.5432
-2113.45
-658.658
-170.769
-41.2739
-10.9534
-7065.61
-1723.63
-404.692
-92.0547
-23.8116
-2011.21
-636.658
-165.398
-39.9803
-10.5379
-8088.69
-2058.61
-500.823
-117.396
-31.1069
-2173.66
-657.62
-167.692
-40.0355
-10.5845
-8346.98
-2117.25
-517.144
-121.855
-32.4458
-2179.1
-660.978
-168.377
-37.3162
-10.4535
-144.845
-6475.29
-6010.7
-2907.77
-1492.94
-870.023
-3186.83
-2484.26
-5507.53
-5998.33
-3146.48
-2958.25
-382.046
-582.209
-982.548
-1525.86
-2164.83
-2803.2
-264.053
-551.567
-1122.64
-1909.81
-2820.59
-3742.6
-297.17
-129.194
-525.182
-325.484
-975.29
-726.293
-1563.89
-1345.41
-2151.78
-2126.51
-2655.45
-2899.56
-3469.43
-4177.74
-5046.61
-7105.78
-7485.26
-9051.37
-4569.77
-5143.96
-5284.01
-5068.07
-4192.07
-3755.53
-345.196
-292.493
-222.196
-138.741
-47.1622
-525.725
-445.141
-337.921
-210.89
-71.6682
-886.584
-750.069
-568.973
-354.902
-120.58
-1375.42
-1162.34
-880.87
-549.125
-186.521
-1948.38
-1643.9
-1244.26
-775.155
-263.241
-2516.53
-2117.94
-1600.32
-996.387
-338.366
-238.465
-201.97
-153.365
-95.7283
-32.532
-497.811
-421.289
-319.663
-199.426
-67.759
-1012.55
-856.256
-649.287
-404.911
-137.557
-1720.76
-1453.58
-1101.29
-686.479
-233.179
-2537.35
-2139.97
-1619.48
-1009.03
-342.721
-3358.55
-2826
-2135.66
-1330.32
-451.964
-268.612
-227.659
-172.983
-108.035
-36.7334
-116.785
-98.9839
-75.2135
-46.9741
-15.9724
-474.411
-401.83
-305.135
-190.473
-64.742
-294.059
-249.112
-189.195
-118.112
-40.1481
-880.396
-745.136
-565.422
-352.762
-119.868
-655.754
-555.133
-421.326
-262.893
-89.3342
-1410.21
-1192.15
-903.66
-563.372
-191.361
-1213.32
-1025.78
-777.565
-484.737
-164.642
-1937.11
-1634.66
-1237.24
-770.634
-261.658
-1914.11
-1614.87
-1221.8
-760.697
-258.212
-2383.35
-2005.01
-1514.09
-942.105
-319.795
-2601.33
-2186.75
-1649.46
-1025.08
-347.695
-3101.26
-2599.6
-1960.01
-1220.35
-414.71
-3705.65
-3085.44
-2320.92
-1448.42
-493.577
-4411.63
-3630.1
-2727.41
-1717.84
-590.213
-6052.91
-4882.63
-3687.92
-2387.87
-836.636
-6060.38
-4767.44
-3682.38
-2554.68
-982.344
-7036.32
-5440.78
-4299.17
-3159.43
-1276.53
-4085.77
-3426.69
-2585.75
-1611.47
-548.038
-4573.9
-3818.83
-2878.11
-1797.55
-612.914
-4658.52
-3864.38
-2911.35
-1828.51
-627.082
-4401.71
-3612.67
-2727.05
-1736.58
-603.364
-3538.5
-2857.41
-2177.15
-1434.64
-518.985
-3063.56
-2428.83
-1876.87
-1292.02
-487.614
-404.223
-650.071
-1099.2
-1691.94
-2379.61
-3049.96
-292.734
-639.351
-1272.18
-2118.95
-3074.94
-4008.27
-320.213
-146.84
-596.377
-381.101
-1100.69
-828.108
-1749.14
-1509.25
-2404.8
-2413.77
-2955.35
-3400.76
-3734.83
-4452.53
-5322.92
-7299.72
-7615.42
-9100.7
-4799.64
-5291.19
-5325.37
-5012.38
-4111.23
-3719.49
-365.334
-309.663
-235.324
-146.982
-49.9716
-587.389
-497.75
-378.177
-236.177
-80.2932
-992.69
-840.731
-638.459
-398.607
-135.498
-1526.79
-1292
-980.507
-611.935
-207.987
-2144.73
-1812.71
-1374.5
-857.527
-291.446
-2743.33
-2314.22
-1752.8
-1093.39
-371.693
-264.516
-224.175
-170.339
-106.382
-36.1649
-577.555
-489.308
-371.697
-232.104
-78.9031
-1148.56
-972.459
-738.337
-460.917
-156.672
-1911.37
-1616.85
-1226.76
-765.572
-260.209
-2769.91
-2339.98
-1773.85
-1106.69
-376.166
-3602.83
-3037.51
-2300.09
-1434.98
-487.931
-289.513
-245.463
-186.585
-116.566
-39.641
-132.788
-112.608
-85.6144
-53.4954
-18.1948
-539.063
-456.948
-347.279
-216.929
-73.7632
-344.536
-292.119
-222.055
-138.728
-47.1754
-994.42
-842.516
-640.018
-399.663
-135.873
-748.306
-634.148
-481.831
-300.921
-102.309
-1579.05
-1336.77
-1014.79
-633.42
-215.301
-1362.75
-1153.88
-876.09
-546.889
-185.892
-2168.38
-1833.45
-1390.57
-867.597
-294.858
-2176.91
-1841.01
-1396.43
-871.254
-296.091
-2658.92
-2243.45
-1699.3
-1059.92
-360.261
-3061.05
-2583.71
-1957.22
-1220.59
-414.811
-3347.59
-2815.25
-2129.56
-1329.32
-452.362
-3965.12
-3317
-2506.62
-1569.8
-535.908
-4680.65
-3877.71
-2932.26
-1855.49
-638.915
-6260.87
-5089.87
-3873.13
-2521.59
-885.268
-6212.87
-4925.99
-3831.81
-2671.55
-1029.59
-7099.19
-5508.91
-4366.76
-3216.23
-1299.9
-4299.45
-3614.12
-2733.43
-1706.55
-580.927
-4714.58
-3946.06
-2981.54
-1865.9
-636.906
-4704.75
-3912.68
-2955.86
-1860.87
-639.022
-4361.19
-3587.91
-2716.8
-1735.67
-604.194
-3473.74
-2809.92
-2148.26
-1422.17
-516.367
-3034.81
-2407.75
-1864.29
-1287.14
-486.789
-18874.6
-14201.3
-4747.78
-3769.65
-3180.01
-4893.15
-3465.42
-13150.9
-14235.8
-11845.8
-13625.6
-7281.33
-11417.2
-5302.71
-5572.93
-3917.92
-21183.8
-11021.6
-3544.72
-5677.03
-8294.41
-5576.73
-6770.15
-5163.03
-2522.26
-4498.74
-3969.7
-4397.17
-18915.5
-12043.1
-12399.5
-7922.62
-8364.16
-8500.84
-4649.89
-5756.14
-5717.72
-12792.5
-12223.7
-10493.5
-10428.1
-9463.1
-10183.9
-7606.65
-6323.39
-5250.53
-2389.04
-4225.8
-3531.92
-2667.78
-1670.48
-569.726
-3381.81
-2845.92
-2153.09
-1343.49
-456.934
-2848.44
-2393.41
-1808.73
-1128.23
-383.894
-4396.51
-3704.65
-2803.69
-1748.41
-594.361
-3101.11
-2603.8
-1967.79
-1228.33
-418.169
-9734.98
-8801.11
-7477.8
-6973.85
-7097.4
-10059.8
-9261.06
-7653.78
-6460.32
-4915.06
-9164.82
-6931.59
-5577.94
-4248.74
-1870.66
-9974.11
-8630.61
-6913.47
-5630.77
-3519.33
-6190.86
-4979.85
-3760.63
-2445.18
-886.675
-9253.86
-7117.81
-5461.93
-3771.09
-1524.83
-4602.6
-3765.94
-2833.91
-1801.95
-630.842
-4819.13
-3930.81
-2957.93
-1886.59
-663.436
-3423.63
-2816.62
-2118.52
-1338.61
-464.409
-15239
-13058.1
-11173.1
-10372.8
-9431.99
-8869.48
-6932.3
-5468.4
-3970.69
-1675.12
-3071.43
-2511.7
-1894.86
-1211.13
-425.921
-4930.53
-4046.1
-3064.02
-1965.45
-691.172
-7026.18
-5665.72
-4338.14
-2888.72
-1059.36
-4839.66
-3965.14
-3003.49
-1927.45
-672.876
-5956.28
-4928.15
-3724.33
-2355.01
-806.512
-4564.62
-3795.12
-2864.95
-1802.3
-618.841
-2231.76
-1855.42
-1397.4
-875.718
-300.167
-4009.25
-3354.27
-2531.64
-1582.36
-539.923
-3482.17
-2875.31
-2166.06
-1367.49
-473.085
-3877.23
-3216.88
-2427.57
-1529.85
-527.125
-12869.1
-11666.5
-10113.4
-9842.25
-8776.22
-9065.22
-6873.03
-5608.1
-4429.93
-1991.54
-10276.3
-8557.94
-6969.62
-5507.04
-2466.23
-6596.75
-5100.03
-3961.21
-2739.85
-881.207
-7150.57
-5748.48
-4381.69
-2874.25
-980.864
-7086.67
-5465.01
-4247.36
-2939.81
-931.063
-4085.92
-3380.9
-2555.95
-1619.16
-558.76
-5119.64
-4276.49
-3228.01
-2020.71
-690.039
-5000.92
-4121.87
-3114.5
-1978.65
-684.862
-457.832
-1254.25
-1918.07
-2536.33
-3163.92
-3737.84
-2387.33
-6158.26
-5781.68
-2394.28
-7026.5
-6328.46
-7526.99
-10058.6
-1349.79
-172.771
-2552.86
1249.84
-9982.14
-8314.65
1958.22
-1741.89
-4872.97
-4677.52
-1842.09
-5354.77
-2992.54
-5994.44
-6162.25
-596.976
916.69
-1099.06
3413.48
-7027.89
-4522.89
3815.13
-1076.9
-3320.49
-3419.33
-1266.96
-3343.37
-502.688
-4468.6
-4479.85
-168.462
1108.71
88.0194
3583.04
-4314.72
-449.012
4345.62
-720.337
-2372.48
-2757.71
-973.378
-1801.74
832.078
-3766.39
-4220.16
35.3308
804.53
428.079
3007.38
-3272.75
1553.55
4147.96
-621.881
-2227.86
-2635.16
-892.707
-1678.29
549.207
-3997.92
-5452.59
112.488
614.916
535.503
2615.25
-3122.31
1563.1
2881.3
-599.715
-2194.58
-2568.72
-865.584
-2071.88
-214.783
-3923.31
-5362.23
158.798
961.151
438.764
2712.21
-3628.85
662.552
2147.12
-1321.78
-3141.39
-4202.01
-1712.23
-6455.95
-11545.4
-6999.63
-12371.9
-1622.23
-1446.08
-5223.02
-4404.79
-2338.64
-9476.12
-4750.14
-1293.89
-3059.44
-3752.54
-1483
-6108.82
-9861.12
-6287.56
-9057.08
-1691.02
-1339.24
-5093.32
-4209.85
-1705.32
-8764.74
-4637.2
-1197.06
-2852.18
-3128.15
-1200.45
-5525.64
-8589.84
-5296.07
-8019.63
-1454.41
-1715.76
-4481.99
-4991.74
-1996
-7767.4
-5201.42
-1200.26
-3102.81
-2885.26
-1061.33
-5847.89
-8393.6
-5212.82
-7849.36
-1517.02
-2110.32
-4615.51
-6105.68
-2530.19
-8500.81
-6270.05
-1207.61
-3075.24
-2831.89
-1022.26
-5747.61
-9007.44
-5213.73
-8611.28
-1640.03
-2686.27
-4948.25
-7736.1
-3588.56
-10034.1
-8098.93
-1220.39
-3067.47
-2795.28
-1008.74
-5829.33
-9228.71
-5093.94
-8503.19
-1840.01
-3340.5
-5447.9
-8827.74
-4773.73
-11055.2
-9053.17
7342.17
8892.99
18283.3
28526.6
27630.7
53894.1
19093.3
57452.6
19699.3
46069.7
24234.2
39829.1
18561.3
24498.4
8593.45
8700.31
13026.9
14752.4
17846.5
16181.8
12398.4
18657.8
18490.9
18505.5
4836.5
3527.73
6524.59
4676.76
11914.9
7737.37
21983.6
15337.3
18312.1
18586
18617.9
18856.3
4301.79
3821.83
42635.5
52720.2
22684.4
30271.2
54937.4
67609.4
25439.3
31306.5
31947.6
41764.4
25465.7
35265.3
14649.9
18541.2
2815.84
900.428
3599.99
1255.24
6703.6
2765.74
11611.5
4267.35
7641.99
2538.02
7699.89
2181.16
15153.2
4414.86
19859.4
6228.96
25554.6
14615
21608.2
14924.3
26153.5
16848
20750.7
16771.4
16764.5
12088.9
18401
11641.3
20995.8
15476.7
21702.4
15884.8
20342.9
17157.4
21141.1
17505.3
17307.8
12814.2
18661.6
13296.7
18474
7589.22
10544.3
12040
19873
8755.41
10456.3
12597.5
18531.7
7081.27
11047.8
11869.6
19163.2
7127.67
11620.1
11977.1
2720.85
3048.02
964.578
1894.7
8342.41
9783.64
3443.46
6544.72
13594
16141.8
6146.77
11027.2
17647.2
9293.62
17925.1
21552.2
10863
6789.88
10869.3
12516.6
21894.6
13996.7
10131
13302.1
14762.5
14315.3
17865.7
2961.94
3033.36
1814.34
1965.3
9506.97
9043.97
6159.2
6235.48
14258.8
13037.7
9086.27
9121.99
9741.86
10884.7
15396
16334.2
17219.8
16200.2
20477.1
18787.2
14180.7
14134.7
13132.4
14250.9
16946.6
15483.6
15972.2
13361.6
14316.3
11460.2
15943.3
12681.7
14302.2
7665.2
11230
10917.1
15767.1
18331.8
16099.9
20968.1
9474.45
9330.34
12964.1
5863.1
10849.1
17099.1
11218.1
18255.3
16336.9
25708
16882.9
26305.1
9187.66
15026.3
9504.65
16286
11322.9
8420.28
14522.9
6536.89
12263.6
4565.56
13742.8
3312
11758
12071.7
15205.9
7832.99
10604.7
13920.8
13965.8
9967.29
2804.3
2604.96
2254.83
1845.6
1805.81
1581.53
8314.64
7160
6244.56
5445.83
4547.84
3835.21
10883.4
9208.06
8406.26
7839.1
6295.72
5683.21
9763.67
7899.52
7486.07
15227.5
11303.8
9164.33
13743.2
10039.5
7764.96
15309
11958.3
10042.9
11905.9
8071.74
5994.43
18261.3
14812.9
13123.2
13417.3
10586.5
8742.86
11868.6
8880.95
6952.89
10628.2
7902.68
6236.44
11509.9
6869.96
4251.69
11507.7
18753.5
9766.7
13983.6
9360.72
19274.2
7840.54
15809.4
197.699
1598.3
-204.144
932.34
3520.48
6704.79
2192.85
4054.91
1833.54
3915.63
11011.6
16409.3
8728.67
6501.57
11708.5
10236.6
15731.5
16843.9
-570.061
-5550
8405.14
5895.51
6581.46
3791.93
1442.33
939.704
1155.21
716.206
3897.81
1237.52
1936.19
228.765
9975.06
2981.68
7506.9
2319.45
8546.67
2574
9685.97
3196.18
12303.6
12183.2
9585.65
12090.1
18685.2
16845.8
15308.6
16029.8
7103.78
9332.53
8283.29
8609.58
8985.72
12030.6
9457.38
12153.5
14624.5
15732.5
15164.1
15856.1
6288.39
9476.43
6097.42
9605.21
789.549
1442.91
7501.03
4193.15
761.516
1208.91
6561.77
3541.86
790.581
1302.62
7930.38
4623.23
1103.87
1427
8019.85
4882.21
-174.171
-303.691
449.509
306.839
-864.42
-1393.05
766.803
499.712
1154.97
105.81
2555.28
2227.36
-7677.24
-3897.12
-4518.79
-3011.46
30.5472
-7089.23
-10371.8
-4923.69
-4981.78
9.43274
9417.35
6877.5
5637.45
5803.26
3402.1
-507.008
-403.74
157.212
253.448
-1494.52
-1656.94
523.796
717.097
-1284.91
-1876.07
1428.9
1726.11
-3096.78
-1594.18
-8038.76
-5678.07
-4298.94
-3077.61
-3902.79
-3235.56
296.006
1046.91
4968.49
3448.64
-478.386
-2188.95
-673.32
-1939.43
389.57
-690.155
832.889
1212.99
4068.43
4504.39
9697.34
6150.36
8658.1
8423.91
13008.6
10160.7
7411.89
4549.67
2504.37
3205.78
11479.7
4850.26
12312.9
4474.18
14941.4
9791.5
15904.8
9410.56
8933.71
3312.73
9709.35
2861.92
5576.3
4540.8
4225.53
7445.11
2740.22
3658.15
2773.45
6253.53
6144.34
4238.71
5131.28
8547.66
7429.19
4006.13
6071.71
8462.2
-539.8
-686.343
-797.349
146.534
-147.224
-191.911
-2022.99
-2426.24
-2609.09
275.749
-573.718
-698.691
-2463.61
-3472.31
-3904.63
918.171
-1016.03
-1417.69
-847.213
-1398.31
-1256.83
-4354.97
-4663.21
-4320.77
-3407.21
-3980.74
-3847.52
-3627.33
-4526.5
-4673.71
513.317
-1480.99
-1411.22
4054.96
1999.2
1154.28
-1310.65
-2499.73
-2881.89
-1566.99
-2844.55
-3167.03
-951.853
-2506.26
-2830.8
1735.69
-1002.5
-1188.79
70.609
-5.11055
-31.448
-66.0165
-98.2403
-93.7076
-109.117
-106.291
198.822
-6.9143
-96.517
-192.161
-238.969
-230.379
-254.704
-260.046
399.448
50.3983
-99.6923
-295.79
-42.2723
-190.522
-218.587