/*--------------------------------*- C++ -*----------------------------------*\
| =========                 |                                                 |
| \\      /  F ield         | OpenFOAM: The Open Source CFD Toolbox           |
|  \\    /   O peration     | Version:  2412                                  |
|   \\  /    A nd           | Website:  www.openfoam.com                      |
|    \\/     M anipulation  |                                                 |
\*---------------------------------------------------------------------------*/
FoamFile
{
    version     2.0;
    format      ascii;
    arch        "LSB;label=32;scalar=64";
    class       volScalarField;
    location    "2";
    object      T;
}
// * * * * * * * * * * * * * * * * * * * * * * * * * * * * * * * * * * * * * //

dimensions      [0 0 0 1 0 0 0];

internalField   nonuniform List<scalar> 
5712
(
540.268
556.784
527.43
547.219
510.285
533.126
483.756
508.574
487.255
512.321
511.834
536.536
523.128
545.697
533.738
553.239
501.421
485.319
518.656
493.757
475.367
457.935
491.52
465.176
547.978
554.578
560.952
564.25
538.226
546.885
553.556
558.691
537.086
524.328
511.781
504.694
538.211
548.716
538.513
544.074
501.745
508.802
514.959
520.738
473.129
479.266
549.928
554.872
521.006
530.367
560.229
565.867
559.267
567.262
566.8
570.591
552.318
564.662
561.907
568.802
542.812
560.223
551.821
564.855
558.316
567.102
562.235
568.504
471.803
457.333
479.163
460.494
438.446
425.523
446.139
429.391
506.269
488.423
499.877
485.191
484.229
462.642
487.175
463.786
451.548
431.96
454.634
433.332
511.07
490.613
513.83
491.713
531.589
558.262
516.137
547.634
525.785
554.424
512.215
544.251
535.647
560.17
518.454
549.586
537.81
560.966
519.479
550.786
554.887
544.991
564.299
556.897
547.22
537.285
561.076
552.737
536.038
525.47
555.468
545.919
456.965
418.441
491.142
517.894
547.301
417.137
454.954
486.949
512.283
538.844
416.42
451.878
481.298
506.91
537.438
525.228
506.969
529.097
511.7
519.976
501.721
527.075
509.273
511.264
493.464
523.455
505.467
410.194
397.265
447.733
434.965
477.578
462.259
500.114
483.302
519.917
501.801
408.996
394.707
443.353
429.774
471.567
456.787
495.525
479.029
517.255
498.493
442.197
431.386
441.262
430.479
408.03
387.841
406.826
384.61
470.794
462.374
471.195
461.879
440.725
429.451
441.376
430.237
406.79
383.316
407.888
384.864
470.272
461.583
470.942
462.343
497.591
489.576
520.486
513.206
497.036
487.848
519.577
510.175
497.199
488.968
520.611
513.792
497.401
489.284
520.562
513.292
485.81
468.234
458.608
488.869
470.561
460.785
481.189
463.283
453.667
486.189
467.167
457.111
472.214
453.839
443.881
481.784
461.694
451.15
380.547
368.392
362.171
417.472
401.345
392.629
443.653
425.359
415.094
462.422
443.638
433.537
476.703
455.335
444.021
376.764
363.985
357.02
413.723
399.006
391.276
438.888
421.97
412.925
457.517
438.013
427.544
470.996
449.496
438.371
413.909
400.605
417.778
404.916
443.132
427.132
451.587
433.365
385.731
365.445
386.974
367.426
386.595
365.931
388.378
368.506
386.5
383.281
385.956
379.494
364.906
369.116
407.69
410.592
437.722
441.585
388.093
390.48
388.506
390.261
371.509
373.141
343.76
324.741
349.313
328.042
345.288
324.482
350.78
328.249
346.394
323.991
353.14
328.926
356.226
331.147
358.353
332.954
379.19
367.48
386.425
372.419
406.024
392.926
414.169
397.935
365.607
352.243
358.203
347.612
390.512
375.367
392.974
376.987
419.019
400.937
421.836
402.472
369.389
355.054
371.509
356.668
348.118
326.218
336.446
320.54
341.577
322.095
332.632
317.809
351.874
329.008
338.934
322.402
354.075
330.958
340.518
323.634
326.337
315.454
318.061
310.96
327.5
317.084
317.789
311.107
328.997
320.637
317.341
311.932
359.258
383.396
342.109
330.838
316.484
381.432
355.806
336.178
324.319
312.358
381.685
357.745
340.115
327.416
314.595
306.72
298.474
303.576
295.601
309.171
300.849
304.582
296.788
313.434
305.542
306.286
298.803
374.647
362.175
348.984
337.914
331.024
322.626
319.159
311.28
308.493
301.431
374.409
361.539
351.319
340.449
334.363
325.264
321.935
313.392
311.216
304.106
354.396
340.961
355.501
340.329
375.787
359.297
376.701
357.089
338.641
326.641
337.436
326.505
356.463
339.888
357.876
341.303
377.992
355.396
379.497
356.864
339.575
326.819
340.8
327.975
324.462
314.801
313.681
304.707
324.141
314.132
312.969
304.494
324.72
315.507
314.082
304.753
326.257
316.258
314.764
305.932
288.362
282.804
280.637
281.821
277.96
276.673
291.351
285.448
282.988
283.056
279.028
277.563
296.133
289.901
287.405
284.975
280.59
279.034
348.481
338.92
334.374
327.268
319.842
316.599
312.849
306.355
303.8
301.293
294.87
292.25
286.826
282.312
280.524
346.881
336.598
331.624
328.471
319.758
315.507
314.457
306.963
303.486
301.942
295.823
293.427
288.013
283.65
281.469
309.591
300.094
294.1
289.314
311.029
300.665
294.375
289.363
309.479
300.123
294.201
289.462
311.262
300.866
294.606
289.577
309.214
300.128
294.365
289.7
311.564
301.15
294.915
289.853
312.745
301.844
295.214
289.968
313.919
302.61
295.562
290.108
310.581
300.921
294.893
290.044
308.432
300.207
294.503
290.19
308.637
300.033
294.455
289.964
307.125
299.558
294.173
290.147
312.055
301.693
295.219
290.104
309.527
300.82
294.805
290.297
313.22
302.39
295.584
290.292
310.448
301.4
295.162
290.535
307.209
299.208
293.719
289.321
304.413
298.205
293.244
289.398
307.057
299.197
293.769
289.436
304.444
298.253
293.287
289.495
306.796
299.172
293.846
289.638
304.731
298.424
293.414
289.674
306.37
299.11
293.901
289.897
304.888
298.551
293.546
289.901
305.846
299.002
293.864
290.103
301.871
297.38
292.694
289.778
300.419
296.985
292.452
289.925
302.267
297.543
292.796
289.859
300.876
297.164
292.552
289.999
302.92
297.826
292.966
289.996
301.64
297.478
292.721
290.129
303.717
298.172
293.219
290.2
302.594
297.881
292.964
290.307
304.737
298.629
293.525
290.417
303.531
298.31
293.216
290.493
306.177
299.514
293.967
290.745
304.832
299.195
293.732
290.888
305.512
299.056
293.739
290.586
304.278
298.761
293.473
290.691
306.788
299.99
294.194
290.892
305.388
299.662
293.984
291.082
307.518
300.522
294.517
291.118
306.119
300.188
294.307
291.327
284.726
281.633
279.422
278.011
277.327
284.739
281.641
279.427
278.014
277.329
284.786
281.662
279.438
278.02
277.333
284.811
281.679
279.448
278.027
277.337
284.851
281.695
279.455
278.031
277.34
284.917
281.737
279.48
278.046
277.352
285.067
281.823
279.53
278.076
277.373
285.212
281.909
279.581
278.108
277.396
284.995
281.772
279.499
278.057
277.359
285.024
281.777
279.5
278.057
277.359
284.921
281.729
279.474
278.042
277.348
284.978
281.751
279.485
278.048
277.353
285.082
281.824
279.529
278.076
277.373
285.109
281.828
279.53
278.075
277.373
285.236
281.919
279.585
278.11
277.398
285.258
281.92
279.584
278.109
277.397
284.715
281.625
279.417
278.008
277.324
284.713
281.62
279.414
278.006
277.323
284.761
281.647
279.429
278.015
277.329
284.755
281.639
279.424
278.012
277.327
284.823
281.675
279.443
278.023
277.335
284.814
281.665
279.437
278.019
277.332
284.893
281.707
279.46
278.033
277.342
284.874
281.694
279.452
278.028
277.338
284.94
281.731
279.473
278.04
277.347
537.643
533.001
536.956
532.276
535.651
530.965
534.084
529.209
532.798
527.598
533.616
530.606
533.109
529.352
533.868
531.019
534.149
531.282
565.53
571.354
572.627
572.917
572.979
559.339
569.688
572.249
572.836
572.96
565.643
571.408
572.643
572.921
572.98
559.3
569.725
572.264
572.841
572.961
565.648
571.447
572.656
572.924
572.981
559.125
569.741
572.276
572.845
572.962
565.685
571.492
572.669
572.927
572.982
558.881
569.732
572.279
572.846
572.963
565.724
571.509
572.671
572.927
572.982
558.671
569.687
572.265
572.841
572.961
564.571
571.088
572.552
572.897
572.973
558.123
569.292
572.13
572.804
572.95
565.025
571.274
572.608
572.912
572.977
558.309
569.474
572.197
572.823
572.956
564.271
570.964
572.513
572.886
572.969
558.017
569.188
572.088
572.791
572.946
564.398
570.985
572.514
572.885
572.969
558.116
569.193
572.082
572.787
572.944
421.272
459.732
456.753
418.923
400.401
402.254
407.591
410.774
420.544
423.799
447.051
454.133
451.436
458.202
429.015
431.585
419.789
422.227
411.219
413.212
361.202
343.466
299.471
294.076
298.037
294.621
299.04
360.698
354.647
336.901
343.809
338.036
317.022
326.975
321.879
311.8
314.904
310.29
355.158
329.693
314.389
312.147
318.456
314.354
306.99
307.08
305.163
302.386
309.101
307.467
355.47
334.678
341.21
324.471
318.272
329.938
307.853
301.742
310.83
345.649
331.154
318.37
304.594
285.678
333.248
322.331
310.76
297.803
281.958
296.803
293.069
288.187
282.465
276.215
291.995
289.051
285.166
280.587
275.578
295.535
292.013
287.387
281.96
276.042
292.483
289.46
285.471
280.773
275.64
296.424
292.753
287.945
282.309
276.161
345.157
329.399
315.867
301.95
284.672
338.836
323.752
310.662
297.342
281.789
327.543
317.031
305.813
293.75
280.268
330.352
317.061
305.173
293.186
280.249
326.076
313.652
302.485
291.279
279.382
311.779
305.047
296.915
287.817
278.036
319.593
310.855
301.035
290.4
278.963
315.47
307.628
298.597
288.778
278.357
307.469
301.695
294.492
286.313
277.514
309.986
303.597
295.815
287.102
277.78
306.196
300.685
293.752
285.85
277.354
341.635
327.295
314.601
301.137
284.204
322.342
313.46
303.37
292.174
279.648
309.714
303.543
295.905
287.231
277.838
307.85
302.097
294.881
286.614
277.63
313.168
306.333
298.034
288.634
278.344
309.784
303.698
296.113
287.414
277.906
303.425
298.541
292.286
285.022
277.086
303.501
298.593
292.302
285.013
277.08
301.815
297.189
291.226
284.319
276.838
299.383
295.2
289.761
283.424
276.537
305.217
299.943
293.253
285.571
277.265
303.827
298.843
292.467
285.101
277.108
341.618
327.76
315.435
302.112
284.572
326.432
316.963
306.431
294.561
280.643
332.084
320.449
308.965
296.216
280.678
318.367
310.6
301.391
290.899
279.122
313.152
306.427
298.188
288.759
278.365
322.761
313.814
303.716
292.407
279.577
304.176
299.151
292.728
285.288
277.175
298.811
294.728
289.417
283.219
276.469
306.742
301.223
294.253
286.231
277.498
503.213
543.537
495.315
533.503
471.405
513.472
478.705
524.658
486.057
475.103
513.56
489.479
461.715
449.407
487.568
461.879
520.87
535.33
551.957
557.859
514.925
529.566
545.445
552.757
531.016
508.753
507.314
494.499
524.8
543.441
536.827
543.715
499.903
508.352
513.492
520.373
471.737
478.905
548.112
554.521
519.192
529.939
558.828
565.65
548.12
563.452
562.962
569.292
541.676
561.17
558.059
567.532
534.262
557.452
548.011
563.582
556.929
566.595
561.96
568.394
468.817
458.009
477.347
460.884
438.181
428.887
445.757
431.206
503.808
487.999
495.549
484.311
483.393
462.904
486.961
463.891
451.392
432.935
454.608
433.665
509.941
490.46
513.529
491.682
529.268
557.405
515.512
547.378
521.481
552.831
510.946
543.74
534.599
559.771
518.188
549.477
537.533
560.856
519.409
550.757
536.689
523.952
558.246
549.576
530.109
517.952
555.769
546.42
522.394
510.98
551.415
541.497
459.619
429.843
487.271
511.814
544.989
430.042
457.758
481.772
504.512
536.001
426.413
454.845
480.092
504.631
536.567
504.471
489.123
520.132
506.374
501.062
485.585
519.835
505.403
497.084
482.126
518.943
503.955
422.846
412.35
450.526
439.572
473.29
460.317
493.789
479.761
517.678
502.201
419.17
406.217
447.443
436.481
471.903
460.41
494.676
481.384
517.02
500.605
445.36
435.934
443.452
433.447
414.335
395.61
410.737
389.529
471.826
464.105
472.314
464.387
441.97
431.087
441.777
430.746
408.814
385.78
408.52
385.62
470.949
462.613
471.171
462.673
498.022
490.514
520.73
513.746
497.256
489.219
519.731
511.043
497.548
489.56
520.81
514.126
497.535
489.493
520.631
513.401
477.565
471.462
493.795
487.918
473.729
467.047
492.297
485.124
470.15
463.148
489.732
480.583
401.496
395.545
429.268
422.085
449.834
441.776
467.742
459.362
486.009
474.839
391.612
386.753
426.261
420.107
449.306
441.64
467.146
457.331
480.758
469.639
406.019
398.072
414.414
404.496
432.973
421.74
448.446
431.477
387.363
369.057
391.833
372.571
385.509
368.983
390.533
372.679
387.573
382.287
387.507
380.8
368.53
372.513
407.817
410.69
436.995
441.405
389.084
390.894
389.615
390.674
373.72
373.964
355.246
336.479
357.319
337.357
355.869
335.453
357.687
336.423
355.948
333.772
358.593
335.426
359.495
335.182
359.473
334.345
384.976
376.04
389.257
377.214
409.006
399.425
415.422
401.437
370.032
357.802
366.556
357.044
391.988
377.906
393.427
377.827
419.657
402.764
422.035
403.079
371.704
358.063
372.222
357.669
353.799
331.885
342.112
325.611
351.514
330.644
341.777
325.392
354.907
332.286
342.09
325.339
355.013
332.019
341.583
324.614
351.552
348.218
334.202
330.583
351.905
348.65
332.966
329.393
351.306
348.243
331.055
327.722
379.413
401.852
361.634
348.153
328.303
402.761
380.119
361.114
346.432
326.192
397.849
375.152
356.336
341.422
324.795
344.184
338.018
324.808
314.863
344.937
339.24
324.154
314.7
344.633
338.883
323.076
314.236
396.088
386.722
374.688
366.988
357.379
351.595
342.69
336.204
322.688
314.675
390.525
378.249
369.421
359.185
351.581
342.869
336.749
328.091
321.929
314.592
364.925
351.534
361.587
346.464
385.165
369.379
382.161
363.117
344.747
332.39
347.803
336.392
359.541
342.888
358.831
342.215
380.711
358.34
380.334
357.758
342.721
329.656
341.792
328.85
329.964
319.698
318.439
308.627
333.41
322.456
320.399
310.873
327.671
318.03
316.714
306.807
327.259
317.078
315.559
306.545
331.459
328.77
296.669
293.945
334.401
331.164
297.398
294.471
332.93
328.35
297.951
294.42
377.63
372.323
359.589
355.326
344.673
340.64
328.215
323.369
298.184
293.986
365.894
361.939
348.709
344.938
332.949
329.312
316.75
313.797
296.301
293.036
317.639
305.16
297.388
291.414
318.099
305.289
297.448
291.353
317.038
304.909
297.312
291.442
317.525
305.001
297.379
291.377
315.996
304.463
297.22
291.541
316.636
304.544
297.213
291.337
316.023
304.087
296.716
290.899
315.082
303.417
296.111
290.46
314.769
303.735
296.823
291.333
312.194
302.771
296.291
291.474
314.432
303.789
296.968
291.624
312.431
303.05
296.498
291.724
314.621
303.461
296.472
290.988
311.785
302.399
295.945
291.163
314.094
303.001
296.016
290.592
311.206
301.936
295.553
290.835
316.65
304.85
297.277
291.585
315.103
304.378
297.008
291.834
316.066
304.631
297.203
291.624
314.638
304.217
296.934
291.861
315.11
304.259
297.084
291.723
313.902
303.928
296.823
291.925
313.682
303.675
296.849
291.842
313.131
303.601
296.7
291.997
312.424
303.191
296.558
291.898
313.272
303.917
296.553
292.49
311.972
303.673
296.385
292.803
313.046
303.817
296.535
292.493
311.786
303.575
296.358
292.793
312.599
303.608
296.464
292.475
311.427
303.378
296.277
292.759
312.152
303.341
296.412
292.47
311.067
303.116
296.195
292.722
311.576
302.975
296.312
292.446
310.526
302.775
296.061
292.659
309.898
302.11
295.732
292.095
308.497
301.812
295.504
292.276
310.821
302.593
296.073
292.32
309.558
302.335
295.825
292.511
308.989
301.583
295.301
291.761
307.527
301.256
295.082
291.953
308.237
301.054
294.89
291.414
306.809
300.714
294.673
291.619
285.887
282.294
279.802
278.243
277.494
285.86
282.284
279.797
278.24
277.493
285.862
282.272
279.788
278.233
277.488
285.813
282.252
279.777
278.227
277.483
285.828
282.246
279.771
278.223
277.48
285.724
282.199
279.746
278.208
277.469
285.573
282.113
279.697
278.179
277.448
285.41
282.024
279.647
278.148
277.426
285.697
282.173
279.729
278.197
277.461
285.725
282.176
279.729
278.197
277.461
285.787
282.218
279.754
278.212
277.472
285.781
282.203
279.744
278.206
277.467
285.591
282.118
279.699
278.179
277.448
285.618
282.122
279.699
278.179
277.448
285.409
282.02
279.643
278.146
277.424
285.439
282.026
279.645
278.146
277.424
285.923
282.307
279.808
278.246
277.497
285.955
282.315
279.811
278.248
277.498
285.91
282.292
279.797
278.239
277.492
285.945
282.302
279.802
278.242
277.493
285.89
282.27
279.783
278.23
277.485
285.928
282.282
279.789
278.233
277.487
285.856
282.243
279.766
278.219
277.477
285.886
282.256
279.772
278.223
277.48
285.818
282.222
279.754
278.212
277.471
533.333
529.369
533.42
529.43
533.361
529.354
532.985
528.752
532.637
528.012
533.82
530.924
533.261
529.766
534.022
531.225
534.204
531.351
564.874
571.243
572.607
572.913
572.978
558.273
569.471
572.208
572.829
572.958
565.107
571.316
572.626
572.918
572.979
558.433
569.545
572.229
572.834
572.96
565.295
571.385
572.644
572.922
572.981
558.571
569.618
572.251
572.84
572.961
565.515
571.46
572.662
572.926
572.981
558.64
569.668
572.265
572.843
572.962
565.692
571.5
572.668
572.927
572.981
558.658
569.668
572.259
572.84
572.961
564.613
571.096
572.553
572.897
572.973
558.211
569.309
572.133
572.804
572.95
565.053
571.277
572.608
572.911
572.977
558.387
569.482
572.197
572.823
572.956
564.305
570.971
572.514
572.886
572.97
558.081
569.202
572.091
572.791
572.946
564.41
570.987
572.515
572.885
572.969
558.138
569.198
572.083
572.787
572.944
421.11
459.33
455.265
417.922
411.338
417.699
409.164
416.956
438.673
454.975
442.616
458.065
279.44
280.003
281.259
283.261
286.031
289.588
279.917
280.474
281.708
283.65
286.329
289.779
279.05
278.854
279.623
279.426
280.917
280.728
283.045
282.93
286.006
286.107
289.875
290.401
293.883
299.308
306.454
316.165
324.407
330.415
294.057
299.294
305.566
312.499
318.507
322.353
278.827
277.946
276.763
275.353
273.8
279.335
278.376
277.09
275.557
273.87
280.469
279.336
277.818
276.011
274.024
282.275
280.864
278.978
276.734
274.27
284.772
282.973
280.576
277.731
274.608
287.971
285.671
282.617
279.001
275.04
279.258
278.31
277.04
275.526
273.859
279.761
278.736
277.363
275.727
273.928
280.874
279.678
278.078
276.173
274.079
282.626
281.159
279.201
276.873
274.317
285.038
283.196
280.744
277.835
274.644
288.14
285.811
282.722
279.067
275.062
278.474
277.647
276.536
275.211
273.752
278.298
277.497
276.422
275.14
273.728
278.992
278.085
276.869
275.419
273.823
278.814
277.935
276.755
275.348
273.799
280.161
279.075
277.621
275.888
273.982
279.99
278.931
277.511
275.82
273.959
282.081
280.7
278.854
276.657
274.244
281.978
280.613
278.788
276.616
274.23
284.75
282.955
280.563
277.722
274.605
284.842
283.033
280.621
277.759
274.618
288.231
285.89
282.782
279.104
275.074
288.703
286.288
283.082
279.29
275.137
291.822
288.907
285.06
280.522
275.556
296.659
292.953
288.107
282.421
276.202
302.969
298.19
292.046
284.887
277.045
311.402
305.107
297.267
288.211
278.198
318.375
310.77
301.604
291.081
279.246
323.357
314.791
304.729
293.218
280.043
291.974
289.033
285.155
280.583
275.577
296.646
292.944
288.104
282.422
276.203
302.205
297.575
291.594
284.606
276.949
308.295
302.616
295.399
287.007
277.777
313.518
306.921
298.665
289.099
278.51
316.838
309.653
300.752
290.455
278.991
279.542
280.315
281.806
284.082
287.172
291.094
280.022
280.794
282.262
284.464
287.427
291.173
279.148
278.951
279.928
279.727
281.46
281.265
283.879
283.767
287.199
287.323
291.546
292.217
295.753
301.487
308.786
318.259
325.883
330.95
295.719
301.14
307.431
314.124
319.626
322.753
278.919
278.024
276.823
275.39
273.813
279.619
278.617
277.274
275.672
273.909
280.966
279.759
278.142
276.214
274.093
283.021
281.5
279.464
277.04
274.374
285.809
283.859
281.254
278.157
274.754
289.343
286.845
283.517
279.569
275.234
279.353
278.391
277.102
275.565
273.872
280.051
278.983
277.552
275.846
273.968
281.377
280.107
278.406
276.379
274.149
283.365
281.79
279.683
277.176
274.42
286.037
284.049
281.397
278.246
274.784
289.409
286.897
283.555
279.592
275.241
278.564
277.723
276.594
275.247
273.765
278.385
277.571
276.479
275.176
273.74
279.269
278.321
277.049
275.532
273.861
279.087
278.166
276.932
275.458
273.836
280.653
279.494
277.941
276.089
274.051
280.477
279.345
277.828
276.018
274.027
282.839
281.346
279.347
276.967
274.349
282.738
281.261
279.283
276.927
274.336
285.835
283.882
281.272
278.169
274.758
285.948
283.978
281.346
278.214
274.773
289.753
287.193
283.783
279.735
275.29
290.359
287.707
284.173
279.978
275.372
293.529
290.372
286.188
281.235
275.8
298.656
294.675
289.44
283.266
276.492
305.121
300.06
293.507
285.82
277.366
313.358
306.829
298.631
289.095
278.505
319.77
312.013
302.603
291.74
279.478
323.869
315.251
305.104
293.469
280.133
293.491
290.334
286.157
281.215
275.794
298.337
294.4
289.23
283.135
276.448
303.921
299.06
292.749
285.341
277.202
309.799
303.928
296.427
287.667
278.005
314.559
307.835
299.386
289.565
278.672
317.211
309.983
301.014
290.625
279.05
362.043
344.21
302.156
296.231
301.365
297.247
302.183
369.499
367.565
345.88
358.378
324.193
335.798
318.32
322.839
316.461
361.019
335.944
320.334
317.248
323.984
318.685
310.161
311.172
310.534
306.92
314.619
312.246
358.079
336.784
345.562
327.511
322.001
334.835
311.582
305.507
315.351
346.541
332.001
319.122
305.174
285.916
333.985
323.013
311.334
298.208
282.107
299.267
295.196
289.836
283.512
276.575
293.963
290.742
286.469
281.41
275.859
298.586
294.644
289.424
283.252
276.485
294.883
291.522
287.061
281.779
275.985
299.308
295.243
289.875
283.534
276.582
354.868
338.846
324.18
308.089
287.212
353.339
337.553
322.64
306.061
285.287
336.66
325.583
313.012
298.725
282.107
346.631
332.134
317.947
302.223
283.781
318.689
311.296
301.976
291.157
279.215
328.472
319.111
307.892
295.044
280.645
313.631
307.184
298.876
289.169
278.511
317.56
310.402
301.295
290.702
279.045
312.017
305.862
297.882
288.537
278.29
347.834
333.262
319.822
304.968
285.781
328.456
319.073
308.003
295.302
280.775
315.348
308.574
299.935
289.864
278.759
312.64
306.339
298.253
288.803
278.392
318.428
311.052
301.836
291.136
279.224
313.851
307.301
298.98
289.277
278.554
306.362
301.105
294.296
286.311
277.531
307.298
301.914
294.909
286.687
277.658
306.781
301.516
294.612
286.488
277.587
303.554
298.813
292.573
285.217
277.154
310.38
304.498
296.858
287.901
278.073
308.271
302.74
295.534
287.074
277.79
344.357
330.33
317.671
303.774
285.265
328.479
318.828
307.97
295.611
281.025
336.441
324.475
312.349
298.555
281.478
321.259
313.192
303.483
292.28
279.604
316.667
309.552
300.686
290.389
278.933
327.52
318.151
307.28
294.801
280.42
307.638
302.181
295.11
286.818
277.704
302.277
297.731
291.754
284.708
276.982
310.967
304.948
297.201
288.137
278.159
279.629
292.344
303.853
313.798
321.747
327.713
484.082
478.799
455.127
460.417
470.808
464.164
447.415
438.531
504.059
521.587
499.99
516.911
494.516
485.334
511.909
473.864
470.02
447.235
451.299
463.396
458.507
440.789
433.875
493.292
507.167
490.686
503.939
486.233
478.651
500.103
459.599
457.23
436.038
438.832
452.492
449.718
431.155
426.041
477.129
491.019
475.525
489.051
472.758
467.566
486.518
445.244
443.663
424.208
426.357
440.164
438.446
420.17
415.733
461.884
475.75
460.826
474.196
458.622
454.298
472.101
434.892
433.526
415.553
417.527
430.144
428.217
411.618
406.632
450.333
462.968
449.58
462.371
447.706
443.614
460.736
427.723
426.405
409.699
411.614
423.058
421.046
405.854
400.963
441.636
454.506
440.917
454.339
439.374
435.539
452.712
404.799
401.879
428.146
431.919
398.005
390.8
422.471
413.439
381.666
362.302
379.262
361.719
374.141
372.788
360.737
400.623
397.757
422.437
425.706
394.004
387.146
417.274
409.156
376.657
360.051
374.148
359.754
369.572
368.641
358.709
394.466
391.809
413.937
416.587
388.297
382.249
409.56
402.814
374.485
358.458
372.213
357.585
367.943
366.941
355.981
387.562
384.892
404.468
406.815
380.858
374.406
400.338
393.468
370.401
355.683
367.904
353.97
363.336
361.52
351.328
382.522
379.837
397.549
399.812
375.886
369.402
393.456
386.559
367.193
354.199
364.369
351.244
359.389
356.725
347.327
379.436
376.724
392.992
395.226
372.824
366.307
388.952
382.245
366.102
352.73
363.034
348.909
357.19
353.93
344.388
540.907
557.21
527.428
547.19
510.286
533.116
483.761
508.574
487.264
512.323
511.845
536.53
523.145
545.685
534.59
553.815
501.419
485.317
518.651
493.754
475.369
457.936
491.521
465.176
548.432
554.913
561.236
564.457
538.218
546.868
553.524
558.662
537.074
524.321
511.775
504.689
538.199
548.702
538.511
544.073
501.743
508.801
514.959
520.738
473.129
479.266
549.924
554.871
521.003
530.366
560.225
565.866
559.528
567.38
566.962
570.657
552.297
564.657
561.884
568.795
542.801
560.219
551.811
564.852
558.313
567.101
562.234
568.504
471.801
457.332
479.161
460.493
438.446
425.522
446.139
429.39
506.266
488.421
499.873
485.189
484.227
462.641
487.174
463.785
451.548
431.959
454.634
433.331
511.068
490.612
513.828
491.711
531.584
558.26
516.135
547.633
525.78
554.422
512.213
544.25
535.645
560.169
518.452
549.586
537.808
560.965
519.478
550.786
555.142
545.23
564.44
557.052
547.191
537.251
561.069
552.726
536.024
525.456
555.464
545.915
456.963
418.44
491.138
517.888
547.299
417.136
454.952
486.945
512.276
538.842
416.419
451.876
481.295
506.907
537.437
525.432
507.137
529.237
511.808
519.961
501.702
527.086
509.28
511.255
493.457
523.457
505.469
410.193
397.264
447.732
434.963
477.574
462.256
500.109
483.299
519.917
501.802
408.996
394.706
443.351
429.773
471.565
456.785
495.522
479.028
517.254
498.493
442.195
431.385
441.261
430.479
408.029
387.841
406.826
384.61
470.793
462.373
471.193
461.878
440.724
429.451
441.375
430.236
406.79
383.316
407.887
384.863
470.27
461.582
470.941
462.342
497.59
489.575
520.485
513.205
497.035
487.847
519.576
510.175
497.198
488.967
520.611
513.792
497.4
489.283
520.561
513.291
485.98
468.419
458.811
488.984
470.701
460.942
481.179
463.275
453.664
486.194
467.172
457.119
472.21
453.836
443.881
481.786
461.696
451.154
380.547
368.392
362.171
417.471
401.344
392.629
443.651
425.358
415.094
462.42
443.637
433.537
476.704
455.336
444.023
376.764
363.985
357.02
413.722
399.006
391.276
438.887
421.969
412.925
457.516
438.012
427.545
470.996
449.497
438.372
413.918
400.608
417.786
404.918
443.138
427.134
451.593
433.367
385.605
365.39
386.818
367.349
386.581
365.92
388.364
368.497
386.498
383.279
385.956
379.494
364.902
369.112
407.691
410.593
437.723
441.585
388.093
390.481
388.507
390.262
371.509
373.142
343.708
324.733
349.248
328.025
345.286
324.474
350.779
328.244
346.392
323.988
353.139
328.924
356.226
331.146
358.354
332.954
379.192
367.481
386.426
372.42
406.025
392.926
414.17
397.936
365.608
352.244
358.204
347.613
390.513
375.368
392.975
376.988
419.02
400.937
421.836
402.473
369.39
355.055
371.51
356.669
348.118
326.218
336.446
320.54
341.577
322.094
332.632
317.809
351.874
329.008
338.934
322.403
354.076
330.959
340.518
323.634
326.295
315.39
318.053
310.935
327.501
317.088
317.782
311.103
328.998
320.639
317.338
311.931
359.259
383.396
342.11
330.839
316.484
381.433
355.807
336.18
324.321
312.358
381.685
357.745
340.116
327.417
314.595
306.639
298.383
303.55
295.569
309.181
300.86
304.588
296.798
313.439
305.548
306.29
298.808
374.647
362.175
348.985
337.915
331.026
322.629
319.162
311.284
308.495
301.434
374.41
361.539
351.32
340.449
334.364
325.266
321.936
313.394
311.217
304.108
354.396
340.962
355.501
340.33
375.787
359.297
376.701
357.089
338.642
326.641
337.436
326.506
356.463
339.889
357.876
341.303
377.992
355.396
379.497
356.864
339.575
326.819
340.801
327.976
324.462
314.801
313.681
304.708
324.142
314.132
312.97
304.494
324.72
315.507
314.082
304.753
326.258
316.259
314.764
305.932
288.278
282.725
280.561
281.815
277.946
276.658
291.37
285.465
283.002
283.07
279.039
277.572
296.141
289.909
287.412
284.98
280.596
279.039
348.482
338.92
334.375
327.269
319.843
316.6
312.852
306.357
303.803
301.297
294.875
292.254
286.829
282.315
280.526
346.881
336.598
331.625
328.472
319.759
315.509
314.459
306.964
303.488
301.944
295.825
293.429
288.015
283.652
281.47
309.591
300.091
294.094
289.307
311.02
300.657
294.364
289.353
309.476
300.122
294.2
289.461
311.261
300.865
294.606
289.577
309.213
300.127
294.364
289.7
311.564
301.15
294.915
289.853
312.744
301.844
295.214
289.968
313.92
302.61
295.562
290.108
310.581
300.921
294.893
290.044
308.432
300.207
294.503
290.19
308.637
300.033
294.454
289.964
307.125
299.558
294.173
290.147
312.055
301.693
295.219
290.104
309.527
300.82
294.805
290.297
313.22
302.391
295.584
290.293
310.449
301.401
295.162
290.536
307.212
299.207
293.715
289.315
304.408
298.202
293.24
289.394
307.054
299.197
293.768
289.436
304.443
298.252
293.286
289.494
306.795
299.171
293.845
289.637
304.731
298.424
293.413
289.674
306.37
299.11
293.901
289.897
304.889
298.551
293.546
289.9
305.846
299.002
293.863
290.103
301.867
297.378
292.692
289.774
300.408
296.98
292.449
289.921
302.271
297.544
292.796
289.858
300.88
297.165
292.552
289.998
302.921
297.826
292.966
289.995
301.642
297.478
292.721
290.129
303.718
298.172
293.219
290.2
302.595
297.881
292.964
290.307
304.738
298.629
293.525
290.417
303.532
298.31
293.216
290.493
306.177
299.514
293.967
290.745
304.833
299.195
293.732
290.888
305.512
299.056
293.739
290.586
304.278
298.761
293.473
290.691
306.789
299.99
294.194
290.892
305.389
299.663
293.984
291.082
307.518
300.523
294.517
291.118
306.119
300.188
294.307
291.327
284.723
281.632
279.422
278.011
277.326
284.735
281.639
279.426
278.014
277.328
284.786
281.662
279.438
278.02
277.333
284.811
281.679
279.448
278.027
277.338
284.851
281.695
279.455
278.031
277.34
284.917
281.737
279.48
278.046
277.352
285.067
281.823
279.53
278.076
277.374
285.212
281.91
279.581
278.108
277.396
284.995
281.772
279.499
278.057
277.359
285.024
281.777
279.5
278.057
277.359
284.921
281.73
279.474
278.042
277.348
284.978
281.751
279.485
278.048
277.353
285.082
281.825
279.53
278.076
277.373
285.109
281.828
279.53
278.076
277.373
285.236
281.919
279.585
278.11
277.398
285.259
281.92
279.584
278.109
277.397
284.712
281.624
279.417
278.008
277.324
284.711
281.619
279.414
278.006
277.323
284.761
281.647
279.429
278.015
277.329
284.755
281.639
279.424
278.012
277.327
284.823
281.675
279.443
278.023
277.335
284.814
281.665
279.437
278.019
277.332
284.893
281.707
279.46
278.033
277.342
284.874
281.694
279.452
278.028
277.338
284.94
281.731
279.473
278.041
277.347
537.701
533.065
536.972
532.292
535.659
530.972
534.088
529.212
532.799
527.599
533.616
530.605
533.109
529.352
533.867
531.018
534.149
531.281
565.566
571.363
572.629
572.917
572.979
559.365
569.694
572.251
572.837
572.96
565.656
571.412
572.644
572.921
572.98
559.314
569.73
572.265
572.841
572.961
565.653
571.449
572.657
572.925
572.981