/*--------------------------------*- C++ -*----------------------------------*\
| =========                 |                                                 |
| \\      /  F ield         | OpenFOAM: The Open Source CFD Toolbox           |
|  \\    /   O peration     | Version:  2412                                  |
|   \\  /    A nd           | Website:  www.openfoam.com                      |
|    \\/     M anipulation  |                                                 |
\*---------------------------------------------------------------------------*/
FoamFile
{
    version     2.0;
    format      ascii;
    arch        "LSB;label=32;scalar=64";
    class       volVectorField;
    location    "0.3";
    object      flux;
}
// * * * * * * * * * * * * * * * * * * * * * * * * * * * * * * * * * * * * * //

dimensions      [0 1 -1 1 0 0 0];

internalField   nonuniform List<vector> 
5712
(
(-0.502077 0.738085 0.509533)
(-0.629318 0.404887 1.52215)
(-1.11039 1.23833 0.394837)
(-1.80347 0.829307 1.6324)
(-1.72262 1.19264 0.21346)
(-3.39383 1.0468 1.67249)
(-1.14623 1.63594 0.332857)
(-3.46526 2.14766 2.49643)
(-1.16151 2.54153 0.527514)
(-2.74984 3.38065 3.09906)
(-1.43406 1.4 0.561222)
(-2.42261 1.27062 2.29817)
(-1.08051 0.859192 0.61283)
(-1.4935 0.610309 2.08825)
(-0.587289 0.589894 0.614018)
(-0.618704 0.337059 1.8366)
(-0.945213 1.07839 0.273083)
(-1.12184 0.79294 0.161721)
(-1.23313 1.01493 0.844803)
(-1.16731 0.87119 0.419998)
(-0.789349 1.19083 0.253836)
(-1.14862 0.999285 0.116875)
(-1.16441 1.47345 0.865771)
(-1.15976 1.10955 0.346792)
(-0.366459 0.415434 0.411278)
(-0.296727 0.27505 0.334587)
(-0.499415 0.22018 1.19852)
(-0.38812 0.157933 0.957281)
(-0.853633 0.56599 0.275702)
(-0.629875 0.350889 0.244214)
(-1.55111 0.315886 1.19297)
(-1.16994 0.215205 0.98678)
(-1.28096 1.32868 0.620145)
(-1.32221 1.31585 0.235434)
(-1.43514 1.03233 0.491071)
(-1.53239 0.68095 0.198341)
(-0.403039 0.826701 0.250113)
(-0.328971 0.704592 0.621843)
(-2.79095 0.689654 2.58598)
(-3.43231 0.666416 0.776801)
(-1.56834 0.831154 0.796337)
(-2.0477 0.846447 0.341313)
(-3.35563 1.99815 2.96178)
(-4.13142 2.2312 0.909006)
(-1.59378 1.24742 0.688884)
(-1.96288 1.36682 0.293967)
(-2.22395 1.21112 1.84226)
(-2.89623 0.956373 0.60955)
(-1.87654 1.06098 0.934619)
(-2.52741 0.696103 0.41579)
(-1.12024 0.466939 1.61022)
(-1.37997 0.421844 0.505298)
(-0.251719 0.443487 0.561303)
(-0.0842795 0.827197 0.298492)
(-0.322159 0.22416 0.782205)
(-0.11745 0.358326 0.334083)
(-0.573305 0.572698 0.528425)
(-0.245028 1.07191 0.313061)
(-0.952356 0.373991 0.808581)
(-0.36634 0.590595 0.326293)
(-0.688221 0.545219 0.653277)
(-0.237495 1.25491 0.413399)
(-0.650809 0.431553 0.516957)
(-0.197066 0.858082 0.236614)
(-1.22106 0.115162 0.845895)
(-0.377594 0.566718 0.325201)
(-1.58259 0.00273422 0.326793)
(-0.526163 0.403026 0.128257)
(-1.61332 0.715378 0.931952)
(-0.956317 0.851621 0.69892)
(-1.39161 0.842951 0.536463)
(-0.960741 0.886498 0.4747)
(-1.45451 0.833976 0.829562)
(-0.91909 0.767894 0.694433)
(-1.19481 0.944283 0.441167)
(-0.888181 0.79845 0.432618)
(-1.24439 0.901839 0.582704)
(-0.930836 1.08313 0.515204)
(-1.36003 0.832814 0.848119)
(-0.897497 1.03266 0.709924)
(-1.37569 0.883736 0.380466)
(-0.986092 0.907886 0.319537)
(-1.44029 0.87977 0.198929)
(-1.01335 0.916419 0.165564)
(-1.20156 1.00474 0.314693)
(-0.898932 0.817849 0.286437)
(-1.26915 1.03362 0.15714)
(-0.919119 0.827074 0.147199)
(-1.27766 0.868863 0.418057)
(-0.976558 1.10578 0.341287)
(-1.37268 0.790783 0.225619)
(-1.01346 1.11252 0.162737)
(-1.43059 1.24159 0.557438)
(-0.659501 1.57032 0.33831)
(-0.952565 1.54166 0.589256)
(-1.1876 2.66335 0.688006)
(-1.52798 1.29977 0.804331)
(-0.766699 1.86534 0.636874)
(-0.929058 1.52468 0.860706)
(-1.22544 2.96435 1.1809)
(-1.43658 1.17601 0.380476)
(-0.608866 1.36793 0.179688)
(-0.997187 1.5382 0.366569)
(-1.18119 2.50863 0.404976)
(-1.49179 1.13315 0.201684)
(-0.610893 1.24485 0.0786325)
(-1.04249 1.5432 0.157905)
(-1.1986 2.44193 0.150432)
(-0.240075 0.450449 0.725969)
(-0.269573 0.595645 1.3288)
(-0.0881278 1.25774 0.499327)
(-0.193335 2.17004 1.52015)
(-0.681108 0.513156 0.777462)
(-0.790779 0.594645 1.30452)
(-0.309768 1.49323 0.584883)
(-0.62917 2.33657 1.58471)
(-1.09106 0.566931 0.940742)
(-1.26251 0.586772 1.22302)
(-0.585403 1.75134 0.775385)
(-1.07446 2.48127 1.55648)
(-0.785157 1.09297 0.737609)
(-0.347237 0.89345 0.65657)
(-1.06887 1.21525 0.746905)
(-1.56873 1.36228 0.806744)
(-0.937203 2.3376 0.946158)
(-0.195061 0.885179 0.404159)
(-0.35538 0.985568 0.619509)
(-0.696454 1.17819 0.99027)
(-1.52411 1.19081 1.29669)
(-1.27048 2.74567 1.99087)
(-0.527341 0.790899 0.561347)
(-0.812898 0.897919 0.59914)
(-1.06514 0.972088 0.677697)
(-1.22363 1.37734 0.92529)
(-1.71086 3.43926 1.53364)
(-0.231505 0.114634 1.55911)
(-0.2026 0.146583 1.35245)
(-0.156775 0.328418 1.83698)
(-0.143955 0.792073 1.65423)
(-0.674235 0.161088 1.46781)
(-0.531119 0.217452 1.31016)
(-0.500964 0.41736 1.81167)
(-0.433344 0.860457 1.60876)
(-0.988452 0.228761 1.27514)
(-0.739988 0.199828 1.18032)
(-0.763669 0.538485 1.68184)
(-0.646254 0.942895 1.51493)
(-0.329648 0.763505 0.454983)
(-0.312218 0.609615 0.414702)
(-0.569655 0.802605 0.61821)
(-0.539253 0.608293 0.573447)
(-0.908395 0.900437 0.844171)
(-0.74612 0.629454 0.789025)
(-1.28132 0.762483 1.12446)
(-1.00438 0.553511 1.01307)
(-1.13058 0.714349 1.57023)
(-0.972044 1.13298 1.4276)
(-0.506376 0.671554 0.386357)
(-0.406026 0.487759 0.379708)
(-0.752009 0.75445 0.554019)
(-0.504815 0.568796 0.571412)
(-0.880191 0.809744 0.741866)
(-0.555012 0.60509 0.772272)
(-0.973649 0.89996 0.989057)
(-0.599979 0.663064 1.01854)
(-1.30231 0.818852 1.45303)
(-0.839634 1.15962 1.43823)
(-0.649711 0.796538 0.523674)
(-0.218161 0.750174 0.304353)
(-0.582882 0.821422 0.397525)
(-0.371919 0.808809 0.306525)
(-0.584859 0.672327 0.467981)
(-0.474302 0.546622 0.388639)
(-0.615486 0.691528 0.362498)
(-0.564989 0.590805 0.350207)
(-0.63013 0.888025 0.444884)
(-0.404998 0.817941 0.353413)
(-0.731964 0.895718 0.601492)
(-0.206081 0.796216 0.375451)
(-0.591003 0.829563 0.190593)
(-0.580125 0.82514 0.211512)
(-0.627032 0.831245 0.0588216)
(-0.635634 0.828034 0.0674881)
(-0.643169 0.705161 0.216475)
(-0.707039 0.619641 0.246793)
(-0.682956 0.705897 0.0659799)
(-0.752146 0.624044 0.080807)
(-0.641831 0.857335 0.203225)
(-0.634972 0.794251 0.230693)
(-0.678896 0.875069 0.0620615)
(-0.699615 0.805052 0.0741349)
(-0.901022 0.967097 0.498843)
(-0.481048 0.881431 0.349208)
(-1.2978 0.739179 0.608686)
(-0.486955 0.92144 0.327518)
(-0.884906 0.998106 0.745025)
(-0.219928 0.879207 0.469494)
(-1.20188 0.774333 0.975138)
(-0.224262 0.978755 0.576523)
(-0.928147 0.916766 0.256091)
(-0.654466 0.84831 0.212979)
(-1.34982 0.722318 0.335166)
(-0.57021 0.90322 0.163539)
(-0.878689 0.910057 0.16675)
(-0.750229 0.828696 0.143775)
(-1.26957 0.701682 0.186586)
(-0.690497 0.870898 0.12162)
(-0.151663 0.0956581 1.05939)
(-0.105313 0.0527532 0.624592)
(-0.0588415 0.0265224 0.195976)
(-0.102997 0.0440865 1.16616)
(-0.0762006 0.0232302 0.658312)
(-0.0470555 0.0178796 0.212226)
(-0.381523 0.151904 1.00881)
(-0.222658 0.0652654 0.589513)
(-0.11962 0.0326476 0.191761)
(-0.288299 0.106917 1.13298)
(-0.164302 0.0654619 0.639854)
(-0.0867358 0.0340855 0.202702)
(-0.458887 0.134485 0.902041)
(-0.243256 0.0729551 0.512111)
(-0.141485 0.0487591 0.157547)
(-0.425814 0.193748 1.06867)
(-0.218084 0.106546 0.601865)
(-0.123599 0.0611828 0.189081)
(-0.203759 0.398019 0.266989)
(-0.0847049 0.198357 0.141504)
(-0.0428565 0.104617 0.0400251)
(-0.396418 0.404284 0.428088)
(-0.15853 0.215754 0.250141)
(-0.0661311 0.120482 0.0743649)
(-0.477815 0.340071 0.603168)
(-0.200343 0.185663 0.354248)
(-0.0801838 0.110899 0.108007)
(-0.629436 0.322087 0.768036)
(-0.296348 0.179479 0.435173)
(-0.1425 0.106024 0.131723)
(-0.662504 0.317766 0.988213)
(-0.29283 0.135828 0.545265)
(-0.125583 0.0621527 0.171585)
(-0.359523 0.311377 0.27125)
(-0.164231 0.160863 0.133679)
(-0.0768413 0.0867004 0.0419475)
(-0.353715 0.372378 0.401407)
(-0.162005 0.191711 0.229897)
(-0.0663788 0.105661 0.0754718)
(-0.413031 0.345685 0.542146)
(-0.182677 0.164741 0.311522)
(-0.071039 0.0887216 0.100197)
(-0.473296 0.325306 0.70901)
(-0.214129 0.158645 0.391515)
(-0.0868327 0.0868032 0.123008)
(-0.661111 0.29708 0.920444)
(-0.263855 0.120219 0.471343)
(-0.0890825 0.0528361 0.148442)
(-0.518716 1.18069 -0.0142149)
(-0.785323 1.11758 0.0313423)
(-0.475024 1.33815 0.0222564)
(-0.632894 1.11904 0.0953374)
(-0.524037 1.28889 0.107512)
(-0.968935 1.15011 0.0854072)
(-0.481307 1.6565 0.26534)
(-0.849853 1.25977 0.20214)
(0.0135944 0.648063 0.0226373)
(-0.0384247 0.602728 0.0241879)
(0.0283923 0.668669 0.0239506)
(-0.0220461 0.564786 0.025367)
(-0.0986896 0.886144 0.012812)
(-0.184867 0.667726 0.0235756)
(-0.0602193 0.909013 0.0217156)
(-0.118768 0.617366 0.0350101)
(-0.0890888 0.984926 0.0495663)
(-0.15266 0.971798 0.0337021)
(-0.432909 0.816342 0.112084)
(-0.589767 0.865549 0.0825763)
(-0.255186 0.934847 0.0438005)
(-0.216785 0.876061 0.0648625)
(-0.560548 1.21763 0.123567)
(-0.520869 1.30757 -0.00167577)
(-0.87952 1.41852 0.318953)
(-0.972809 1.57709 0.0766334)
(-0.00690344 0.967113 -0.199108)
(0.19567 1.02685 -0.083311)
(-0.355147 0.82671 0.000333417)
(-0.261687 0.843558 -0.0175413)
(-0.231308 0.872694 -0.0440358)
(-0.127373 0.859748 -0.0540836)
(-0.0413149 0.442691 0.233486)
(-0.0255444 0.208143 0.0723455)
(-0.0373062 0.427833 0.0591151)
(-0.0251515 0.234181 0.0248833)
(-0.11724 0.444763 0.232508)
(-0.0337237 0.205195 0.0711031)
(-0.0717536 0.424819 0.0627437)
(-0.0209598 0.226328 0.0267781)
(-0.312186 0.419375 0.221614)
(-0.0743337 0.186799 0.0713875)
(-0.259422 0.412959 0.0730707)
(-0.0739593 0.215958 0.0292052)
(-0.290358 0.415874 0.0509498)
(-0.0751195 0.225664 0.0144583)
(-0.321186 0.403404 0.00115707)
(-0.0838637 0.223404 0.000283051)
(-0.559996 0.745875 0.469076)
(-0.455713 0.486054 0.375234)
(-0.444306 0.779899 0.192343)
(-0.441006 0.520529 0.22788)
(-0.947875 0.894248 0.668189)
(-0.744162 0.690752 0.578578)
(-0.789596 0.971342 0.319912)
(-0.699371 0.723083 0.34587)
(-0.279945 0.659939 0.129321)
(-0.271606 0.354557 0.147363)
(-0.320017 0.64652 0.31102)
(-0.257396 0.323511 0.227248)
(-0.420671 0.831765 0.112065)
(-0.432525 0.541075 0.139607)
(-0.441879 0.877585 0.0441152)
(-0.434216 0.548715 0.0659921)
(-0.769629 1.04893 0.207361)
(-0.684282 0.746721 0.217358)
(-0.80749 1.09921 0.0974082)
(-0.690686 0.757659 0.108341)
(-0.251787 0.664851 0.0585979)
(-0.270012 0.369598 0.0887139)
(-0.243182 0.672623 0.0139423)
(-0.26914 0.373565 0.0416885)
(-0.0296731 0.321905 0.0853182)
(-0.0197631 0.169976 0.0352675)
(-0.160786 0.22813 0.089745)
(-0.0507763 0.118554 0.0338142)
(-0.0371361 0.279249 0.168542)
(-0.0160084 0.14611 0.0576695)
(-0.143566 0.202279 0.127354)
(-0.0430007 0.104607 0.0472452)
(-0.0280937 0.337854 0.036982)
(-0.0165248 0.182661 0.0176009)
(-0.165903 0.239882 0.0560483)
(-0.0546186 0.125521 0.0192633)
(-0.0329441 0.343163 0.00416276)
(-0.0162813 0.189221 0.00305212)
(-0.164376 0.242443 0.0270672)
(-0.056082 0.127646 0.00728684)
(0.00219875 0.057128 0.25)
(0.00533283 0.0244143 0.116591)
(-0.0102889 0.0923804 0.0839589)
(-0.00404771 0.0450301 0.0615496)
(0.0123622 0.0582433 0.252988)
(0.0214212 0.0276014 0.121646)
(-0.016059 0.0926858 0.0801504)
(-0.00541248 0.0492674 0.0596898)
(-0.0348115 0.0610652 0.26236)
(-0.0111996 0.0363968 0.127312)
(-0.0419828 0.0896278 0.0776537)
(-0.0269426 0.0563348 0.0559062)
(0.147222 0.293565 0.458415)
(0.0733141 0.589007 0.572658)
(0.0705273 0.177212 0.329016)
(0.0404344 0.153185 0.189684)
(0.00150368 0.096116 0.0624624)
(0.194848 0.582696 0.31957)
(0.244277 0.31001 0.290822)
(0.0863769 0.142917 0.234185)
(0.075217 0.122573 0.162244)
(0.0057643 0.0682943 0.0632671)
(-0.384079 0.574534 0.467822)
(-0.249587 0.360052 0.31978)
(-0.160126 0.234749 0.199267)
(-0.116289 0.15158 0.115675)
(-0.0376681 0.0831317 0.04171)
(0.00583256 0.011586 0.0608141)
(0.00390821 0.00661894 0.0346332)
(-0.00130715 0.0252443 0.0419237)
(-0.000345856 0.0168148 0.0285312)
(0.0165968 0.0148434 0.0672706)
(0.0131946 0.00758418 0.0395368)
(-0.00305546 0.0305794 0.0425475)
(-0.000641343 0.0203732 0.0299189)
(0.0122412 0.0219313 0.0767855)
(0.0141844 0.0120443 0.0487339)
(-0.0110294 0.0378667 0.0429994)
(-0.00508706 0.0260103 0.0317277)
(0.032882 0.537723 0.324389)
(-0.0173984 0.398757 0.262595)
(0.137504 0.27726 0.226189)
(0.0582627 0.187134 0.159935)
(0.049254 0.140971 0.125687)
(0.01695 0.0941742 0.0963318)
(0.0421279 0.0973542 0.0830656)
(0.0226243 0.0624252 0.0618196)
(0.00319321 0.054242 0.0397942)
(0.00180318 0.037778 0.0333707)
(-0.210216 0.467821 0.243437)
(-0.13137 0.312161 0.229735)
(-0.0483043 0.286797 0.161737)
(-0.00830491 0.180597 0.147042)
(-0.017763 0.183133 0.104729)
(0.00266313 0.114847 0.0922265)
(-0.0138206 0.112406 0.0669939)
(0.00250701 0.0704094 0.0577972)
(0.00061984 0.0666146 0.0293651)
(0.0029212 0.0500675 0.0322185)
(-0.156199 0.286753 0.160276)
(-0.112936 0.159472 0.103841)
(-0.278812 0.303706 0.106123)
(-0.143959 0.15601 0.0589223)
(-0.320858 0.431122 0.288707)
(-0.214732 0.249954 0.173323)
(-0.437861 0.458714 0.221081)
(-0.256319 0.260402 0.121623)
(-0.166414 0.209146 0.0572875)
(-0.0813429 0.111658 0.0332053)
(-0.0781522 0.200234 0.0893704)
(-0.0624305 0.114682 0.063516)
(-0.317608 0.326221 0.105721)
(-0.128587 0.152136 0.0470475)
(-0.339778 0.334888 0.0339041)
(-0.129298 0.156983 0.0162057)
(-0.495034 0.497204 0.175982)
(-0.259458 0.276605 0.0891946)
(-0.533256 0.504176 0.0541102)
(-0.265523 0.283439 0.030817)
(-0.192534 0.215295 0.062789)
(-0.0672889 0.107484 0.0261294)
(-0.205633 0.22118 0.0208925)
(-0.0647399 0.113281 0.0086625)
(-0.0857294 0.127645 0.0263933)
(-0.044156 0.0734383 0.0233003)
(-0.0253054 0.074431 0.0149552)
(-0.0316095 0.0623056 0.0186954)
(-0.0446174 0.126331 0.0456497)
(-0.0358732 0.0747478 0.0389092)
(-0.0124452 0.0759379 0.0185694)
(-0.0243356 0.0599107 0.024322)
(-0.0915157 0.128029 0.0300405)
(-0.0390467 0.0720734 0.0156106)
(-0.0316046 0.0720111 0.00930073)
(-0.0357802 0.0644273 0.012898)
(-0.108262 0.135075 0.00710797)
(-0.0361698 0.0745963 0.00113838)
(-0.0412493 0.0755013 -0.00601745)
(-0.0316002 0.0638709 -0.000935171)
(0.00195382 0.00518638 0.019341)
(0.000849781 0.00231871 0.00773549)
(0.000576567 0.00102063 0.0019739)
(-0.000332367 0.0174609 0.0146583)
(8.5387e-05 0.00510336 0.00390422)
(8.64893e-05 0.0022833 0.000977191)
(0.00658726 0.00484216 0.0232073)
(0.00321067 0.00260226 0.00980215)
(0.00206747 0.00121577 0.00266388)
(-0.000569542 0.0198521 0.0160206)
(0.000529321 0.00623209 0.00453709)
(0.000461445 0.00287181 0.00117615)
(0.00842579 0.0074991 0.0291742)
(0.00531166 0.00425303 0.012741)
(0.00335849 0.00225076 0.00327078)
(-0.00269244 0.0234481 0.017667)
(0.00104874 0.00824346 0.00531125)
(0.000963089 0.0039664 0.00136531)
(-0.0272004 0.227848 0.151381)
(-0.00434646 0.112122 0.0741423)
(-0.00103115 0.0597792 0.0202035)
(0.0101743 0.10532 0.0888002)
(0.011247 0.0511166 0.0426287)
(0.00774434 0.0273525 0.0116764)
(0.00504685 0.0556066 0.0584792)
(0.00586823 0.0265079 0.0268255)
(0.00464078 0.0142097 0.00736969)
(0.00906174 0.0347111 0.0366091)
(0.00622724 0.015702 0.0159981)
(0.00435041 0.00811383 0.00414941)
(-0.00194399 0.0307401 0.0195708)
(0.00121586 0.0117177 0.00595772)
(0.000842153 0.00562302 0.00155124)
(-0.107296 0.170416 0.158819)
(-0.0406026 0.0815254 0.0712956)
(-0.0153799 0.0413244 0.0211072)
(-0.0259179 0.0931979 0.0994339)
(-0.00567445 0.0428678 0.0435351)
(0.000429136 0.0213588 0.0125888)
(-0.0124376 0.0596782 0.0623543)
(-0.00104925 0.0262869 0.0267929)
(0.0016339 0.0125225 0.00751401)
(-0.00675076 0.0393789 0.03845)
(7.73932e-05 0.0167617 0.0155117)
(0.00140176 0.00784988 0.00422317)
(-0.00711046 0.0430311 0.0231764)
(-0.000291684 0.014851 0.00669695)
(0.000407927 0.00691384 0.00189389)
(-0.00182423 0.0689892 0.0167344)
(-0.00036443 0.0194422 0.00354582)
(-7.78346e-05 0.00540754 0.000885018)
(-2.39443e-05 0.001447 0.000203291)
(-0.000954546 0.0799153 0.00658479)
(-0.00012213 0.0220906 0.00143623)
(6.05772e-05 0.00596766 0.000377197)
(1.92189e-05 0.00158982 8.63665e-05)
(-0.0046555 0.0656971 0.0162776)
(-0.000948221 0.0187751 0.00352028)
(-0.000163893 0.00529516 0.000941609)
(-5.40141e-05 0.00143568 0.000223575)
(-0.00227925 0.077878 0.00665829)
(-0.000298212 0.0218171 0.0015234)
(9.84803e-05 0.00607116 0.000481997)
(2.43132e-05 0.00166629 0.000119987)
(-0.00728723 0.0598634 0.017125)
(-0.00157032 0.0176405 0.00382488)
(-0.000301365 0.00538841 0.00109992)
(-6.64035e-05 0.00150768 0.000271411)
(-0.00561219 0.073372 0.00838359)
(-0.00104575 0.0213579 0.00208372)
(-0.000196973 0.00644602 0.000502586)
(-3.40387e-05 0.0018264 0.000124511)
(-0.00341055 0.0760914 0.00256868)
(-0.000662479 0.0219989 0.000812628)
(-0.000208975 0.00605767 1.51311e-05)
(-4.88907e-05 0.00165338 6.94881e-06)
(-0.00355805 0.0761887 0.00051221)
(-0.000753731 0.0222013 0.000348865)
(-0.000139704 0.00590429 -9.72132e-06)
(-2.61735e-05 0.00156719 -3.54012e-06)
(-0.012072 0.0611752 0.0110656)
(-0.00271222 0.0183636 0.00269554)
(-0.000789161 0.00568089 0.000682191)
(-0.000167726 0.001601 0.000162008)
(-0.0127872 0.0455657 0.00928057)
(-0.00289238 0.0143041 0.00223126)
(-0.000986777 0.00461156 0.000690449)
(-0.000206661 0.00126763 0.000172524)
(-0.0101316 0.0517766 0.0161357)
(-0.00228864 0.0158149 0.00373522)
(-0.000626019 0.00518976 0.00109318)
(-8.86425e-05 0.00150247 0.000259598)
(-0.0105562 0.0407353 0.0126332)
(-0.00239207 0.0129645 0.00292029)
(-0.000864595 0.00429822 0.0009241)
(-0.000189268 0.0011923 0.000186955)
(-0.0109043 0.0660392 0.00594774)
(-0.0024683 0.0197958 0.00154909)
(-0.000675327 0.00580477 0.000366388)
(-0.000151282 0.00159422 0.000113659)
(-0.0137678 0.0482295 0.00549618)
(-0.00312032 0.0151285 0.00138424)
(-0.00104089 0.00473718 0.000429205)
(-0.000224271 0.00128196 0.000118985)
(-0.0105605 0.0678724 0.00183283)
(-0.00242206 0.0204386 0.000574205)
(-0.000597279 0.00585561 0.000125172)
(-0.000134479 0.00159314 3.58787e-05)
(-0.0141453 0.0491482 0.00185393)
(-0.00321226 0.0155129 0.000527413)
(-0.00106362 0.00483307 0.000170992)
(-0.000239761 0.00131325 5.02575e-05)
(-0.00127332 0.0463849 0.0198368)
(-0.000285196 0.0149655 0.00427593)
(-9.04269e-05 0.00459465 0.00110487)
(-3.27977e-05 0.00126591 0.000257468)
(-0.000767592 0.0285402 0.0172619)
(-0.000187002 0.0105079 0.00389661)
(-8.45315e-05 0.00362668 0.00114597)
(-2.45118e-05 0.00100537 0.000256748)
(-0.00327775 0.0442953 0.0190391)
(-0.00074952 0.0144576 0.00414875)
(-0.000211199 0.0045296 0.00111134)
(-7.11232e-05 0.00125508 0.000256097)
(-0.0016728 0.0283875 0.0164767)
(-0.000410942 0.0104086 0.00372086)
(-0.000191369 0.00359938 0.00111177)
(-6.05772e-05 0.000998455 0.000241693)
(-0.00782834 0.0413034 0.0181953)
(-0.00182276 0.013674 0.00402193)
(-0.000526057 0.004497 0.00118057)
(-0.000143292 0.00125435 0.000272855)
(-0.00563071 0.0291476 0.0148024)
(-0.00132555 0.0105278 0.00332818)
(-0.000440111 0.0036234 0.00104567)
(-9.03521e-05 0.000990853 0.000223051)
(-0.0049253 0.0379945 0.0150875)
(-0.00120413 0.0124839 0.00336521)
(-0.000357635 0.00423388 0.00107132)
(-3.38166e-05 0.00119435 0.000270792)
(-0.00287169 0.0294669 0.0156108)
(-0.000698132 0.0104618 0.00346205)
(-0.000289278 0.00369348 0.00121777)
(-6.03638e-05 0.00101285 0.000276949)
(-0.00901464 0.0345039 0.0106752)
(-0.00207228 0.0114284 0.00239781)
(-0.000754916 0.00387095 0.00076251)
(-0.000129193 0.00108039 0.000165597)
(-0.000122576 0.0163728 0.0115561)
(-2.48452e-05 0.00723456 0.00259954)
(-2.06457e-05 0.00242131 0.000792715)
(-4.26586e-06 0.000499881 0.000172306)
(0.000393253 0.00865065 0.00400295)
(0.000100369 0.00575227 0.000874491)
(1.7401e-05 0.00196288 0.000240908)
(4.35524e-06 0.000394203 5.50957e-05)
(-0.000741754 0.017521 0.0115107)
(-0.000159181 0.0075551 0.00257022)
(-8.93743e-05 0.00251469 0.000778156)
(-1.80637e-05 0.000528402 0.00016484)
(0.000945222 0.00976111 0.00413637)
(0.000243983 0.00608439 0.000898082)
(3.26938e-05 0.00204339 0.000247902)
(9.00726e-06 0.00040948 5.66202e-05)
(-0.00165486 0.0195316 0.0109926)
(-0.000372154 0.00807681 0.00240673)
(-0.000163727 0.00260073 0.000746521)
(-2.79712e-05 0.000534207 0.000152208)
(0.00144568 0.0117341 0.004098)
(0.000355261 0.00666509 0.000873136)
(4.62472e-05 0.00214769 0.000248206)
(1.17915e-05 0.000425004 5.75114e-05)
(-0.0017988 0.0228899 0.00949561)
(-0.000413659 0.00880249 0.00202434)
(-0.000200978 0.00279768 0.000683313)
(-3.77513e-05 0.000586419 0.000144637)
(0.00183604 0.0148092 0.00377662)
(0.000426984 0.0075088 0.000773409)
(3.77175e-05 0.00232918 0.000247695)
(6.68126e-06 0.00046084 5.86267e-05)
(-0.00282185 0.0281429 0.00831617)
(-0.000589481 0.00988455 0.00176721)
(-0.00033486 0.00311821 0.000611058)
(-7.40779e-05 0.000677043 0.000137984)
(0.00119842 0.0193895 0.00350164)
(0.000327677 0.00848006 0.000714974)
(-2.21061e-05 0.00251512 0.000241476)
(-5.68129e-06 0.00049374 5.64896e-05)
(-0.00810634 0.0333942 0.00536472)
(-0.0015687 0.0112649 0.00123702)
(-0.000649948 0.00334066 0.000365844)
(-0.000130992 0.000680099 8.3794e-05)
(-0.00248591 0.0232082 0.00240944)
(-0.000357066 0.00978645 0.000571633)
(-0.000162165 0.00285252 0.000148033)
(-3.56891e-05 0.000543298 3.57202e-05)
(-0.00534754 0.0321829 0.00666668)
(-0.00102438 0.0107369 0.00146313)
(-0.000519973 0.00322449 0.000485677)
(-0.000108537 0.000670082 0.00010849)
(-0.000833323 0.0225185 0.00294233)
(-1.68918e-05 0.00935289 0.000640933)
(-0.00010119 0.0027003 0.000199692)
(-2.22118e-05 0.000519999 4.88521e-05)
(-0.00991871 0.0335804 0.0034451)
(-0.00199785 0.0114936 0.00085555)
(-0.000745407 0.00331792 0.000242576)
(-0.000158475 0.000649621 6.283e-05)
(-0.0033018 0.0233832 0.00158017)
(-0.000577878 0.010009 0.000404483)
(-0.000200571 0.00289608 9.10128e-05)
(-4.65158e-05 0.000541987 2.35728e-05)
(-0.0107179 0.0329684 0.00126945)
(-0.00224778 0.0116327 0.000364269)
(-0.00079995 0.00336927 0.000111404)
(-0.000177297 0.00065605 3.14427e-05)
(-0.0036778 0.0239522 0.000631151)
(-0.000719963 0.0101632 0.00018787)
(-0.000222982 0.00294422 4.73995e-05)
(-5.28832e-05 0.00054835 1.3305e-05)
(-5.31724e-06 0.0003607 3.20036e-05)
(-6.7003e-07 9.80088e-05 4.63953e-06)
(-4.91895e-08 2.55627e-05 6.68107e-07)
(4.58711e-09 6.28545e-06 9.85669e-08)
(3.80957e-09 1.16444e-06 1.7253e-08)
(-7.54352e-07 0.000390814 1.29696e-05)
(5.01191e-08 0.000102833 1.93603e-06)
(7.71327e-08 2.62818e-05 2.85654e-07)
(2.81248e-08 6.39068e-06 4.30815e-08)
(9.06041e-09 1.17777e-06 7.71581e-09)
(-1.41795e-05 0.000362655 3.15555e-05)
(-1.64523e-06 9.79542e-05 4.67179e-06)
(-1.16872e-07 2.5598e-05 7.16981e-07)
(9.40928e-09 6.3115e-06 1.15653e-07)
(8.08413e-09 1.17123e-06 2.25369e-08)
(-2.60506e-06 0.000399296 1.45615e-05)
(4.78952e-07 0.000103487 2.41918e-06)
(2.90177e-07 2.64455e-05 4.1911e-07)
(8.95624e-08 6.44357e-06 7.5687e-08)
(2.66252e-08 1.18911e-06 1.63505e-08)
(-1.5313e-05 0.000356336 3.56888e-05)
(-1.25164e-06 9.67727e-05 5.80111e-06)
(1.47387e-08 2.55507e-05 9.92814e-07)
(4.05101e-08 6.33661e-06 1.78251e-07)
(1.58579e-08 1.17892e-06 3.83189e-08)
(-6.83958e-07 0.000398553 3.0271e-05)
(1.44878e-06 0.00010429 6.12814e-06)
(5.44783e-07 2.68163e-05 1.22802e-06)
(1.46786e-07 6.55333e-06 2.46619e-07)
(4.07173e-08 1.21061e-06 5.76185e-08)
(-2.81112e-06 0.000412708 2.331e-05)
(1.37741e-07 0.000108831 5.29651e-06)
(1.30955e-07 2.79062e-05 1.11087e-06)
(4.07217e-08 6.79142e-06 2.27642e-07)
(1.1912e-08 1.25094e-06 5.37698e-08)
(-6.7724e-06 0.000411461 9.93753e-06)
(-7.72035e-07 0.000111452 2.89088e-06)
(-5.13204e-08 2.87136e-05 7.00654e-07)
(4.84624e-09 6.98219e-06 1.58413e-07)
(3.68188e-09 1.28422e-06 4.03208e-08)
(-1.26122e-05 0.000373475 3.39262e-05)
(-8.93051e-07 0.000100777 5.91387e-06)
(4.47755e-08 2.64834e-05 1.08112e-06)
(3.93035e-08 6.54498e-06 2.04049e-07)
(1.41776e-08 1.21499e-06 4.55451e-08)
(-1.03205e-05 0.000317246 2.43433e-05)
(-1.12738e-06 9.45163e-05 4.34901e-06)
(-1.17561e-07 2.57479e-05 8.15488e-07)
(-1.02159e-08 6.45766e-06 1.56614e-07)
(-2.71648e-10 1.20596e-06 3.53306e-08)
(-3.96986e-07 0.000339705 3.55447e-05)
(1.29259e-06 9.57918e-05 5.94449e-06)
(4.40597e-07 2.56079e-05 1.08e-06)
(1.13396e-07 6.38182e-06 2.05193e-07)
(3.06537e-08 1.18946e-06 4.62006e-08)
(-6.97938e-06 0.000300017 1.64638e-05)
(-5.26312e-07 9.19881e-05 3.12157e-06)
(-3.45328e-09 2.52806e-05 6.30655e-07)
(1.21975e-08 6.3661e-06 1.28493e-07)
(4.9271e-09 1.19121e-06 3.03374e-08)
(-1.82603e-05 0.000388158 3.07159e-05)
(-2.20293e-06 0.000104793 5.75501e-06)
(-2.51441e-07 2.73321e-05 1.08419e-06)
(-2.55581e-08 6.71579e-06 2.0742e-07)
(-1.95102e-09 1.2426e-06 4.66633e-08)
(-1.09726e-05 0.000325699 2.03415e-05)
(-1.19556e-06 9.7669e-05 4.18947e-06)
(-1.2269e-07 2.64817e-05 8.53629e-07)
(-1.02596e-08 6.61294e-06 1.72784e-07)
(-1.63706e-10 1.23168e-06 4.04554e-08)
(-2.14558e-05 0.000393081 1.11127e-05)
(-2.73938e-06 0.000107745 2.79686e-06)
(-3.29336e-07 2.81852e-05 6.51968e-07)
(-3.65976e-08 6.91831e-06 1.45366e-07)
(-3.77824e-09 1.27818e-06 3.677e-08)
(-1.37063e-05 0.000330679 1.01924e-05)
(-1.64614e-06 0.000100394 2.62594e-06)
(-1.97759e-07 2.7287e-05 6.22016e-07)
(-2.32797e-08 6.8074e-06 1.39891e-07)
(-2.88695e-09 1.26613e-06 3.55452e-08)
(-5.64467e-06 0.000313904 3.46383e-05)
(-6.73669e-07 9.08569e-05 4.68406e-06)
(-5.87151e-08 2.45466e-05 6.50149e-07)
(3.60309e-10 6.1422e-06 9.35069e-08)
(2.36504e-09 1.14677e-06 1.59813e-08)
(-1.86098e-06 0.000262094 1.55205e-05)
(-1.52455e-07 8.50022e-05 1.9684e-06)
(8.72283e-09 2.3806e-05 2.65533e-07)
(8.65058e-09 6.04293e-06 3.76044e-08)
(3.43021e-09 1.13482e-06 6.3482e-09)
(-1.13428e-05 0.000311 3.30072e-05)
(-1.18954e-06 9.04506e-05 4.48309e-06)
(-7.35055e-08 2.4531e-05 6.45357e-07)
(9.94281e-09 6.15528e-06 9.86245e-08)
(6.80232e-09 1.15095e-06 1.82632e-08)
(-3.51956e-06 0.000261907 1.45703e-05)
(-1.69267e-07 8.5008e-05 1.84569e-06)
(5.40276e-08 2.38416e-05 2.54612e-07)
(2.5323e-08 6.0603e-06 3.75897e-08)
(8.75679e-09 1.13906e-06 6.7234e-09)
(-1.59739e-05 0.00030346 2.97636e-05)
(-1.40998e-06 8.95937e-05 4.1891e-06)
(-5.89254e-08 2.45236e-05 6.44185e-07)
(1.83176e-08 6.18095e-06 1.06205e-07)
(9.41859e-09 1.15796e-06 2.1236e-08)
(-3.055e-07 0.000261593 1.25896e-05)
(5.18847e-07 8.51785e-05 1.76648e-06)
(1.83408e-07 2.3953e-05 2.79374e-07)
(4.91286e-08 6.09813e-06 4.78922e-08)
(1.38226e-08 1.14703e-06 9.98873e-09)
(4.40921e-06 0.000292303 3.00813e-05)
(1.59885e-06 8.93896e-05 4.93313e-06)
(4.02e-07 2.46933e-05 8.88218e-07)
(9.21615e-08 6.239e-06 1.68208e-07)
(2.35121e-08 1.16959e-06 3.7793e-08)
(5.20067e-06 0.000267203 1.52809e-05)
(1.13529e-06 8.71849e-05 2.3974e-06)
(2.40271e-07 2.43706e-05 4.29281e-07)
(5.09509e-08 6.18415e-06 8.15092e-08)
(1.25151e-08 1.1614e-06 1.84055e-08)
(4.51595e-06 0.000282929 1.5029e-05)
(1.20961e-06 9.03132e-05 3.31155e-06)
(2.76411e-07 2.49616e-05 7.15636e-07)
(6.03592e-08 6.30104e-06 1.51975e-07)
(1.49196e-08 1.18045e-06 3.69195e-08)
(-0.0224253 0.911601 0.23682)
(-0.0317105 1.35427 0.426464)
(-0.0660578 0.93406 0.225018)
(-0.0961529 1.35529 0.413197)
(-0.110901 0.970987 0.209705)
(-0.16664 1.3571 0.380137)
(-0.145916 1.01385 0.196496)
(-0.238441 1.39216 0.352822)
(-0.158605 1.05002 0.189542)
(-0.25292 1.47046 0.364033)
(-0.176988 0.93372 0.0836718)
(-0.248039 1.10906 0.14242)
(-0.150302 0.96681 0.134663)
(-0.197299 1.20278 0.232636)
(-0.197418 0.926391 0.0471929)
(-0.28137 1.08571 0.0791529)
(-0.196989 0.924713 0.0138989)
(-0.28284 1.07821 0.0292989)
(-0.0635684 0.816949 1.02817)
(-0.0205854 0.153325 0.359584)
(-0.00950841 0.0396161 0.172475)
(-0.00606577 0.0127513 0.112523)
(-0.00470797 0.00339156 0.0905681)
(-0.0188449 0.921502 0.28713)
(-0.0088115 0.281495 0.11445)
(-0.00154171 0.0825268 0.0599823)
(-0.000904549 0.027572 0.0387165)
(-0.000139467 0.00752217 0.0302258)
(-0.206931 0.822016 1.00702)
(-0.0675313 0.149319 0.347479)
(-0.0314271 0.0379782 0.165686)
(-0.0201743 0.0122001 0.107754)
(-0.015802 0.00327213 0.0861514)
(-0.051144 0.923072 0.295807)
(-0.0163028 0.279295 0.123318)
(-0.00694324 0.0809749 0.0611434)
(-0.00401373 0.0270154 0.0395703)
(-0.00227933 0.00753472 0.0311458)
(-0.363892 0.830739 0.949319)
(-0.120132 0.14614 0.322986)
(-0.0565427 0.0364512 0.152959)
(-0.0366079 0.0116639 0.0991397)
(-0.0289457 0.00314959 0.0788526)
(-0.100835 0.928878 0.285349)
(-0.0381271 0.277069 0.117696)
(-0.0184295 0.0793466 0.0577971)
(-0.0117972 0.0264262 0.0371617)
(-0.00879972 0.00743621 0.0289617)
(-0.520116 0.841469 0.866557)
(-0.174491 0.141924 0.291314)
(-0.0836331 0.034771 0.137779)
(-0.0547992 0.0111215 0.0893861)
(-0.0436715 0.00302198 0.0710067)
(-0.15806 0.938103 0.267665)
(-0.0662324 0.274985 0.107675)
(-0.0342857 0.078184 0.0518866)
(-0.0228332 0.02611 0.0329627)
(-0.0178445 0.00739834 0.0253931)
(-0.731191 0.847189 0.743409)
(-0.255236 0.138317 0.249638)
(-0.125884 0.0339845 0.119268)
(-0.0838193 0.0110219 0.0779451)
(-0.0673782 0.00302677 0.0620759)
(-0.23793 0.943555 0.238291)
(-0.109496 0.273667 0.0926061)
(-0.0590006 0.0784481 0.0439439)
(-0.0400987 0.0265665 0.0276968)
(-0.0319438 0.00760108 0.0211688)
(-1.02634 0.811655 0.419754)
(-0.397889 0.15931 0.153169)
(-0.208167 0.0440097 0.0762961)
(-0.142473 0.0152864 0.05069)
(-0.115777 0.00433178 0.0405645)
(-0.300983 0.856293 0.110557)
(-0.143877 0.283671 0.0395288)
(-0.0794155 0.0888171 0.0170963)
(-0.0547858 0.0319992 0.0100544)
(-0.0440937 0.00943355 0.00744079)
(-0.916705 0.826284 0.582289)
(-0.340874 0.150438 0.205062)
(-0.173479 0.0393769 0.100188)
(-0.11715 0.013221 0.0660626)
(-0.0947221 0.00368726 0.0527401)
(-0.284409 0.88989 0.162513)
(-0.13664 0.279067 0.0613886)
(-0.0749435 0.0835706 0.0285861)
(-0.0514496 0.029122 0.0178272)
(-0.0413374 0.00844416 0.0135512)
(-1.08246 0.806292 0.264659)
(-0.428582 0.165736 0.0996281)
(-0.227548 0.0472922 0.050382)
(-0.156911 0.0168022 0.0336169)
(-0.127737 0.00482357 0.0269326)
(-0.304814 0.845926 0.0680766)
(-0.142372 0.28751 0.0242905)
(-0.0778162 0.0924185 0.0100896)
(-0.0535967 0.0340537 0.00545831)
(-0.0430841 0.0101914 0.00395611)
(-1.12015 0.806242 0.0968176)
(-0.444203 0.164136 0.0371512)
(-0.237218 0.0470712 0.0190089)
(-0.164519 0.016856 0.0127631)