/*--------------------------------*- C++ -*----------------------------------*\
| =========                 |                                                 |
| \\      /  F ield         | OpenFOAM: The Open Source CFD Toolbox           |
|  \\    /   O peration     | Version:  2412                                  |
|   \\  /    A nd           | Website:  www.openfoam.com                      |
|    \\/     M anipulation  |                                                 |
\*---------------------------------------------------------------------------*/
FoamFile
{
    version     2.0;
    format      ascii;
    arch        "LSB;label=32;scalar=64";
    class       volScalarField;
    location    "0.3";
    object      gradTy;
}
// * * * * * * * * * * * * * * * * * * * * * * * * * * * * * * * * * * * * * //

dimensions      [0 -1 0 1 0 0 0];

internalField   nonuniform List<scalar> 
5712
(
18452.1
10122.2
30958.3
20732.7
29816
26170
40898.4
53691.6
63538.3
84516.2
34999.9
31765.5
21479.8
15257.7
14747.3
8426.48
26959.7
19823.5
25373.2
21779.7
29770.8
24982.1
36836.3
27738.7
10385.9
6876.24
5504.5
3948.33
14149.7
8772.23
7897.15
5380.12
33217
32896.3
25808.4
17023.7
20667.5
17614.8
17241.4
16660.4
20778.8
21161.2
49953.7
55780
31185.6
34170.4
30277.9
23909.3
26524.5
17402.6
11673.5
10546.1
11087.2
20679.9
5603.99
8958.15
14317.5
26797.8
9349.79
14764.9
13630.5
31372.6
10788.8
21452.1
2879.05
14168
68.3555
10075.6
17884.5
21290.5
21073.8
22162.5
20849.4
19197.3
23607.1
19961.2
22546
27078.3
20820.4
25816.5
22093.4
22697.1
21994.3
22910.5
25118.4
20446.2
25840.4
20676.9
21721.6
27644.5
19769.6
27812.9
31039.7
39257.9
38541.5
66583.7
32494.4
46633.5
38117.1
74108.8
29400.3
34198.1
38455
62715.9
28328.8
31121.4
38579.9
61048.2
11261.2
14891.1
31443.5
54251.1
12828.9
14866.1
37330.7
58414.1
14173.3
14669.3
43783.6
62031.8
27324.4
22336.2
30381.4
34057
58440.1
22129.5
24639.2
29454.7
29770.2
68641.6
19772.5
22448
24302.2
34433.4
85981.5
2865.86
3664.59
8210.44
19801.8
4027.19
5436.29
10434
21511.4
5719.03
4995.71
13462.1
23572.4
19087.6
15240.4
20065.1
15207.3
22510.9
15736.4
19062.1
13837.8
17858.7
28324.6
16788.8
12194
18861.3
14219.9
20243.6
15127.2
22499
16576.6
20471.3
28990.4
19913.4
18754.3
20535.5
20220.2
16808.2
13665.6
17288.2
14770.1
22200.6
20448.5
22393
19905.4
20739.1
20628.5
20781.1
20700.9
17629
15491
17647.4
15601.1
21433.4
19856.3
21876.7
20126.3
24177.4
22035.8
18479.5
23036
24952.6
21980.2
19358.3
24468.9
22919.2
21207.8
18058
22580.5
22751.4
20717.4
17542
21772.4
2391.45
1318.83
663.061
1102.16
580.756
446.989
3797.61
1631.63
816.189
2672.93
1636.55
852.139
3362.13
1823.88
1218.98
4843.71
2663.65
1529.57
9950.48
4958.92
2615.43
10107.1
5393.86
3012.06
8501.79
4641.57
2772.48
8052.17
4486.97
2650.59
7944.15
3395.71
1553.82
7784.43
4021.57
2167.51
9309.46
4792.78
2641.53
8642.12
4118.52
2218.04
8132.64
3966.14
2170.08
7427
3005.47
1320.9
29517.2
27939.4
33453.8
27976.1
32222.4
28752.9
41412.5
31494.3
16201.6
15068.2
16716.7
14119.6
22153.6
16693.2
22725.3
15434.1
24623.1
24295
20408.5
21638.7
23371.2
21901.5
30440.7
32689.2
35462.9
39427.3
24177.8
25671.3
20667.8
21088.9
21817.3
21493.7
11067.3
5203.58
10695.8
5854.52
11119.1
5129.89
10620.5
5658.19
10484.4
4669.97
10324
5398.96
10396.8
5641.6
10085.1
5585.11
18646.9
12151.4
19497.5
13013.2
22356.2
17268.8
24283.5
18077.1
16498.5
8863.92
16163
8087.78
20794.1
13526.9
21939.6
13717.9
26223.2
18668
27480.2
18941.5
16621.3
9239.94
16815.6
9339.12
8047.62
4249.4
5703.26
2963.85
6981.22
3652.74
5056.97
2615.18
8446.34
4566.52
5997.06
3138.03
8579.08
4730.52
6061.08
3191.14
1428.2
610.357
2309.51
1125.75
1456.08
690.036
2317.14
1231.68
1526.63
909.919
2240.69
1408.37
7339.12
14725.2
4430.3
3829.63
2402.9
14567.4
7750.26
3572.92
3064.32
1707.36
14363.4
9001.31
5868.72
3789.51
2078.29
289.651
165.473
631.108
420.371
371.084
189.605
764.486
509.329
548.282
301.107
946.666
650.257
13443.1
9968.92
6931.49
4678.35
3524.29
2354.35
2433.86
1560.63
1356.05
944.451
11695.5
7804.03
7169.94
4514.92
4578.33
2871.19
2810.15
1760.24
1665.37
1251.69
7168.83
3986.79
7592.65
3900.25
10778
6248.85
11467.8
6510.05
5228.65
2791.46
5005.86
2867.06
8155.53
3803.41
8372.21
3924.57
12430.1
6915.13
12604.4
7085.98
5382.38
2687.1
5529.5
2832.03
3191.13
1835.96
1860.77
1557.64
3158.28
1868.7
1898.45
1497.77
3200.73
1801.84
1800.28
1610.68
3376.89
1864.91
1887.53
1596.77
129.66
57.9678
25.5159
436.523
127.584
57.0824
121.054
65.0564
30.3942
496.302
155.802
71.7954
187.477
106.326
56.2691
586.202
206.086
99.16
5696.2
2803.05
1494.48
2633
1277.91
683.813
1390.17
662.698
355.243
867.778
392.55
202.846
768.503
292.942
140.576
4260.41
2038.13
1033.11
2329.95
1071.69
533.971
1491.95
657.173
313.062
984.472
419.042
196.247
1075.78
371.275
172.846
1724.73
486.054
135.189
36.175
1997.88
552.264
149.192
39.7455
1642.43
469.376
132.379
35.892
1946.95
545.428
151.779
41.6573
1496.59
441.013
134.71
37.692
1834.3
533.947
161.15
45.66
1902.29
549.972
151.442
41.3346
1904.72
555.033
147.607
39.1799
1529.38
459.09
142.022
40.025
1139.14
357.603
115.289
31.6907
1294.42
395.373
129.744
37.5617
1018.38
324.113
107.455
29.8074
1650.98
494.896
145.119
39.8554
1205.74
378.212
118.429
32.0491
1696.81
510.966
146.39
39.8285
1228.7
387.823
120.827
32.8312
1159.62
374.137
114.866
31.6478
713.504
262.697
90.6671
25.1344
1107.38
361.44
113.24
31.3769
709.688
260.215
89.9846
24.9614
1032.58
341.849
112.425
31.3588
728.69
263.195
90.5851
24.7713
949.863
312.096
105.847
29.8587
736.672
261.545
92.3371
25.3212
862.597
285.71
96.7737
27.0098
409.32
180.864
60.5327
12.497
216.266
143.807
49.072
9.85507
438.026
188.878
62.8673
13.2101
244.028
152.11
51.0847
10.237
488.29
201.92
65.0182
13.3552
293.353
166.627
53.6922
10.6251
572.247
220.062
69.9421
14.6605
370.229
187.72
58.2294
11.521
703.573
247.114
77.9552
16.9261
484.737
212.002
62.878
12.3435
834.855
281.622
83.5166
17.0025
580.205
244.661
71.313
13.5825
804.572
268.422
80.6122
16.752
562.962
233.822
67.5075
13
839.511
287.34
82.9481
16.2405
584.579
250.224
72.4021
13.5497
824.21
290.817
84.2317
16.4013
598.804
254.08
73.6055
13.7088
9.01751
2.45022
0.639067
0.157136
0.0291111
9.77036
2.57083
0.657046
0.159767
0.0294443
9.06637
2.44886
0.639949
0.157787
0.0292808
9.98239
2.58717
0.661138
0.161089
0.0297277
8.90841
2.41932
0.638768
0.158415
0.0294729
9.96383
2.60725
0.670406
0.163833
0.0302651
10.3177
2.72077
0.697654
0.169785
0.0312736
10.2865
2.78631
0.71784
0.174555
0.0321056
9.33688
2.51943
0.662085
0.163625
0.0303746
7.93115
2.36291
0.643698
0.161442
0.030149
8.49261
2.39479
0.640197
0.159546
0.0297365
7.50043
2.2997
0.632016
0.159152
0.0297803
9.70396
2.61983
0.683303
0.167895
0.0310649
8.14248
2.44173
0.662044
0.165323
0.030792
9.82703
2.69363
0.704629
0.172958
0.0319545
8.26697
2.50984
0.682175
0.170185
0.0316533
7.84761
2.27142
0.613666
0.153555
0.0286693
6.55236
2.12506
0.595151
0.151073
0.0283706
7.775
2.26126
0.613276
0.153882
0.0287738
6.54768
2.1252
0.596041
0.151507
0.0284765
7.58651
2.23984
0.61309
0.154524
0.028949
6.53983
2.12946
0.598825
0.152453
0.0286757
7.30758
2.23474
0.617334
0.155975
0.0292399
6.68008
2.17962
0.609266
0.154604
0.0290351
7.07322
2.25783
0.62404
0.157526
0.0295111
22790
33856.8
23351.5
33882.1
24274.7
33927.5
25346.1
34804.1
26250.4
36761.4
23343
27726.5
24170.2
30069.5
23159.8
27142.7
23117.8
26955.3
20423.7
3833.13
990.403
318.783
84.789
23037.6
7037.37
2063.17
689.299
188.054
20550.4
3732.96
949.454
305.004
81.8032
23076.8
6982.38
2024.37
675.385
188.368
20768.5
3653.51
911.28
291.596
78.7398
23222
6926.73
1983.66
660.656
185.905
21036.7
3548.11
869.274
278.037
75.5496
23452.6
6874.63
1954.6
652.75
184.958
21179.7
3457.94
849.614
275.548
75.6692
23588.9
6841.69
1961.2
664.162
190.027
20291.4
3982.76
1100.24
382.161
108.294
21407.3
7091.77
2220.43
799.979
235.839
20657.1
3760.95
984.424
330.525
92.1815
22247.3
6976.68
2089.27
728.05
211.104
20157.3
4143.39
1182.3
420.054
120.589
21148.1
7187.75
2310.46
851.343
254.786
20156
4103.39
1176.78
421.401
121.954
21049.7
7164.14
2322.5
861.807
260.751
42212.4
66549.8
58561.1
38600.5
19064.6
20606.1
30908
32358.9
22825.1
25815.8
39036.3
55954.7
59843.6
86234
29192.6
33709.8
22058.3
22447.7
14645.6
15526.7
1924.92
1009.76
22.7914
9.16703
9.91764
7.3503
15.9811
1544.2
1048.15
539.723
486.095
238.503
96.1028
215.072
89.8609
47.0774
55.2839
32.3296
1423.09
410.602
92.8617
85.7841
176.016
124.193
64.118
50.8752
20.2601
18.0996
42.257
42.9949
1604.9
664.561
757.619
319.247
189.833
433.636
62.9484
23.2308
80.4325
3507.59
2691.23
1904.89
1532.99
1902.29
1927.88
1580.07
1151.23
913.48
828.157
51.9997
57.0346
51.2938
43.2371
38.1386
21.2501
23.9855
22.2151
19.1344
17.0635
23.0289
26.0658
24.1826
20.8132
18.5306
17.1241
19.4952
18.2033
15.7606
14.0852
36.7534
40.8847
37.2661
31.6705
28.0267
2968.7
2429.25
1674.9
1263.16
1563.87
1940.59
1502.06
1029.2
753.928
716.595
1067.9
915.276
665.863
504.867
441.71
882.415
691.217
472.772
337.31
290.954
423.813
335.309
228.554
160.251
133.825
204.746
200.271
162.18
127.145
108.769
437.062
394.358
298.829
226.555
193.24
186.445
174.727
136.541
104.202
87.7536
103.416
106.52
90.2125
72.5478
62.4465
119.423
119.669
98.9051
78.1519
66.6786
71.9547
75.7709
65.4382
53.2172
45.939
2749.78
2276.65
1597.97
1239.88
1564.44
839.757
761.028
578.952
450.127
393.981
201.438
202.714
168.148
134.252
115.904
187.677
191.517
160.883
129.654
112.407
373.94
362.658
291.717
230.731
200.167
271.307
275.047
229.104
184.236
159.692
143.083
150.641
130.05
106.807
93.183
114.006
121.077
105.357
86.6822
75.5875
46.1308
50.4779
45.2398
37.857
33.1789
41.4255
45.7184
41.3319
34.8604
30.7048
94.0734
99.0119
85.5122
69.8124
60.5764
96.2613
102.225
89.0192
73.1876
63.7637
2995.6
2373.69
1673.79
1338.45
1688.39
1308.07
1125.37
842.358
667.381
599.865
1627.6
1483.5
1060.89
834.645
777.583
674.442
641.105
505.133
401.524
350.133
411.261
408.608
333.321
266.474
230.798
912.259
844.613
639.393
501.236
432.525
140.403
147.784
127.522
104.532
91.0866
52.8881
57.7965
51.7497
43.4063
38.1651
177.419
183.309
155.513
126.092
109.468
25574.4
17730.9
26647.1
21587.1
29980.2
49076.6
33198.7
52191.8
27092.8
23660.4
25216.1
23367.9
25592.7
23087.8
35952
26985.7
21853.6
22475.8
9793.09
8891.03
25160.8
22772.8
13479.2
9851.11
35102.5
36862.4
28386.4
22741.5
33473.8
22056.8
17497.2
16862.3
21624.8
21463.5
50827.9
56284.6
31193.1
34297.6
31889.4
24351.1
28419
17841.7
12947.4
10823.9
27129.9
34895.1
10790.1
14055.9
28368.3
38777.2
14262.5
19593.9
23508.1
39230.8
14446.1
25308.9
3539.83
15597.8
123.044
10367.2
20962
21147.8
21964.6
22219.8
20516.7
18475.6
23245.4
19567.6
24684.5
27636.1
26402.1
26380.6
22523.8
22765.7
22105.8
22936
25010.9
20263.2
25830.4
20619.5
22621
27993.4
19983.3
27930.7
32858.3
41851.4
39655
68179.7
35266.8
51018.5
39696.6
76661.5
30333.7
35474.6
39092.7
63601.1
28595.9
31480.7
38793.6
61342.8
37058.9
41161.1
52561.7
76523.5
34484.4
35788
54108.3
75748.4
28704.5
28103.7
54578.2
72529
20667.3
17821.3
27171.8
35362.8
63951.6
17344.6
17920
27289.3
30800.1
74664.7
16720.4
19324.4
23096.5
36021.1
89639.8
18206.7
14524
17030.2
24260.4
17656.8
14520.1
17556.6
25034.8
16037.1
12299.9
17808.9
25413.1
15063.5
11948.6
15783.4
12407.2
21812.7
16298.4
20261.9
15139.3
19911.7
28716.1
14632.8
11130.5
16786.1
13395.9
19462.8
15042.2
23388.9
17242.9
21314.6
28627.8
19168.9
18193.8
20260.2
19918.5
15874.4
13095
16826.2
14436.1
22276.1
20391.9
22236.4
19725.5
20643.2
20481.9
20758.5
20657.5
17421.7
15319.2
17587.7
15548.8
21509.2
19839.4
21900.8
20120.1
24526
22181.7
18840.8
23265.6
25445.1
22183.9
19975.2
24752.5
23117.6
21299.5
18253.2
22723.1
22826.4
20752.6
17615.8
21824.4
11820.5
12395.8
4845.43
4701.64
11684.4
10664.8
5985.63
5861.56
8845.87
7327.41
7143.53
6161.81
9088.38
6648.8
9901.34
7719.43
10792.9
8267.79
10463.5
7769.93
9672.58
5962.74
8268.59
6056.35
10381.1
7577.13
10140.8
6990.13
9953.47
6772.58
7885.37
4310.98
22466.7
20569.7
30654.8
24592.4
27403.2
23847.2
41577.1
29846.6
16892.6
11139.6
20100.8
13038.1
17222.2
11223.9
20712.4
13166.6
20591.6
16786.4
17223.9
14984
15365.2
18240.7
28784
32198.1
34785.8
39258.3
22318.4
25146
19000.2
20620.2
19849.5
20888.7
7599.73
4625.82
8887.39
5103.02
7477.16
4512.08
8793.68
4961.08
7257.58
4146.18
8688.74
4818.07
9439.23
5225.61
9765.05
5436.09
14439.6
11030.2
17471.8
12188.4
19238.4
15761.6
22845.6
17193.7
14311.9
8263.31
11993
7465.91
19759.5
13059.7
21635.3
13565.4
25563
18217.7
27298.9
18802.5
15471
8861.75
16462.3
9209.6
7245.28
3963.73
5380.3
2868.46
6115.77
3507.81
4856.33
2632.44
7954.38
4345.95
5759.8
3046.56
8422.67
4651.54
5974.39
3154.08
5675.74
5031.53
3787.5
3216.52
5431.33
4948.36
3618.56
3086.18
5092.22
4635.71
3213.74
2743.45
10762.8
15476.3
8410.33
4843.68
2950.64
14795.5
11333.6
8580.94
4558.14
2572.53
14278.7
9996.32
6777.33
4429.95
2426.22
4595.01
3834.38
2870.02
2415.13
4445.85
3546.36
2722.57
2254.17
4053.45
3108.73
2344.07
1853.22
12640
9150.3
8699.23
6029.29
6562.29
4854.52
3914.5
2894.2
2239.75
1741.25
11206.2
7449.52
7704.71
4819.01
5374.82
3461.16
3505.55
2328.77
2054.47
1612.4
6968.11
3964.2
7332.07
3824.26
10236.8
6017.47
11082.9
6349.22
5070.69
2759.57
4999.35
2955.87
7972.7
3744.68
8308.53
3903.53
12210.9
6822.85
12534.6
7056.7
5249.64
2643.57
5480.48
2814.54
3126.46
1834.26
1853.31
1576.89
3251.72
1993.8
2004.08
1633.42
3127.45
1775.98
1773.32
1598.12
3346.47
1853.01
1873.52
1588.8
3280.31
2679.45
2599.42
2023.03
2936.71
2353.05
2386.42
1827.24
2454.52
1891.26
1954.07
1449.28
6145
4404.59
4108.84
2896.71
3478.75
2513.16
2014.02
1355.74
1785.42
1234.26
4459.08
3162.22
2766.99
1938.34
2066.55
1427.11
1513.28
997.413
1725.89
1062.38
1772.96
529.049
150.306
40.9896
1912.84
565.459
158.736
43.539
1677.52
507.72
145.762
40.2175
1858.66
552.93
159.112
44.8629
1523.23
473.36
146.343
41.5739
1756.24
536.431
166.273
48.193
1830.17
545.726
153.602
42.6225
1875.72
552.367
148.079
39.562
1496.55
464.427
146.356
41.9811
1139.58
366.411
119.555
33.2952
1332.75
420.823
139.326
40.8802
1069.96
348.589
115.819
32.3695
1610.11
492.894
146.673
40.8213
1192.17
379.868
120.262
32.8904
1680.12
509.402
146.733
40.1108
1221.75
387.738
121.303
33.0803
1534.2
468.579
139.34
38.1256
1284
397.905
123.988
32.7753
1430.11
447.023
135.734
37.3843
1199.03
381.682
120.443
32.0214
1284.37
414.261
132.423
36.7532
1084.14
358.897
115.655
30.6682
1132.6
368.074
121.867
34.1894
1003.26
337.525
112.812
30.138
1003.77
330.685
110.112
30.3964
1020.15
331.263
93.3416
17.8656
713.867
292.978
83.1904
15.4263
961.453
322.93
92.9531
18.3353
676.851
285.249
82.1785
15.39
877.009
308.661
89.4563
17.5661
621.738
273.378
79.1112
14.8983
857.366
300.146
89.5343
18.22
623.556
267.723
77.7959
14.9205
870.148
297.239
91.7069
19.7045
658.17
265.302
76.4518
14.823
850.265
292.551
88.1523
18.0933
596.081
255.8
75.4044
14.453
872.407
295.118
89.2992
18.5948
628.404
261.228
75.5481
14.5631
836.877
290.448
84.9168
16.7482
583.339
253.361
74.0389
13.9356
821.563
291.262
84.7305
16.5429
596.945
254.556
74.0067
13.8131
10.4099
2.8358
0.737561
0.180585
0.0333408
10.9876
2.92811
0.750668
0.182324
0.0335347
10.3449
2.79704
0.72871
0.178958
0.0331077
11.037
2.89685
0.742407
0.180732
0.0332995
10.0321
2.72396
0.716605
0.177061
0.0328556
10.7605
2.84275
0.732871
0.17908
0.0330555
10.7615
2.85238
0.733757
0.178824
0.0329522
10.4382
2.8343
0.731349
0.177992
0.0327497
9.96335
2.70755
0.712966
0.176225
0.0327014
8.48213
2.53967
0.692425
0.173626
0.0324106
9.39807
2.64783
0.705901
0.175467
0.032645
8.26
2.51669
0.689635
0.173318
0.032389
10.0827
2.74453
0.718407
0.176778
0.0327232
8.45823
2.55736
0.695735
0.173976
0.0324181
9.94196
2.73278
0.716005
0.175895
0.0325086
8.36331
2.54752
0.693616
0.173193
0.0322253
9.48395
2.69451
0.718313
0.178085
0.0330635
8.38202
2.57434
0.703851
0.176292
0.0328675
9.30438
2.65386
0.710258
0.176649
0.0328594
8.25809
2.54439
0.697582
0.175121
0.0326961
8.95453
2.58912
0.699678
0.174957
0.0326304
8.04681
2.50344
0.690102
0.173817
0.03251
8.46241
2.52994
0.691619
0.173721
0.032461
7.96104
2.49917
0.68857
0.173406
0.0324352
8.01648
2.51033
0.689203
0.173317
0.0323988
25828.1
34688.5
25805.1
34521.2
25906.6
34261.3
26420.7
34934.9
26827.6
36565.8
23626.5
27964
24601.3
30331
23318.1
27285.8
23163
26998.4
21615
3988.51
1016.61
323.348
85.4294
23951.7
7281.75
2114.24
698.641
189.371
21585.2
3868.4
972.422
309.013
82.3644
23864.6
7198.59
2069.92
683.692
189.537
21552.8
3759.09
929.532
294.806
79.1881
23807.6
7097.72
2020.49
667.421
186.85
21583.4
3622.55
882.414
280.376
75.8774
23844.3
6997.34
1981.83
657.809
185.666
21522.7
3505.88
858.331
277.125
75.8909
23811.9
6924.09
1980.18
667.734
190.54
20449.8
4007.24
1104.84
383.011
108.418
21564
7132.62
2229.28
801.648
236.076
20895.8
3796.41
991.035
331.738
92.3536
22457.6
7036.91
2102.71
730.571
211.468
20246.9
4157.72
1185.01
420.56
120.666
21239.4
7210.94
2315.39
852.294
254.932
20184
4107.77
1177.59
421.55
121.978
21078.1
7171.35
2324
862.091
260.799
41802.9
66827.5
59196
37279.2
24900.1
33446.7
23811.4
32850.6
30924.6
56725
34752.3
62960.8
0.0397616
0.0856106
0.227522
0.615246
1.62855
4.17909
0.0767139
0.155735
0.385937
0.966505
2.36124
5.58678
0.0198999
0.0123595
0.0468259
0.0310356
0.139077
0.0996471
0.428467
0.338983
1.27386
1.10956
3.56562
3.1902
10.4107
25.8482
65.6877
168.651
315.849
458.077
12.7735
28.0552
58.5176
111.52
176.76
228.216
0.0964164
0.118166
0.120017
0.112129
0.105068
0.20654
0.250748
0.25184
0.232782
0.216608
0.545815
0.65578
0.650682
0.594593
0.549213
1.4667
1.74199
1.70574
1.53989
1.41151
3.85291
4.51327
4.35158
3.87494
3.52217
9.79305
11.2765
10.6727
9.35587
8.42648
0.185215
0.225161
0.226495
0.209675
0.195308
0.373932
0.450004
0.447388
0.40963
0.378871
0.921072
1.09627
1.07619
0.973928
0.894172
2.29163
2.69545
2.61124
2.33529
2.12846
5.55646
6.4478
6.15495
5.43505
4.91635
13.0297
14.8823
13.9705
12.168
10.9212
0.0485087
0.0599778
0.061521
0.0580297
0.05472
0.0302357
0.0376345
0.0389146
0.0369949
0.0350627
0.113559
0.139089
0.141078
0.131629
0.123234
0.0755342
0.0931239
0.0951891
0.0894758
0.084171
0.335318
0.406335
0.40698
0.375158
0.348467
0.241067
0.293922
0.296485
0.275126
0.256634
1.02598
1.22775
1.21191
1.10199
1.01465
0.81406
0.979212
0.972196
0.888632
0.820822
3.02472
3.5644
3.4576
3.09466
2.82138
2.64071
3.12448
3.04375
2.73369
2.49708
8.3782
9.68794
9.20418
8.0915
7.29835
7.51707
8.73382
8.3361
7.35198
6.64129
24.095
27.143
25.1117
21.6221
19.2855
58.8601
64.4491
57.9773
48.9363
43.2352
146.314
154.188
133.847
110.555
96.9013
364.294
364.161
302.096
244.364
213.57
657.474
621.908
497.571
398.409
350.863
932.329
851.258
665.396
530.235
468.909
29.4734
33.0389
30.4275
26.1136
23.2564
63.91
70.0729
63.1548
53.3773
47.1965
131.27
140.214
123.354
102.679
90.2592
245.685
254.669
218.346
179.269
157.06
382.243
384.971
323.015
262.791
230.282
487.613
481.983
398.977
323.005
283.214
0.039817
0.0859706
0.228827
0.619559
1.64066
4.20572
0.0767471
0.15595
0.386463
0.967491
2.36167
5.58085
0.0199686
0.0124171
0.0472188
0.031399
0.140866
0.101499
0.436087
0.348342
1.3017
1.15402
3.65219
3.40438
10.443
25.816
65.3603
167.372
313.85
456.969
12.7399
27.9386
58.2112
110.905
176.01
227.848
0.0965893
0.118438
0.120349
0.112497
0.105452
0.207486
0.252088
0.253446
0.23453
0.218411
0.54922
0.660528
0.656269
0.60058
0.555337
1.47786
1.75737
1.72361
1.55883
1.43076
3.88429
4.55658
4.40196
3.92836
3.57648
9.86348
11.3768
10.7924
9.4852
8.55937
0.185355
0.225431
0.226871
0.21013
0.195805
0.374591
0.451137
0.448964
0.411526
0.38093
0.922769
1.09931
1.0805
0.979165
0.899886
2.29521
2.70249
2.62168
2.34827
2.14276
5.56078
6.46019
6.1761
5.46308
4.94811
13.024
14.8936
14.0036
12.2193
10.9828
0.0486843
0.0602152
0.0617927
0.0583147
0.0550074
0.0303822
0.0378296
0.0391338
0.0372211
0.0352891
0.114556
0.140421
0.142577
0.133181
0.124789
0.0764472
0.0943204
0.0965097
0.0908171
0.0855
0.339811
0.412218
0.413467
0.381741
0.354988
0.245675
0.299853
0.302897
0.281517
0.262894
1.04493
1.25218
1.23839
1.12845
1.04061
0.837114
1.00837
1.00311
0.9189
0.850158
3.09355
3.65222
3.55178
3.1879
2.91239
2.74903
3.25895
3.18344
2.86809
2.62602
8.59219
9.96022
9.49466
8.37787
7.57734
8.03175
9.35649
8.9641
7.94056
7.19692
24.1921
27.304
25.3261
21.8709
19.5507
58.839
64.5487
58.2252
49.3019
43.6644
145.701
153.814
133.874
110.934
97.4819
361.703
361.991
300.885
244.033
213.76
653.359
618.224
495.047
396.962
350.093
930.026
849.135
663.841
529.205
468.221
29.4138
33.0113
30.4515
26.1842
23.354
63.6792
69.8971
63.0946
53.4274
47.3121
130.641
139.674
123.048
102.605
90.3247
244.401
253.504
217.575
178.89
156.918
380.666
383.499
321.959
262.15
229.899
486.837
481.25
398.432
322.648
282.976
1917.85
1006.44
23.0032
9.33998
11.3437
8.0421
16.7717
1498.99
1082.28
553.986
609.779
113.815
249.14
61.9593
89.4948
47.4303
1389.61
410.178
100.297
88.9803
178.365
124.784
64.1136
52.288
27.2672
21.7807
48.9227
46.2113
1586.7
658.511
745.036
315.867
188.475
429.288
63.6312
24.8177
82.1876
3493.25
2678.41
1895.67
1526.56
1897.66
1921.2
1574.22
1147.06
910.684
826.356
52.5873
57.9043
52.3446
44.3786
39.3166
21.6879
24.5595
22.8425
19.7666
17.6885
26.4062
30.0393
28.0644
24.3555
21.8262
18.7725
21.4563
20.1429
17.549
15.7584
38.6823
43.2747
39.738
34.0476
30.3136
2930.55
2471.5
1762.42
1381.28
1748.02
2094.94
1740.98
1272.23
1007.53
1026.68
1116.85
990.887
749.805
594.395
539.005
1232.83
1070.58
784.476
617.239
588.714
246.858
248.935
208.506
169.913
150.162
519.761
489.785
388.145
310.382
277.671
137.878
145.249
126.291
104.725
92.4752
196.466
202.193
172.201
141.289
124.695
106.665
114.389
101.036
84.4967
74.7154
2697.92
2256.72
1606.73
1269.7
1624.84
845.232
777.525
603.029
479.36
426.987
219.71
225.139
190.887
156.172
137.44
195.974
202.573
172.963
141.929
124.762
381.583
375.167
307.109
247.723
218.187
273.631
279.515
235.218
191.398
167.439
143.375
151.596
131.648
108.865
95.4879
117.647
125.947
110.752
92.1947
81.113
62.3689
68.8451
62.4573
53.0949
47.1634
50.0439
55.6505
50.8304
43.3989
38.5999
109.896
117.592
103.628
86.521
76.4012
104.113
111.897
98.9246
82.6902
72.9523
2960.45
2344.87
1655.43
1328.6
1686.19
1296.16
1115.49
836.012
663.997
598.476
1605.37
1470.9
1059.67
842.271
791.933
668.024
636.538
503.477
402.304
352.345
409.218
408.43
335.362
270.261
235.594
906.624
845.826
647.269
514.127
448.543
142.372
150.802
131.23
108.609
95.3376
56.7228
62.4638
56.4851
47.8947
42.4548
182.166
190.006
163.2
134.175
117.734
168.331
190.343
234.34
281.697
281.445
130.305
23490.8
24701.7
23882.7
25528.7
23681.4
21418
21560.4
19955
23592.1
36025.2
26245.5
34763.3
36421.9
21298.8
45960.4
20025.3
21271.6
20678.2
21640
20749.7
20275.1
19058.8
18568.9
23969
47244.2
26779.8
44540.5
37524.4
27467.9
53023.3
16411.8
17414.3
16188.9
16514.7
17570.7
18360.4
15453.2
16028.7
25750.4
40705.7
28742
39480.7
36164.1
30386.6
45860
13050.4
13756.6
11823.7
11884.7
14310.7
15671.5
11526.9
12627
20861.2
32951.5
22891.3
30608.4
27595.1
23241.4
35389.4
10246.2
10803.7
8720.13
8730.16
11512.2
12758.2
8483.95
9368.81
16111
22714.9
17703.8
20035.3
19763.1
14996
22317.9
8232.73
8641.57
6639.44
6659.79
8675.13
8855.78
6398.17
6729.74
11548.9
14601.8
12601.5
12743.7
13708.9
8934.55
14349.2
20053.1
19202.1
22971.4
25170.6
18617.3
17907.9
20585.9
19633.2
14622.8
7309.19
15016.4
7192.18
14007.6
11204
10409.7
17516.3
17059.1
19481.5
20868.2
16585.8
16051.3
17820.6
17221.6
11146.5
5835.38
11281.1
5707.03
10117.9
8851.82
7789.09
12896.1
12634.7
14678.5
15299.8
12399.8
12004
13849.4
13845.2
8008.47
4583.92
8104.15
4396.16
7605.61
6053.12
6418.64
8302.31
8228.85
10091.8
10319.9
8069.79
7709.21
9846.47
9850.05
4626.46
2834.04
4707.7
2799.34
4420.11
3514.9
4398.27
5390.84
5389.99
6999.81
7112.53
5216.06
5027.54
6852.07
6695.24
2736.57
2051.22
2882.4
2299.34
3012.7
2916.01
3504.66
3525.82
3558.4
5017.64
5092.23
3672.14
3791.31
4900.16
4947.59
2041
2017
2274.55
2304.11
2526.11
2605.18
3165.31
18084.2
9709.61
30930.4
20662.4
29814.3
26149.2
40896.9
53680.9
63547
84503.9
35020.8
31757.1
21497.7
15229.6
14287.5
7956.63
26952.6
19819.8
25364.6
21776.4
29768.3
24980.1
36831.7
27736.5
10156.1
6759.43
5338.7
3875.83
14129
8758.15
7892.16
5385.53
33207.4
32884.4
25803.9
17020.4
20660.2
17615.6
17239.1
16659.8
20777.4
21160.5
49952.4
55779.6
31184.3
34169.5
30277.5
23910
26524.2
17402.6
11673.4
10546.2
10906.1
20317.6
5486.7
8735.65
14325.5
26820.7
9367.26
14791.7
13635.6
31383.9
10795.9
21462
2880.06
14171.7
68.3414
10076.9
17882.7
21289.7
21072.5
22161.9
20848.1
19196.5
23605.8
19960.5
22545.9
27078.4
20819
25816.4
22092.6
22696.8
21993.7
22910.2
25117.4
20445.6
25839.5
20676.2
21721.5
27644.8
19769.5
27813.2
31041.2
39262.4
38542.9
66586
32495.7
46639
38118.7
74111.5
29401.5
34200.9
38456.1
62717.7
28329.9
31123.4
38581
61049.8
11147.1
14816.2
31069.6
53946.5
12848.8
14887.1
37363.6
58457.4
14181.5
14677.5
43797.7
62043.9
27322.4
22335.1
30378.3
34058.2
58446.2
22128.4
24637.3
29450.9
29771.5
68647
19771.6
22446.9
24301.7
34435.6
85984.8
2832.58
3625.17
8123.3
19672.6
4046.42
5445.58
10459.9
21534.7
5726.13
5000.49
13474.5
23583.1
19086.8
15239.8
20064
15206.8
22509.4
15735.7
19064.8
13840
17865.3
28330.6
16788.2
12193.6
18860.7
14219.7
20243.7
15127.7
22501.1
16578.3
20474.6
28993.4
19913.1
18754.1
20535.3
20220
16807.6
13665.2
17287.7
14769.8
22200.8
20448.7
22393.2
19905.7
20738.8
20628.2
20780.9
20700.6
17628.6
15490.7
17647
15600.7
21433.6
19856.3
21876.9
20126.4
24178.2
22036.4
18480.5
23036.9
24953.8
21981.2
19360.1
24470.4
22919.7
21208.2
18058.6
22581.1
22751.9
20717.7
17542.6
21772.9
2342.75
1291.13
651.975
1084.24
569.777
442.533
3800.14
1632.41
816.836
2678.07
1638.83
853.096
3363.91
1824.61
1219.27
4846.23
2664.55
1529.98
9950.21
4958.8
2615.37
10106.9
5393.73
3011.98
8501.62
4641.41
2772.38
8053.16
4487.18
2650.63
7945.8
3396.22
1553.99
7784.27
4021.5
2167.47
9309.45
4792.77
2641.51
8642.46
4118.64
2218.05
8133.5
3966.41
2170.15
7427.87
3005.75
1320.99
29522.2
27941.2
33458.2
27977.5
32221.9
28752.4
41410.5
31493.5
16029.5
15005.6
16494.1
14045.4
22171.3
16684.8
22749.4
15426
24628.5
24300.7
20410.8
21640.8
23368.9
21899.8
30441
32688.9
35462.3
39426.6
24179.4
25671.6
20668.2
21088.8
21817.2
21493.8
11036.4
5186.17
10660.4
5838.76
11113.5
5128.32
10615.5
5656.04
10481.5
4668.71
10321.7
5397.69
10396.1
5640.85
10085
5584.87
18647.2
12151.2
19497.6
13013
22355.7
17268.3
24283
18076.5
16498.3
8863.76
16162.6
8087.69
20794
13526.5
21939.2
13717.4
26222.6
18667.5
27479.4
18940.8
16621.1
9239.73
16815.4
9338.87
8047.44
4248.87
5703.03
2963.62
6981.04
3652.17
5056.75
2614.91
8446.19
4566.16
5996.85
3137.84
8578.99
4730.37
6060.92
3191.02
1421.21
604.901
2300.92
1118.65
1456.66
690.79
2316.84
1231.93
1526.6
910.033
2240.2
1408.19
7339.19
14724.7
4430.53
3829.62
2402.56
14566.9
7750.19
3573.04
3064.29
1707.16
14362.9
9001.17
5868.66
3789.35
2078.03
285.025
162.067
624.744
416.328
371.549
189.699
764.805
509.412
548.405
301.16
946.624
650.191
13442.6
9968.56
6931.31
4678.18
3524.21
2354.24
2433.77
1560.55
1355.93
944.372
11695.1
7803.76
7169.74
4514.76
4578.21
2871.07
2810.05
1760.16
1665.22
1251.59
7168.64
3986.65
7592.43
3900.11
10777.7
6248.64
11467.5
6509.85
5228.49
2791.35
5005.73
2866.95
8155.27
3803.27
8371.9
3924.42
12429.7
6914.92
12604
7085.76
5382.2
2686.99
5529.3
2831.91
3191.01
1835.88
1860.64
1557.52
3158.16
1868.62
1898.29
1497.63
3200.61
1801.76
1800.17
1610.57
3376.76
1864.82
1887.45
1596.69
127.483
57.0515
25.1169
432.905
126.245
56.4558
120.967
65.0346
30.3999
496.536
155.922
71.8603
187.481
106.322
56.2658
586.165
206.094
99.1698
5696.02
2802.97
1494.43
2632.88
1277.86
683.782
1390.06
662.645
355.216
867.702
392.509
202.824
768.41
292.922
140.57
4260.27
2038.07
1033.08
2329.85
1071.65
533.947
1491.87
657.134
313.043
984.403
419.009
196.231
1075.64
371.241
172.834
1724.29
486.485
135.232
36.1592
1997.39
552.6
149.219
39.7059
1641.07
469.096
132.329
35.8796
1945.65
545.214
151.747
41.6517
1495.82
440.788
134.654
37.6776
1833.55
533.741
161.1
45.6479
1901.82
549.817
151.4
41.3238
1904.5
554.944
147.58
39.1724
1528.99
458.951
141.979
40.0129
1138.95
357.52
115.258
31.6815
1293.99
395.221
129.695
37.5477
1018.16
324.017
107.42
29.7971
1650.71
494.789
145.085
39.8454
1205.59
378.15
118.405
32.0417
1696.67
510.9
146.367
39.8214
1228.62
387.782
120.81
32.8259
1159.22
374.474
114.937
31.652
712.056
262.616
90.6695
25.1441
1106.39
361.203
113.189
31.363
709.135
260.075
89.9455
24.9507
1031.99
341.657
112.372
31.345
728.332
263.066
90.5445
24.7609
949.525
311.964
105.803
29.8465
736.407
261.435
92.298
25.3107
862.374
285.612
96.7378
26.9996
407.986
180.822
60.5585
12.5115
215.12
143.606
49.0371
9.84887
437.976
188.884
62.8628
13.2096
244.091
152.13
51.0918
10.2386
488.145
201.854
64.9955
13.3507
293.315
166.588
53.6794
10.6227
572.087
219.982
69.9142
14.6546
370.158
187.66
58.2086
11.5168
703.421
247.036
77.9266
16.9196
484.658
211.94
62.8559
12.3389
834.742
281.565
83.4949
16.9976
580.142
244.616
71.2958
13.5788
804.432
268.353
80.5863
16.7463
562.887
233.766
67.487
12.9956
839.428
287.298
82.9319
16.2369
584.531
250.19
72.3892
13.5469
824.157
290.789
84.2209
16.3988
598.769
254.057
73.5967
13.7069
9.01405
2.44982
0.638955
0.157095
0.0291013
9.75913
2.56985
0.656867
0.159711
0.0294319
9.0633
2.44811
0.639783
0.157752
0.0292749
9.98105
2.58661
0.661015
0.161065
0.0297237
8.9052
2.4185
0.638573
0.158371
0.0294654
9.96137
2.60656
0.670242
0.163797
0.0302588
10.3152
2.7201
0.697484
0.169745
0.0312665
10.2845
2.78576
0.717695
0.174519
0.0320991
9.33409
2.51869
0.661897
0.16358
0.0303668
7.9287
2.36218
0.643503
0.161395
0.0301405
8.48963
2.39401
0.64
0.1595
0.0297285
7.49783
2.29894
0.631814
0.159104
0.0297717
9.70147
2.61916
0.683128
0.167853
0.0310573
8.14042
2.44107
0.661865
0.16528
0.030784
9.82519
2.69311
0.704487
0.172922
0.031948
8.26548
2.50935
0.682034
0.170149
0.0316467
7.84804
2.27126
0.613566
0.153516
0.0286601
6.55086
2.12468
0.595027
0.151034
0.028362
7.77198
2.26047
0.61309
0.15384
0.0287666
6.54598
2.12455
0.595878
0.151471
0.0284701
7.58356
2.23902
0.612883
0.154476
0.0289407
6.53757
2.1287
0.598625
0.152407
0.0286675
7.30481
2.23395
0.617128
0.155927
0.0292313
6.67759
2.17884