/*--------------------------------*- C++ -*----------------------------------*\
| =========                 |                                                 |
| \\      /  F ield         | OpenFOAM: The Open Source CFD Toolbox           |
|  \\    /   O peration     | Version:  2412                                  |
|   \\  /    A nd           | Website:  www.openfoam.com                      |
|    \\/     M anipulation  |                                                 |
\*---------------------------------------------------------------------------*/
FoamFile
{
    version     2.0;
    format      ascii;
    arch        "LSB;label=32;scalar=64";
    class       volScalarField;
    location    "0.3";
    object      gradTz;
}
// * * * * * * * * * * * * * * * * * * * * * * * * * * * * * * * * * * * * * //

dimensions      [0 -1 0 1 0 0 0];

internalField   nonuniform List<scalar> 
5712
(
12738.3
38053.8
9870.92
40810.1
5336.5
41812.3
8321.42
62410.8
13187.9
77476.5
14030.5
57454.2
15320.7
52206.4
15350.5
45915
6827.07
4043.04
21120.1
10500
6345.89
2921.88
21644.3
8669.81
10282
8364.67
29963.1
23932
6892.55
6105.34
29824.4
24669.5
15503.6
5885.85
12276.8
4958.51
6252.82
15546.1
64649.4
19420
19908.4
8532.82
74044.5
22725.2
17222.1
7349.16
46056.6
15238.8
23365.5
10394.8
40255.4
12632.4
14032.6
7462.29
19555.1
8352.07
13210.6
7826.52
20214.5
8157.31
16331.9
10335
12923.9
5915.35
21147.4
8130.02
8169.84
3206.43
23298.8
17473
13411.6
11867.5
20739
17360.8
11029.2
10815.5
14567.6
12880.1
21203
17748.1
9511.66
7988.43
4973.22
4139.09
7867.32
7160.92
3928.49
3679.97
10451.4
8532.19
5640.47
4068.42
13936
8457.75
14731.4
17200.2
20108.3
15921.8
21517.6
29522.4
9511.91
4492.19
9164.23
10124.4
5042.1
1965.81
3947.63
3760.79
18149.2
33220
12483.2
38003.9
19436.5
32613
14622.1
39617.8
23518.5
30575.5
19384.6
38912
18440.2
16414.3
18672.6
20168.6
23654
10104
15487.7
24756.8
32417.3
49771.7
14033.7
14978.5
16942.4
23132.3
38341
38977.7
33811.2
45924.6
41355.7
36695.4
32754
45291.7
40219.1
31878.5
29507.9
42046.1
37873.3
11374.6
10367.6
15455.3
14336.2
21104.3
19725.6
28111.6
25326.7
39255.6
35689.9
9658.92
9492.7
13850.5
14285.3
18546.7
19306.8
24726.4
25463.5
36325.6
35955.8
13091.9
7608.83
9938.12
7663.13
11699.5
9715.98
9062.44
8755.18
11122.1
8835.33
15037.3
9386.27
4764.83
5287.79
1470.54
1687.2
5411.88
6169.83
1649.5
2020.17
5080.63
5767.32
1551.54
1853.37
12471.1
8730.19
15217.2
8187.95
18625.6
11737.4
24378.5
14413.1
6402.28
5324.46
8379.15
4088.48
4168.76
3594.38
4664.66
3040.5
26484.8
15614.8
4899.4
29154.1
16457.8
5305.64
25220.3
14737.8
4794.03
28324.5
15996.4
5067.55
22551
12802.8
3938.68
26716.8
15046.6
4727.02
6674.73
3537.59
1000.63
10702.2
6253.54
1859.12
15079.2
8856.19
2700.17
19200.9
10879.3
3293.09
24705.3
13631.6
4289.62
6781.25
3341.97
1048.69
10035.2
5747.43
1886.79
13553.6
7788.06
2504.94
17725.2
9787.89
3075.2
23011.1
11783.6
3711.05
-355.372
783.557
556.41
2383.44
2687.81
2135.18
6633.5
5053.49
565.932
604.697
598.764
634.176
320.299
589.391
542.891
875.254
1239.16
842.551
2802.1
2064.41
1095.01
1621.56
3089.18
-41.8942
7973.82
1915.84
-4977.7
-2082.78
8.33542
-438.533
-1100.9
-1352.09
5837.14
1808.64
1477.88
622.083
5812.7
1777.58
1568.59
669.453
5540.34
1784.69
1826.77
730.131
1273.74
361.457
28.9268
7.07627
11726.9
9380.85
4808.57
5697
16704.7
14464.4
7997.8
8646.75
3233.02
3684.08
7775.5
5681.21
2801.61
3490.17
1102.88
1649.8
5184.03
5433.95
2435.21
2708.53
1464.95
2217.85
348.557
1042.21
2132.95
881.689
2243.63
845.354
4213.54
1441.74
3183.84
1181.13
924.551
440.023
1401.21
481.582
104.069
76.303
676.68
182.171
6249.99
2914.77
2098.97
1538.74
6324.7
3041.15
2003.76
1492.24
6559
3182.79
1941.34
1397.65
11460.4
14316.5
8225.4
4742.1
1561.56
7989.25
7270.55
5854.62
4056.11
1581.68
11695.6
7994.49
4981.67
2891.88
1042.75
1520.35
865.83
1048.09
713.281
1681.77
988.42
1063.69
747.971
1919.64
1218.35
1074.98
793.193
8109.72
6564.88
5654.73
3998.38
3142.18
2408.3
2076.64
1545.49
994.856
834.267
6085.94
5743.37
4043.42
3676.05
2618.23
2305.66
1674.85
1444.93
734.127
805.463
4006.9
2596.03
2653.07
1473.06
7217.68
4333.07
5527.01
3040.57
1432.19
830.133
2234.26
1587.9
2643.02
1176.19
847.603
405.142
4399.54
2229.86
1352.76
770.426
1569.73
653.235
522.313
216.563
659.831
582.507
373.881
467.385
1141.24
972.73
464.236
608.051
751.012
390.264
232.518
322.45
177.699
28.4594
-150.436
-23.3793
483.525
193.387
49.3474
366.457
97.6055
24.4298
580.183
245.054
66.5969
400.515
113.427
29.4037
729.355
318.524
81.7695
441.674
132.781
34.1328
3784.51
1853.56
505.089
2220
1065.72
291.911
1461.98
670.637
184.242
915.226
399.953
103.735
489.269
148.943
38.781
3970.46
1782.39
527.681
2485.85
1088.38
314.721
1558.86
669.822
187.85
961.251
387.792
105.579
579.409
167.424
47.3472
418.359
88.6454
22.1255
5.08229
164.62
35.9058
9.42993
2.15916
406.939
88.0069
23.5402
5.58936
166.457
38.0851
12.0499
2.99968
428.125
95.622
27.4979
6.78529
209.59
52.0929
12.5647
3.11279
64.217
20.3157
0.378278
0.17372
12.8052
8.72162
-0.243033
-0.088503
276.641
67.3884
17.0548
4.0502
232.014
55.7814
17.2612
4.3131
403.391
93.3804
27.3296
6.48994
315.831
73.0072
23.1025
4.67388
148.694
38.7272
9.15971
2.84146
137.405
34.606
10.7301
2.97464
45.8208
14.3551
3.1293
0.896968
46.3482
13.1853
4.27481
1.25644
495.921
106.898
27.6218
6.43669
431.549
97.4152
28.6493
6.4187
475.978
103.719
27.7835
6.40243
411.918
93.0215
27.7943
6.04234
454.884
100.548
29.5141
6.82139
370.059
83.2046
26.1418
5.57628
377.188
84.1303
26.7831
6.76981
390.269
86.5512
30.4443
6.92373
266.881
59.9453
19.0627
4.13993
288.903
64.9886
19.8179
4.30766
100.074
21.8623
6.02271
1.37739
287.768
64.2555
19.4539
4.12099
103.409
22.4521
6.19755
1.41551
274.816
60.1683
18.663
3.80519
102.45
21.8284
6.20515
1.43778
237.39
50.6085
17.0828
3.61592
94.4156
19.3352
6.19236
1.46567
207.904
44.1804
15.2764
3.44959
87.5409
17.8744
6.0369
1.41224
134.118
30.9254
9.14609
2.09485
60.2359
14.2908
3.70082
0.893004
166.667
36.5784
12.1419
2.71225
73.5583
16.0233
4.9923
1.2213
86.1276
21.3887
6.06441
1.57075
39.5043
10.1121
2.27532
0.589321
31.7362
9.10673
2.7851
0.786067
15.7788
4.69675
1.18499
0.332626
0.80009
0.115988
0.0167027
0.00246417
0.000431324
0.32424
0.0484008
0.00714135
0.00107704
0.000192895
0.788887
0.116795
0.0179245
0.00289132
0.000563422
0.364038
0.0604795
0.0104777
0.00189218
0.000408763
0.89222
0.145028
0.0248203
0.00445628
0.000957972
0.756774
0.153204
0.0307005
0.00616547
0.00144046
0.58275
0.132413
0.0277718
0.00569105
0.00134424
0.248438
0.0722721
0.0175163
0.00396033
0.00100802
0.848155
0.147847
0.027028
0.00510124
0.00113863
0.608582
0.108725
0.0203872
0.00391536
0.000883264
0.888617
0.148612
0.0270001
0.00512984
0.00115502
0.411595
0.0780392
0.0157664
0.00321232
0.000758435
0.767897
0.143875
0.0271049
0.00518551
0.00116658
0.508537
0.104737
0.0213407
0.0043196
0.00101138
0.277818
0.0699215
0.0162992
0.00363416
0.000919251
0.254809
0.0656485
0.0155504
0.00349727
0.000888629
0.865957
0.117101
0.0162537
0.00233767
0.000399533
0.388012
0.04921
0.00663832
0.000940111
0.000158705
0.825179
0.112077
0.0161339
0.00246561
0.000456579
0.364258
0.0461422
0.0063653
0.000939742
0.000168085
0.744091
0.104727
0.0161046
0.00265512
0.0005309
0.314739
0.044162
0.00698436
0.0011973
0.000249718
0.752034
0.123328
0.0222054
0.00420521
0.000944824
0.382022
0.0599351
0.010732
0.00203773
0.000460138
0.375725
0.0827888
0.0178909
0.00379937
0.000922989
5920.5
10661.6
5625.44
10329.9
5242.62
9503.42
4912.4
8820.56
4738.55
9100.82
2091.79
3560.49
3366.57
5815.91
1179.82
1978.82
347.473
732.473
25704.3
8989.61
4311.86
2813.08
2264.2
7178.26
2861.26
1499.56
967.913
755.646
25175.4
8686.97
4142.16
2693.85
2153.78
7395.17
3082.95
1528.59
989.257
778.646
23733
8074.64
3823.98
2478.49
1971.31
7133.72
2942.4
1444.93
929.043
724.042
21663.9
7282.84
3444.47
2234.65
1775.17
6691.63
2691.87
1297.16
824.068
634.829
18585.2
6240.94
2981.7
1948.63
1551.9
5957.28
2315.15
1098.6
692.42
529.221
10493.8
3829.22
1907.4
1267.25
1014.11
2763.92
988.219
427.408
251.361
186.02
14557.2
5126.56
2504.69
1651.57
1318.5
4062.83
1534.71
714.652
445.68
338.779
6616.47
2490.7
1259.55
840.423
673.314
1701.91
607.263
252.239
136.458
98.9029
2420.44
928.78
475.224
319.079
256.454
763.048
251.854
103.21
56.9867
37.4363
-2699.29
325.074
6499.83
-3996.29
1134.82
1213.45
2991.52
3738.54
2716.65
4428.57
3961.47
5943.7
4275.51
5483.79
2049.73
2892.56
1970.3
2299.35
1304.56
1351.65
1490.26
781.991
50.7983
-6.95603
5.1566
-3.74653
32.4093
8173.97
2906.52
2486.53
1965.06
477.057
243.686
1308.39
199.673
156.837
130.242
49.5414
3937.12
1645.01
679.565
344.206
950.77
437.695
136.853
176.345
35.0333
52.6565
283.949
247.749
5295.35
1730.35
2305.77
930.112
805.757
1600.67
161.317
48.5307
253.701
821.986
557.891
362.413
231.887
112.061
511.186
327.163
205.413
117.789
37.6674
40.1295
28.9184
18.6949
10.2988
3.26745
-5.35362
-3.70041
-2.28197
-1.208
-0.373626
4.00971
2.82469
1.79514
0.983459
0.311387
-3.10433
-2.33728
-1.54001
-0.843251
-0.265471
26.0669
19.1114
12.5259
6.95479
2.20958
4893.64
3368.55
2109.88
1287.51
678.836
1973.06
1206.28
763.567
443.849
151.69
1684.25
1070.33
667.072
380.552
128.553
1264.31
768.393
469.714
262.202
85.4119
309.154
184.883
112.649
61.839
21.0164
189.382
133.86
85.3789
46.8652
14.8885
927.354
605.829
372.126
204.308
66.2632
156.362
109.725
69.3788
38.1127
12.1983
120.389
84.3924
53.5465
29.2945
9.31769
103.112
73.9504
47.5635
26.2236
8.36153
36.8259
25.032
15.524
8.386
2.65852
2185.57
1593.78
1021.09
652.905
372.154
1128.44
719.414
453.981
260.395
84.1656
515.588
356.992
225.648
123.964
39.493
261.002
180.543
113.974
62.481
19.8474
694.598
465.294
289.393
158.732
50.7494
341.395
239.039
151.904
83.1213
25.6871
104.416
72.644
46.1768
25.4221
8.03135
138.626
98.9501
63.4795
34.8189
10.9857
27.6145
19.8491
12.8517
7.12453
2.27449
41.4099
29.6323
19.0459
10.4672
3.31948
219.123
153.998
97.6744
53.3148
16.8926
192.292
135.808
86.4339
47.2419
14.9516
2946.7
1882.93
1233.25
790.497
388.41
1138.38
731.161
459.083
263.019
86.7009
1503.53
977.173
616.446
366.016
118.646
622.922
416.282
263.423
150.207
52.2862
597.885
405.968
255.06
140.497
44.6194
1144.34
696.684
433.655
245.225
64.1442
125.669
88.9485
56.908
31.2627
9.85569
38.0726
27.1611
17.4168
9.55753
3.02636
196.877
138.248
87.9663
48.215
15.1233
-53702.6
-80748.7
-41343.5
-68381.7
-40915.4
-88895.5
-53173.5
-108132
-31342.8
-22083.2
-33220.2
-19014.1
-27612.2
-18552
-31794.9
-16131.8
-47884
-36237.6
-63456.1
-48684.3
-38342.5
-30291.8
-54334.2
-43169.8
-28317.4
-30693.8
-20583.7
-22016.1
-27092.4
-26431.6
-73846.4
-22606.8
-25028.7
-11946.1
-81914.1
-26173
-21806.2
-10816.8
-55090.3
-18139.7
-28240.5
-13343.3
-48963.9
-14750.4
-25448.6
-11204.6
-33367.9
-12919.9
-22449
-10521.2
-30737
-11418.6
-23422.3
-12245.7
-18999.6
-7729.84
-25888.9
-9651.37
-10080.2
-3907.16
-20224.1
-15402
-16435.2
-12650.6
-15941
-13401.5
-13406.6
-11131.5
-17744.1
-13933.9
-21349.3
-17607.7
-12219
-9279.14
-7246.39
-5552.56
-10235.6
-8245.78
-6078.96
-4989.03
-13094.6
-9795.28
-7736.02
-5363.19
-16812.9
-9535.09
-15752.3
-17727.6
-22552.9
-17007.8
-22294.6
-30067.4
-11661.4
-5268.4
-10156.6
-10574.1
-6645.5
-2550.66
-4905.01
-4150.67
-23578.1
-30975.1
-14391.5
-38305.4
-23507.1
-29958.9
-16035.9
-39703.1
-25984.3
-28517.4
-20256.7
-38781.3
-13011.7
-8168.45
-17975.3
-22356.7
-24667.7
-10154
-15730.2
-25005.2
-32105.7
-50002.4
-9790.73
-12551
-16296.9
-23366
-38803.5
-32412.2
-25051.1
-43530.1
-34127.4
-30857.2
-24940.4
-43390.4
-34138.3
-27775.1
-23387.4
-40669.7
-33392.3
-12819.5
-10573.5
-15890.8
-13260.7
-19569.7
-16989.9
-25073.3
-21481.9
-38208.5
-32668.9
-9327.37
-9050.77
-12799.6
-12548.9
-16983.6
-16680.5
-23140.5
-22399.2
-35792.1
-33027.1
-11973.1
-7150.73
-9797.78
-7571.21
-10157
-9080.19
-8611.79
-8432.52
-11267.2
-8898.87
-14482.2
-9066.2
-5147.97
-5447.95
-2063.27
-1968.87
-5608.98
-6160.8
-2131.11
-2176.94
-5541.83
-6009.63
-2150.95
-2173.94
-12771.1
-8871.83
-15532.7
-8330.49
-18502.6
-11528.6
-24567.1
-14256.2
-6831.28
-5582.71
-8722.04
-4302.79
-4666.79
-3902.2
-5001.1
-3270.75
-17462.3
-6559.69
-20801.7
-7159.52
-17511.4
-6572.15
-21482.2
-7788.17
-16806.6
-6088.58
-22186.2
-8448.23
-6195.96
-1893.29
-8842.96
-3147.14
-11867.5
-4450.68
-15480.5
-5585.99
-21609.7
-8109.16
-6037.31
-1704.36
-8219.21
-2996.53
-10940.5
-4027.18
-14719.8
-5269.31
-19758.9
-6594.42
-10130.6
-9051.85
-7803.72
-6681.23
-17323.9
-13325.2
-14223.8
-10724.6
-6959.94
-4859.21
-2880.47
-1875.43
-6568.15
-4937.97
-2762.36
-2114.41
-4540.18
-7103.37
-5389.46
-8041.68
-5154.98
-3513.35
-6070.84
-2799.71
-11644.8
-5222.77
1931.53
-658.829
-2193.33
-1757.22
-725.02
-581.436
-2366.75
-823.519
-1031.23
-310.937
-2479.92
-908.4
-1268.71
-385.81
-2882.25
-1051.78
-2000.52
-547.861
-1968.64
-438.745
-1101.56
-232.13
-7086.48
-6203.03
-5617.39
-5279.21
-11403.4
-10130
-9507.65
-8459.48
-3404.71
-3238.32
-4604.97
-3788.71
-4206.17
-3896.87
-2591.21
-2366.15
-7080.31
-6165.44
-4320.69
-3748.69
-2314.54
-2374.49
-1363.79
-1454.56
-1901.66
-691.267
-1893.75
-668.914
-2515.25
-931.849
-2179.68
-813.683
-1289.5
-466.885
-1419.21
-445.588
-673.618
-200.2
-871.66
-217.953
-2341.06
-1870.49
-1031.91
-1057.66
-2471.25
-2048.4
-1046.94
-1063.18
-2930.17
-2192.21
-1137.1
-1036.82
-4161.21
-5600.3
-3462.65
-2320.89
-905.512
-7095.93
-5109.23
-3700.47
-2649.06
-1124.36
-7125.71
-4621.37
-2957.18
-1809.76
-647.806
-1837.39
-1800.07
-1177.82
-1405.43
-1948.63
-1822.94
-1102.84
-1302.92
-2049.17
-1967.24
-1016.45
-1159.51
-9492.23
-7367.34
-6289.14
-4804.29
-3458.76
-3073.71
-2152.92
-1987.53
-898.856
-1052.19
-6019.88
-5829.45
-3790.24
-3809.28
-2299.69
-2361.46
-1418.86
-1456.32
-498.833
-796.519
-2951.04
-2250.84
-2224.07
-1256.54
-5769.76
-3888.08
-4992.48
-2772.45
-1127.07
-668.472
-1585.16
-1347.14
-2624.18
-1128.55
-1060.4
-461.516
-4441.54
-2188.92
-1691.21
-858.86
-1522.97
-610.789
-635.2
-246.824
-476.534
-478.591
-275.656
-410.215
-781.711
-826.33
-301.957
-541.492
-704.489
-358.107
-196.151
-298.768
-218.664
-40.2661
143.498
21.7984
-1433.55
-558.964
-911.368
-154.11
-1460.07
-626.828
-863.727
-158.519
-1415.93
-530.388
-697.45
-97.8464
-4138.17
-1235.45
-2821.41
-898.217
-2110.11
-720.493
-1270.42
-398.637
-649.792
-104.359
-3832.2
-983.412
-2562.01
-667.17
-1686.09
-450.884
-1027.86
-240.301
-672.077
-119.444
-231.554
-54.879
-15.6627
-3.9247
-90.0996
-21.3932
-6.5742
-1.67067
-237.924
-55.8421
-17.1468
-4.37964
-90.3372
-21.299
-8.35972
-2.26694
-273.615
-63.9608
-20.6412
-5.21617
-132.101
-30.1102
-5.98951
-1.13115
-45.9608
-8.27373
4.50614
1.43789
-24.3284
-1.27114
4.37194
1.46766
-210.912
-49.5672
-11.8556
-2.54222
-175.016
-40.2918
-13.1085
-3.13028
-286.464
-67.4997
-21.2003
-4.72922
-222.768
-51.3279
-18.3793
-3.29977
-129.457
-29.0914
-5.48269
-1.66299
-113.346
-25.4786
-7.63538
-1.9619
-50.8307
-9.25393
-0.243546
0.187388
-40.3533
-7.752
-1.91047
-0.376039
-295.404
-70.179
-21.2447
-5.25621
-310.388
-70.7349
-25.8579
-5.69647
-291.802
-68.8419
-21.7616
-5.25227
-302.906
-68.6616
-25.3205
-5.36554
-296.92
-69.0605
-24.1985
-5.77119
-280.491
-63.0553
-24.1804
-4.95214
-234.332
-53.1891
-20.7601
-5.10457
-282.569
-62.3824
-27.4734
-6.00725
-174.464
-39.1326
-14.4811
-2.33775
-249.489
-50.0435
-19.0966
-3.95704
-98.7636
-17.5074
-5.61692
-1.26222
-228.686
-46.3058
-18.148
-3.6985
-92.4958
-16.5856
-5.51963
-1.24664
-197.868
-39.6167
-16.834
-3.36049
-80.9139
-14.3842
-5.19617
-1.19057
-168.849
-33.3769
-15.3383
-3.18779
-72.7539
-12.8391
-5.20693
-1.17515
-137.544
-27.7427
-12.8159
-2.79814
-56.3539
-10.177
-4.61096
-0.991279
-100.233
-21.6218
-6.82719
-1.3385
-32.7803
-6.47821
-1.83383
-0.342289
-122.199
-25.9398
-9.98464
-1.99223
-40.2336
-7.58979
-3.14837
-0.676829
-66.4577
-14.46
-4.0436
-0.901719
-24.1855
-4.65001
-0.779537
-0.126383
-23.2859
-4.40774
-1.16187
-0.209325
-9.14502
-1.1381
-0.0461364
0.0467568
-0.621312
-0.0858009
-0.0112302
-0.00141503
-0.000189586
-0.24582
-0.034701
-0.0045859
-0.00057672
-7.58689e-05
-0.56979
-0.0743555
-0.00931039
-0.00110287
-0.000128151
-0.208495
-0.026866
-0.00314192
-0.000301346
-1.10832e-05
-0.535033
-0.0678641
-0.00798174
-0.000800152
-4.2146e-05
-0.257138
-0.032081
-0.00256071
0.000163349
0.000179533
-0.158884
-0.0212306
-0.000684841
0.000589713
0.000299297
0.127668
0.0304071
0.00836176
0.00218583
0.000628879
-0.489186
-0.0616778
-0.00696281
-0.000561811
3.12341e-05
-0.325858
-0.0422274
-0.00495227
-0.000418536
2.02946e-05
-0.454364
-0.0523387
-0.00558612
-0.00042475
3.23755e-05
-0.102335
-0.0109014
-0.000933349
3.73111e-05
6.01516e-05
-0.446301
-0.0579733
-0.00588108
-0.00020846
0.00014848
-0.216151
-0.0271381
-0.00218874
0.000174164
0.00017706
0.0434873
0.0204046
0.00677193
0.00188901
0.000560393
0.0340231
0.018249
0.00618002
0.00174452
0.000523021
-0.69363
-0.0892811
-0.0113695
-0.00142287
-0.000192306
-0.316876
-0.038071
-0.00471567
-0.000584088
-7.87278e-05
-0.640545
-0.0786673
-0.00967833
-0.00116847
-0.000147727
-0.29432
-0.0342115
-0.00414301
-0.000503611
-6.58134e-05
-0.537535
-0.0637874
-0.00766919
-0.000886468
-9.74429e-05
-0.20801
-0.0225508
-0.00251032
-0.000261187
-2.1468e-05
-0.339922
-0.0368129
-0.00363774
-0.000220051
4.43206e-05
-0.171572
-0.0156283
-0.00128613
-2.51379e-05
3.60916e-05
0.0561572
0.00924993
0.00203259
0.000493293
0.000143525
-6137.85
-10095.3
-5899.24
-9911.86
-5522.57
-9264.41
-5179.4
-8715.79
-4885.91
-8940.12
-2293.87
-3686.73
-3530.75
-5853.22
-1397.31
-2133.82
-560.586
-889.49
-26504.6
-9149.96
-4341.13
-2817.99
-2265.1
-7346.81
-2905.68
-1509.79
-969.71
-755.942
-25901.8
-8831.82
-4168.6
-2698.31
-2154.64
-7581.69
-3135.07
-1539.22
-991.182
-779.013
-24307.2
-8190.34
-3845.23
-2482.12
-1972.05
-7316
-2990.66
-1454.61
-930.803
-724.409
-22064.9
-7364.76
-3459.69
-2237.3
-1775.76
-6846.36
-2731.62
-1305.05
-825.492
-635.137
-18825.3
-6291.12
-2991.13
-1950.27
-1552.27
-6063.14
-2342.93
-1104.14
-693.437
-529.462
-10580.5
-3846.87
-1910.77
-1267.88
-1014.29
-2819.7
-1001.53
-430.035
-251.853
-186.169
-14695.6
-5155.75
-2510.23
-1652.55
-1318.75
-4126.59
-1551.53
-718.013
-446.288
-338.931
-6673.74
-2502
-1261.74
-840.873
-673.461
-1754.47
-618.913
-254.532
-136.915
-99.0577
-2461.94
-936.652
-476.725
-319.394
-256.553
-812.649
-262.402
-105.203
-57.3618
-37.5013
-1479.42
-4625.36
-11267.8
-1203.01
-10933.3
-4955.96
-10458.7
-5133.73
-19345.7
-10597.8
-22614.9
-12278.2
-0.290023
-0.975592
-1.86759
-2.59163
-1.19529
8.68801
-0.753946
-2.61043
-5.33107
-8.57141
-9.21071
2.75545
-0.127054
-0.0818159
-0.407036
-0.298893
-0.588688
-0.604683
0.332219
-0.473573
2.6016
-0.130815
6.19813
1.60094
48.6234
171.646
478.225
427.873
413.195
140.275
50.6196
170.356
370.7
482.67
455.036
182.53
-0.243399
-0.187459
-0.128106
-0.0730168
-0.0235383
-0.817218
-0.627918
-0.428104
-0.243571
-0.0784462
-1.55867
-1.19221
-0.809133
-0.458729
-0.147458
-2.15444
-1.63981
-1.10752
-0.625565
-0.200685
-1.00408
-0.771827
-0.525765
-0.29863
-0.0960276
7.01798
5.17431
3.39546
1.88046
0.597615
-0.629852
-0.482372
-0.327756
-0.185963
-0.0597997
-2.17536
-1.66101
-1.12532
-0.637109
-0.204645
-4.42163
-3.35718
-2.26202
-1.27538
-0.408779
-7.06661
-5.32778
-3.56595
-2.00087
-0.63972
-7.54458
-5.64613
-3.7538
-2.09662
-0.66881
2.19446
1.5914
1.02853
0.563763
0.178337
-0.107148
-0.082999
-0.0570623
-0.0326847
-0.0105663
-0.0692375
-0.0538706
-0.0372103
-0.0213958
-0.00693147
-0.342618
-0.26477
-0.18159
-0.103811
-0.0335241
-0.252278
-0.19564
-0.134667
-0.077212
-0.0249736
-0.494182
-0.380535
-0.260027
-0.148214
-0.0477847
-0.507966
-0.391593
-0.267872
-0.152802
-0.049279
0.269684
0.199669
0.131054
0.0723548
0.0229256
-0.39756
-0.306131
-0.209092
-0.119084
-0.0383612
2.13133
1.59579
1.06114
0.592664
0.189064
-0.113328
-0.0899042
-0.0626128
-0.0358933
-0.011549
5.02798
3.7251
2.4563
1.36544
0.434731
1.28458
0.939489
0.613178
0.339073
0.107745
38.9639
28.485
18.5786
10.2601
3.25762
135.017
96.8925
62.4035
34.2872
10.8704
365.215
255.29
162.221
89.052
28.2825
317.322
222.363
142.103
78.8268
25.8125
315.043
220.714
139.413
75.898
23.8048
114.962
82.5896
51.9397
27.647
8.59038
40.4776
29.5155
19.2039
10.5873
3.35887
134.538
96.9127
62.5279
34.3538
10.8905
288.317
204.9
131.16
71.9346
22.8225
370.844
261.721
167.012
91.671
29.2016
348.666
244.856
155.583
85.1527
26.9928
140.676
98.9646
62.8491
34.3457
10.8831
0.295067
0.988146
1.90428
2.69747
1.49213
-7.88843
0.760696
2.62296
5.35712
8.62342
9.3226
-2.47663
0.130618
0.0843435
0.417173
0.30712
0.618739
0.631498
-0.257755
0.533483
-2.31515
-0.0408853
-4.83691
-1.06749
-46.8272
-168.35
-470.932
-424.397
-420.255
-155.313
-49.9322
-168.864
-368.084
-481.499
-458.286
-189.76
0.247921
0.191232
0.130916
0.0747394
0.0241176
0.828273
0.636988
0.434742
0.247583
0.0797839
1.59061
1.218
0.827714
0.469814
0.15113
2.24546
1.71228
1.15893
0.655857
0.210646
1.25628
0.969762
0.664058
0.379083
0.122287
-6.34634
-4.65503
-3.03832
-1.6754
-0.531204
0.636182
0.487907
0.332065
0.188694
0.0607346
2.18706
1.67123
1.13327
0.642139
0.206365
4.44598
3.3784
2.27846
1.28576
0.412325
7.11472
5.36927
3.59776
2.02078
0.646494
7.64435
5.72894
3.81501
2.13389
0.681303
-1.95899
-1.40751
-0.900707
-0.489732
-0.154257
0.110271
0.0855443
0.0589136
0.0337978
0.0109363
0.0714412
0.0556533
0.0384967
0.0221644
0.00718625
0.351403
0.271824
0.186639
0.106808
0.0345138
0.259382
0.20132
0.138713
0.0796044
0.0257618
0.519937
0.400934
0.274419
0.156653
0.050552
0.530931
0.409763
0.280678
0.160306
0.0517394
-0.206754
-0.15071
-0.0971741
-0.0528087
-0.0165752
0.448347
0.345799
0.236677
0.135075
0.0435732
-1.89107
-1.41061
-0.93422
-0.51999
-0.165546
-0.0246359
-0.0104896
-0.00182839
0.00111671
0.000702389
-3.89246
-2.85578
-1.86436
-1.02816
-0.325916
-0.837694
-0.595243
-0.377051
-0.203621
-0.0638669
-37.472
-27.3507
-17.8119
-9.826
-3.11806
-132.329
-94.8913
-61.0785
-33.5504
-10.6363
-359.288
-250.872
-159.271
-87.395
-27.7526
-313.576
-218.758
-139.145
-76.8866
-25.1448
-319.179
-222.507
-139.78
-75.6769
-23.6282
-125.517
-89.0822
-55.3807
-29.1335
-8.9456
-39.9205
-29.1023
-18.9323
-10.4377
-3.3117
-133.356
-96.0587
-61.9814
-34.06
-10.7997
-286.213
-203.344
-130.132
-71.3639
-22.6422
-369.671
-260.63
-166.129
-91.098
-29.0046
-350.799
-245.992
-156.022
-85.2379
-26.9849
-145.87
-102.236
-64.6114
-35.1245
-11.0834
-1556.73
-811.724
-43.828
11.6138
2.38627
13.4206
-18.9703
-7535.91
-2295.56
-2172.01
-1101.19
-108.654
-1222.01
-32.0864
180.297
-11.3209
-3727.33
-1473.91
-550.137
-298.092
-913.287
-392.858
-126.39
-150.524
22.8178
-14.5893
-222.922
-210.523
-5243.62
-1726.11
-2244.39
-910.742
-779.911
-1502.24
-139.068
-19.4155
-215.989
-864.43
-580.941
-373.675
-235.888
-112.375
-531.106
-338.831
-211.291
-120.11
-38.0996
-34.3331
-24.4966
-15.6903
-8.58719
-2.71461
9.26264
6.71423
4.35175
2.39757
0.759809
2.22687
1.89946
1.39118
0.82154
0.269997
11.0855
8.37119
5.60319
3.14211
1.00516
-14.9381
-10.6603
-6.80678
-3.70317
-1.15945
-4517.59
-3161.13
-2003.82
-1246.76
-694.814
-1534.29
-917.636
-585.336
-343.211
-111.191
-1462.42
-926.036
-578.811
-332.456
-112.448
-718.621
-441.165
-284.837
-166.804
-54.131
-83.5201
-58.3876
-36.8853
-20.0659
-6.27981
-875.537
-580.865
-363.162
-202.746
-66.3333
-23.4495
-15.7112
-9.77509
-5.36379
-1.72566
135.451
93.0976
58.6144
32.2764
10.4519
-7.03514
-3.83732
-2.05934
-1.11773
-0.388319
-2021.51
-1470.49
-939.317
-607.66
-362.749
-990.562
-618.076
-385.693
-220.739
-70.9731
-413.6
-284.093
-178.636
-97.8598
-31.0471
-224.502
-154.246
-96.9838
-53.1123
-16.8579
-668.823
-449.646
-281.337
-155.429
-49.9916
-303.425
-209.667
-131.554
-71.2173
-21.7344
-95.6673
-65.912
-41.5449
-22.7487
-7.15988
-117.424
-83.0297
-52.8084
-28.7825
-9.03683
18.5329
13.7485
9.06904
5.05319
1.62397
-10.7002
-7.00809
-4.15959
-2.17138
-0.665759
-171.331
-120.016
-76.0824
-41.607
-13.2024
-162.653
-114.34
-72.5672
-39.6384
-12.5427
-2906.19
-1850.6
-1209.93
-776.836
-385.122
-1133.49
-726.121
-454.711
-260.053
-85.6972
-1442.67
-926.756
-578.408
-342.006
-109.528
-605.296
-401.411
-252.287
-143.323
-50.0278
-576.515
-389.83
-244.09
-134.195
-42.5525
-1063.92
-636.131
-392.261
-221.171
-56.041
-107.191
-74.8685
-47.33
-25.7838
-8.07727
-14.4395
-9.63392
-5.82489
-3.08299
-0.955498
-165.75
-114.744
-72.0675
-39.1153
-12.1541
-14.8657
-43.6457
-77.3144
-124.77
-194.173
-280.365
-39199.5
-32773.9
-28531
-34037.4
-28091.1
-22245.2
-23752.7
-18138.6
-38236
-31994.3
-32972.9
-29050.2
-28914.1
-22963.3
-27748.1
-33432.2
-29493.4
-24428.7
-27803.2
-24963.4
-19554.2
-20495.2
-15254.4
-34731.4
-30577.5
-31550.3
-28630.1
-27185.5
-22353.6
-27398
-25892.7
-23704.1
-19413.3
-21343.1
-20494.9
-16890.3
-16809.3
-13711.6
-27492.4
-26826.3
-25979.7
-26060.2
-23366.1
-19847.1
-25084.9
-17254.3
-16400
-13325.4
-14141.1
-14854.9
-13503.1
-12124.2
-11015.4
-19381.8
-21936.6
-18766.1
-21457.7
-17772.3
-16032.4
-20769.2
-10530.6
-10211.8
-8184.55
-8527.73
-9664.74
-9401.98
-7655.96
-7237.53
-12539.4
-15906.3
-12302.6
-15326.1
-12172.6
-11676.6
-14913.9
-3678.41
-3597.67
-2855.48
-2954.17
-3489.42
-3556.09
-2687.09
-2535.04
-4696.99
-6459.03
-4627.55
-5980.66
-4704.92
-4663.37
-5788
-12099.6
-11614.9
-18461.8
-20630.6
-11161.5
-9833.81
-16703.7
-13368.6
-8538.91
-4545.37
-8352.78
-4501.4
-8001.08
-7935.97
-4570.27
-11591.6
-10908.4
-16975.4
-18657.8
-10026.4
-8156.01
-14936.3
-11521.2
-6876.02
-2403.01
-6529.14
-2480.61
-5371.12
-4984.61
-2633.79
-9757.61
-9163.54
-14053.6
-15186.5
-8432.84
-6912.74
-12506.2
-10186
-4626.19
-2229.1
-4302.16
-2484.66
-3677.28
-3584.95
-2709
-7046.24
-6674.16
-9933.57
-10511.4
-6181.41
-5301.95
-9106.8
-7985.65
-4127.84
-2228.68
-3969.27
-2474.79
-3624.07
-3627.83
-2648.69
-4402.94
-4183.66
-6131.96
-6414.71
-3836.63
-3365.16
-5698.12
-5093.85
-2760.7
-1887.97
-2669.33
-1991.34
-2564.09
-2596.36
-2032.5
-1536.62
-1464.58
-2137.62
-2225.49
-1372.06
-1260.16
-1993.31
-1791.54
-967.272
-853.559
-959.082
-860.623
-975.441
-1010.2
-836.83
12600.9
37324.4
9852.78
40826.1
5327.8
41818.8
8317.86
62410.9
13182
77472.5
14016.4
57447.2
15296.5
52192.9
15170.6
44936.9
6823.46
4042.4
21122.3
10500.7
6344.09
2921.43
21644
8669.78
10165.6
8269.89
29436.1
23513.5
6877.37
6098.75
29850.8
24702.9
15513.5
5883.14
12279.2
4958.27
6253.12
15560.8
64656
19421.1
19910.2
8532.99
74046.6
22725.4
17222.7
7349.14
46070.2
15241.5
23369
10395.7
40275
12635.9
13935.1
7378.24
19198.7
8185.94
13220
7827.16
20246.9
8165.44
16337.3
10335.9
12934.5
5918.77
21159.3
8134.1
8172.84
3207.57
23298.1
17472.6
13411.8
11867.4
20738.6
17360.4
11029.1
10815.3
14568.6
12880.2
21202.7
17747.8
9512.15
7988.47
4973.05
4138.93
7867.41
7160.86
3928.35
3679.86
10452.7
8532.41
5640.61
4068.35
13938.2
8458.66
14731.6
17200.1
20109.5
15922
21517.5
29521.7
9514.08
4493.07
9164.55
10124.6
5042.67
1966.08
3947.65
3760.83
18162.2
33331.3
12441.1
38110.6
19448.9
32590.1
14627.7
39595.9
23519.6
30566.7
19383.6
38903.5
18439.7
16414
18672.1
20169.6
23652.7
10103.7
15486.9
24754.8
32413.7
49766.6
14033.3
14978
16941.9
23131.6
38339.5
39092.3
33874.6
46062.6
41363.2
36675.7
32748.3
45275.6
40231.1
31870.6
29504.7
42040.4
37876.4
11374.1
10367
15454.3
14335.3
21102.3
19724.2
28107.2
25324.6
39252.8
35690.7
9658.52
9492.24
13849.8
14284.6
18545.5
19305.9
24725
25462.6
36324.7
35955.8
13091.4
7608.63
9937.91
7663.03
11699.2
9715.63
9062.21
8754.94
11121.9
8835.31
15036.8
9386.11
4764.74
5287.73
1470.45
1687.15
5411.76
6169.68
1649.43
2020.1
5080.56
5767.31
1551.45
1853.33
12471
8730.16
15216.9
8187.76
18625.2
11737.3
24378
14412.9
6402.25
5324.44
8379.05
4088.35
4168.75
3594.38
4664.66
3040.47
26514.2
15625.3
4913.54
29158.9
16454.1
5303.57
25213.8
14735.1
4792.53
28329.6
15997.9
5067.59
22549.1
12801.9
3938.32
26719.4
15047.7
4727.19
6674.39
3537.43
1000.59
10701.7
6253.31
1859.07
15078.5
8855.92
2700.09
19200.2
10879.1
3293.01
24706.6
13632.2
4289.78
6780.92
3341.81
1048.64
10034.7
5747.24
1886.74
13553.2
7787.9
2504.9
17725
9787.9
3075.21
23011.5
11783.9
3711.15
-356.358
783.339
553.673
2383.3
2686.71
2134.8
6631.81
5053.19
555.399
602.519
586.577
629.635
322.947
590.855
545.971
876.762
1244.07
844.718
2803.29
2064.93
1096.98
1626.21
3089.58
-40.7659
7974.04
1916.27
-4974.46
-2079.88
9.55342
-436.792
-1096.95
-1349.03
5821.96
1809.61
1475.76
622.607
5809.82
1777.18
1568.18
670.053
5539.09
1784.4
1828.38
731.157
1276.05
362.673
31.2899
8.20845
11726.6
9380.57
4808.6
5696.94
16704.4
14464.1
7997.66
8646.58
3233.34
3684.1
7774.96
5680.89
2801.97
3490.3
1103.54
1650.11
5184.12
5433.95
2435.42
2708.63
1465.67
2218.09
349.501
1042.62
2133.36
881.986
2243.67
845.423
4212.98
1441.53
3183.56
1180.98
925.434
440.568
1401.47
481.787
105.11
76.8842
677.078
182.434
6238.95
2912.35
2100.5
1539.64
6321.4
3039.42
2002.06
1490.03
6556.59
3181.44
1940.29
1396.5
11460
14316.3
8224.59
4741.14
1561.11
7989.03
7270.19
5853.89
4055.11
1580.94
11695.3
7994.21
4981.29
2891.51
1042.54
1517.14
860.724
1048.27
711.91
1681.23
988.631
1062.17
747.641
1918.98
1218.15
1074.17
792.835
8109.4
6564.53
5654.39
3998.1
3141.75
2408.01
2076.12
1545.21
994.357
833.959
6085.69
5743.08
4043.18
3675.8
2617.93
2305.43
1674.52
1444.7
733.863
805.242
4006.71
2595.88
2653
1472.99
7217.46
4332.89
5526.87
3040.47
1432.13
830.081
2234.05
1587.76
2643.01
1176.16
847.687
405.159
4399.45
2229.8
1352.76
770.408
1569.76
653.231
522.438
216.598
659.799
582.458
373.86
467.334
1141.05
972.593
464.095
607.922
751.068
390.27
232.588
322.456
177.827
28.5075
-150.315
-23.3319
479.853
191.58
48.9648
365.455
97.3049
24.321
580.334
245.259
66.6601
400.511
113.535
29.4434
729.298
318.543
81.7803
441.559
132.784
34.14
3784.29
1853.45
505.06
2219.84
1065.64
291.889
1461.83
670.576
184.227
915.097
399.917
103.729
489.136
148.921
38.7784
3970.24
1782.28
527.65
2485.67
1088.3
314.698
1558.71
669.761
187.834
961.118
387.746
105.568
579.285
167.397
47.3417
418.206
88.5471
22.0275
5.05042
163.907
35.7022
9.34112
2.13649
406.989
88.0386
23.5543
5.59335
166.595
38.1111
12.0606
3.00288
428.084
95.6225
27.5001
6.78621
209.752
52.1076
12.5673
3.11348
64.4759
20.3541
0.385672
0.175096
13.1161
8.79046
-0.226964
-0.0852287
276.725
67.4076
17.0601
4.05156
232.053
55.7949
17.2644
4.31395
403.341
93.3717
27.3278
6.48993