/*--------------------------------*- C++ -*----------------------------------*\
| =========                 |                                                 |
| \\      /  F ield         | OpenFOAM: The Open Source CFD Toolbox           |
|  \\    /   O peration     | Version:  2412                                  |
|   \\  /    A nd           | Website:  www.openfoam.com                      |
|    \\/     M anipulation  |                                                 |
\*---------------------------------------------------------------------------*/
FoamFile
{
    version     2.0;
    format      ascii;
    arch        "LSB;label=32;scalar=64";
    class       volScalarField;
    location    "0.3";
    object      gradTx;
}
// * * * * * * * * * * * * * * * * * * * * * * * * * * * * * * * * * * * * * //

dimensions      [0 -1 0 1 0 0 0];

internalField   nonuniform List<scalar> 
5712
(
-12551.9
-15732.9
-27759.7
-45086.8
-43065.4
-84845.7
-28655.8
-86631.4
-29037.7
-68746
-35851.4
-60565.3
-27012.6
-37337.4
-14682.2
-15467.6
-23630.3
-28045.9
-30828.2
-29182.8
-19733.7
-28715.5
-29110.2
-28994
-9161.48
-7418.17
-12485.4
-9703.01
-21340.8
-15746.9
-38777.7
-29248.6
-32024.1
-33055.2
-35878.4
-38309.7
-10076
-8224.28
-69773.7
-85807.8
-39208.6
-51192.5
-83890.8
-103285
-39844.5
-49072
-55598.7
-72405.7
-46913.5
-63185.2
-28006
-34499.3
-6292.97
-2106.99
-8053.98
-2936.25
-14332.6
-6125.69
-23808.9
-9158.5
-17205.5
-5937.37
-16270.2
-4926.64
-30526.6
-9439.84
-39564.8
-13154.1
-40333
-23907.9
-34790.2
-24018.5
-36362.9
-22977.2
-29870.3
-22204.5
-31109.7
-23270.9
-34000.6
-22437.4
-34392.2
-24652.3
-36007.2
-25333.8
-30039.1
-22473.3
-31728.8
-22978
-31941.5
-24413.9
-34316.9
-25336.6
-35764.7
-16487.5
-23814.1
-29689.9
-38199.4
-19167.5
-23226.5
-30636
-35914.4
-15221.6
-24929.7
-29529.8
-37294.7
-15272.3
-26062.2
-29965.1
-6001.88
-6739.32
-2203.19
-4833.37
-17027.7
-19769.5
-7744.21
-15729.3
-27276.6
-31562.9
-14635.1
-26861.5
-19628.9
-8680.93
-26721.8
-39218.2
-23430.1
-4876.54
-8884.51
-17411.3
-38102.8
-31761.9
-13183.5
-20322.4
-26628.6
-30590.7
-42771.6
-5787.63
-5065
-3919.38
-3598.87
-16855.9
-13278
-12524.1
-10833.6
-24711.3
-18499.7
-19091.7
-16156.4
-8241.21
-7805.44
-14241.4
-13481.3
-22709.9
-18653
-32033.1
-25109.5
-28264.4
-24301.1
-12659.4
-10150.6
-18800.2
-12620.4
-22004.8
-13875.3
-24341.2
-14999.5
-32557.8
-20990.9
-16242.8
-5454.02
-14572
-9297.96
-14621.5
-11857.6
-15387.1
-14124.7
-15753.3
-10125
-18299.1
-5152.03
-14775.1
-14503.1
-15675.8
-15890.9
-16079.2
-17676
-17073.9
-18803.6
-16045.8
-15874.3
-16972.4
-17490.4
-22525.6
-12026.2
-32444.9
-12173.9
-22122.6
-5498.2
-30047
-5606.54
-23203.7
-16361.6
-33745.6
-14255.3
-21967.2
-18755.7
-31739.2
-17262.4
-3791.57
-2632.83
-1471.04
-2574.92
-1905.02
-1176.39
-9538.09
-5566.44
-2990.51
-7207.48
-4107.55
-2168.39
-11472.2
-6081.4
-3537.14
-10645.3
-5452.11
-3089.97
-5093.98
-2117.62
-1071.41
-9910.45
-3963.25
-1653.28
-11945.4
-5008.58
-2004.6
-15735.9
-7408.69
-3562.51
-16562.6
-7320.74
-3139.58
-8988.07
-4105.77
-1921.03
-8842.88
-4050.11
-1659.47
-10325.8
-4566.94
-1775.97
-11832.4
-5353.23
-2170.82
-16527.8
-6596.38
-2227.06
-12967.9
-19633.1
-11875.6
-15822.3
-13100.9
-24223.4
-12032.7
-21246.3
339.859
-960.618
709.808
-551.153
-2467.24
-4621.68
-1505.48
-2969.2
-2227.22
-3816.51
-10822.7
-14744.2
-6379.65
-5419.62
-14013.7
-13021.7
-21988
-24320.2
-172.586
4891.74
-8878.68
-6542.18
-5782.69
-3184.32
-1032.87
-638.61
-932.655
-628.788
-2931
-843.093
-1793.84
-523.995
-7804.65
-1858.34
-6485.55
-1848.98
-7258.94
-1877.99
-8029.65
-2096.59
-13999.9
-11392.8
-11107.6
-11025.2
-23696.9
-18604
-19739.9
-17484.3
-6998.63
-6790.15
-8000.42
-6434.91
-10516.8
-10813.1
-11047
-10855.4
-19240.7
-17107
-20187.3
-17267.2
-6294.66
-6750.3
-6079.55
-6728.51
-741.827
-494.078
-4019.65
-1269.41
-928.402
-400.21
-3589.15
-1075.02
-702.343
-413.119
-4147.58
-1365.47
-823.602
-407.032
-4109.41
-1402.05
54.9687
133.321
-257.221
-101.193
309.056
535.531
-401.475
-135.312
-870.287
-279.991
-1049.57
-673.564
3680.56
1832.85
1763.18
1010.86
37.5919
4871.2
6106.94
2159.42
1880.42
144.108
-9601.98
-6239.68
-4003.14
-2907.24
-941.702
145.814
97.7052
-32.6786
-8.6464
414.921
329.864
-76.3864
-16.0336
306.031
354.609
-275.734
-127.176
822.051
-434.961
3437.59
1456.57
1231.35
423.75
1053.2
565.609
79.8303
45.0794
-5255.41
-3284.25
-1207.61
-207.623
-444.074
66.5783
-345.516
62.6754
15.496
73.0299
-3904.97
-2823.41
-6970.3
-3598.97
-8021.46
-5368.3
-10946.5
-6407.97
-4160.35
-2033.57
-1953.8
-1560.76
-7940.21
-3214.67
-8494.45
-3232.45
-12375.9
-6486.45
-13331.4
-6638.09
-4813.34
-1682.22
-5140.83
-1618.5
-2143.23
-1103.9
-632.634
-790.239
-1115.43
-896.831
-311.129
-608.391
-2287.89
-976.168
-790.115
-894.505
-2706.54
-904.244
-1031.23
-790.004
48.8456
21.2445
14.4142
-8.30918
2.13468
2.16223
164.682
80.2668
51.6867
-14.2386
13.233
11.5361
210.645
132.791
83.9622
-67.311
26.2185
24.0772
-680.01
-108.661
-25.7787
254.357
281.174
193.609
126.171
146.706
116.02
226.544
155.681
108.76
-48.5997
30.3966
21.0538
-2682.41
-1015.06
-384.498
-647.947
-141.861
10.7284
-310.941
-26.2314
40.8475
-168.769
1.93483
35.0441
-177.761
-7.29209
10.1982
-45.6057
-9.11076
-1.94587
-0.598607
-23.8637
-3.05325
1.51443
0.480474
-116.388
-23.7055
-4.09733
-1.35035
-56.9813
-7.45529
2.46201
0.607831
-182.181
-39.258
-7.53413
-1.66009
-140.305
-26.1438
-4.92433
-0.850967
-85.2636
-16.562
-5.22436
-1.22227
-88.9511
-18.8433
-3.49259
-0.654337
-301.801
-67.8055
-19.729
-4.19316
-319.68
-72.3095
-24.6694
-5.16654
-253.289
-57.2161
-15.6505
-2.21606
-263.905
-59.8018
-21.6149
-4.7317
-272.607
-61.7075
-16.8832
-3.78204
-344.196
-78.008
-26.0221
-5.60678
-264.012
-60.5516
-14.932
-3.36198
-353.632
-80.3065
-26.5905
-5.99403
-31.8329
-7.1299
-2.26067
-0.819942
-19.1898
-4.67504
-2.11329
-0.612794
-81.9437
-18.738
-5.27997
-1.77808
-41.8201
-10.2735
-4.78423
-1.51443
-195.708
-45.5689
-13.1514
-3.58231
-140.768
-33.1387
-11.0028
-2.2588
-123.133
-30.1033
-8.94088
-0.845415
-71.7923
-17.4533
-7.23195
-1.5091
-225.366
-51.807
-18.8729
-3.22984
-3.06439
-0.62113
-0.516142
-0.106647
9.83134
2.50923
0.435025
0.108881
-18.5439
-3.97953
-2.23436
-0.451592
23.6306
6.09958
0.817344
0.225182
-41.3715
-9.30385
-4.09319
-0.69928
36.1421
8.88152
1.15618
0.294787
-44.9701
-10.3415
-5.02444
-0.943782
45.901
10.6746
0.942938
0.167032
-70.5461
-14.737
-8.37151
-1.85195
29.9604
8.19192
-0.552653
-0.142032
-202.658
-39.2174
-16.2487
-3.27479
-62.1478
-8.92665
-4.05412
-0.892227
-133.689
-25.6095
-12.9993
-2.71343
-20.8331
-0.422296
-2.52975
-0.555296
-247.968
-49.9461
-18.6352
-3.96187
-82.5451
-14.447
-5.01427
-1.16289
-267.948
-56.1946
-19.9988
-4.43242
-91.9451
-17.9991
-5.57454
-1.32208
-0.132931
-0.0167507
-0.00122974
0.000114678
9.52393e-05
-0.0188588
0.00125298
0.00192832
0.000703119
0.00022651
-0.354487
-0.0411306
-0.00292181
0.000235232
0.000202103
-0.0651264
0.0119738
0.00725443
0.00223906
0.000665629
-0.382824
-0.0312909
0.000368468
0.00101275
0.000396448
-0.017099
0.0362195
0.0136196
0.00366965
0.00101793
-0.070278
0.00344352
0.00327388
0.00101804
0.000297799
-0.16931
-0.0193009
-0.00128301
0.000121156
9.20471e-05
-0.315306
-0.0223263
0.00111939
0.000982588
0.000354441
-0.258012
-0.0281844
-0.00293904
-0.000255398
-6.7912e-06
-0.00992465
0.0323148
0.0110149
0.00283491
0.000766343
-0.174484
-0.0131578
-8.63319e-05
0.000304937
0.000123177
-0.456506
-0.0550733
-0.00628603
-0.000638952
-4.87756e-05
-0.274316
-0.0298891
-0.00306725
-0.000256489
-4.09266e-06
-0.536396
-0.0684845
-0.00823341
-0.00091494
-9.44559e-05
-0.342658
-0.0411535
-0.00494398
-0.000581994
-7.21737e-05
-0.141117
-0.0168417
-0.00146788
9.00772e-06
5.9126e-05
-0.0465244
-0.00381137
0.000218071
0.000216265
8.57554e-05
-0.28357
-0.0297385
-0.00183764
0.00024857
0.000170058
-0.087989
-0.00423166
0.00135069
0.000633076
0.00021892
-0.399349
-0.0352494
-0.00147314
0.00045794
0.000235465
-0.0076375
0.0129712
0.00458521
0.00122822
0.000345564
0.11023
0.0399712
0.01005
0.00230404
0.000587801
0.130017
0.0283821
0.00600677
0.00127377
0.000312879
0.112899
0.0302403
0.00691029
0.00150898
0.00037299
-560.631
-792.762
-1651.45
-2403.82
-2772.53
-4165.99
-3647.9
-5961.02
-3965.12
-6323.01
-4424.7
-6200.98
-3757.56
-4932.48
-4935.46
-7034.26
-4924.72
-7071
-1589.21
-514.636
-237.71
-151.644
-117.699
-471.122
-220.288
-38.5427
-22.6137
-3.48668
-5173.28
-1688.28
-785.678
-504.357
-395.049
-1278.6
-407.571
-173.581
-100.343
-56.9834
-9097.3
-3003.3
-1413.57
-915.199
-723.642
-2520.89
-953.178
-460.737
-294.929
-219.993
-13002.9
-4362.27
-2090.83
-1369.98
-1091.79
-3951.5
-1655.81
-857.143
-570.83
-446.112
-18279.8
-6380.89
-3147.09
-2095.48
-1684.45
-5948.26
-2737.4
-1475.02
-1002.47
-798.594
-25658.5
-9947.21
-5204.17
-3561.84
-2894.42
-7524.57
-3596.93
-1985.39
-1369.65
-1102.34
-22917.6
-8521.86
-4336.98
-2928.76
-2368.05
-7110.23
-3416.01
-1873.59
-1286.24
-1033.43
-27061.5
-10714.5
-5688.7
-3922.77
-3193.41
-7620.35
-3559.31
-1945.4
-1339.92
-1077.1
-28003.8
-11105.1
-5930.45
-4112.99
-3354
-7641.65
-3564.58
-1938.88
-1316.13
-1065.21
-1180.09
-10492.3
-9790.44
-4872.2
4255.8
5956.2
11235
15452.5
6001.83
13517.8
152.151
5956.48
5381.6
10458.3
12660.6
18558.6
14880.4
17690.8
8419.8
9864.96
-11185
-6802.49
-299.585
-109.793
-69.7635
-89.8734
-114.004
-6439.07
-4042.4
-3398.29
-2376.88
-1116.97
-749.079
-1522.8
-460.835
-337.38
-321.35
-192.429
-10601.1
-3179.52
-332.174
-715.533
-1723.16
-827.725
-716.304
-400.631
-105.201
-171.096
-265.678
-336.337
-10666.7
-5065.24
-4937.48
-2307.23
-1734.43
-2435.41
-461.717
-334.366
-689.575
-6134.62
-4626.59
-2926.08
-1875.62
-997.955
-4131.14
-2539.67
-1608.4
-957.492
-315.366
-234.492
-166.749
-106.439
-58.0973
-18.3182
-87.8978
-64.0649
-41.6272
-22.909
-7.25347
-55.5401
-40.2123
-25.9305
-14.1763
-4.47551
-72.4915
-53.2549
-34.7897
-19.1862
-6.08039
-90.4625
-65.2739
-42.0235
-22.9829
-7.25898
-3561.63
-2429.36
-1474.74
-901.494
-553.025
-1831.5
-1136
-602.399
-328.569
-172.212
-2074.29
-1219.07
-735.918
-417.682
-145.304
-1124.6
-663.867
-359.234
-195.869
-87.6973
-498.301
-276.675
-145.2
-80.0931
-32.11
-524.867
-338.023
-202.316
-107.636
-34.298
-974.925
-592.603
-351.062
-189.585
-62.9048
-285.265
-166.796
-95.2591
-49.8797
-16.1712
-247.076
-164.944
-100.362
-53.3654
-16.794
-229.358
-149.516
-89.3612
-46.97
-14.7256
-143.14
-96.8466
-59.2915
-31.4922
-9.86362
-5997.55
-3981.79
-2508.36
-1563.66
-860.167
-2082.26
-1295.45
-797.563
-452.668
-154.085
-243.163
-162.468
-99.4668
-53.4084
-16.9075
-529.899
-358.263
-221.933
-120.342
-38.2368
-1232.74
-810.572
-498.879
-273.259
-87.8628
-618.065
-420.088
-261.461
-142.132
-44.9253
-544.952
-375.787
-235.666
-128.095
-40.1959
-308.258
-215.577
-135.87
-73.7039
-23.2476
-80.7112
-56.2187
-35.1363
-18.8591
-5.91623
-133.967
-95.3369
-60.6911
-32.9731
-10.3926
-199.834
-136.734
-84.7095
-45.4957
-14.3301
-256.679
-178.228
-111.767
-60.4946
-19.0992
-5856.19
-4141.87
-2644.99
-1687.09
-880.439
-3174.34
-1964.48
-1238.12
-727.962
-247.013
-3313.15
-2144.66
-1309.85
-755.502
-254.542
-1625.81
-1018.1
-628.175
-351.038
-105.366
-1266.9
-834.963
-516.144
-282.604
-87.4059
-1712.43
-1068.7
-657.097
-366.185
-107.612
-348.666
-239.108
-149.026
-80.685
-25.4281
-261.623
-185.975
-118.443
-64.4664
-20.3291
-522.406
-359.731
-224.981
-122.043
-38.4997
-10849.8
-24080.5
-18556
-62154.9
-16392.2
-75603.1
-11392.3
-30045.1
-15211.9
-14472.2
-30488.5
-25087.5
-13883
-16424.7
-30919
-25360.3
-7325.18
-5294.41
-17044.6
-12707
-12854.8
-7318.31
-46702.2
-34923.1
-26737.7
-18094.7
-30668.7
-21072.8
2970.41
-3443.52
-73030
-87139.5
-38108.9
-51140.6
-86823.4
-104552
-38599
-48815.8
-57809.6
-73615.8
-45950.3
-63363.1
-30532
-35562.9
-4476.74
-1016.3
-9699.64
-3262.12
-8754.46
-4485.87
-27033.1
-10066.9
-5730.21
-2965.2
-12430.7
-3792.44
-30855.2
-9425.49
-40045.8
-13269.8
-28756.2
-19124.6
-31147.5
-21805
-24263.7
-17552.3
-25961.4
-19826.7
-28551
-21559.9
-25891.1
-19014.2
-33010.7
-23672.7
-35721
-25075
-28434.6
-21406
-31314.3
-22688.8
-31140.4
-23650.4
-34193.7
-25131.5
-34604.9
-16290.2
-22623.6
-29441.8
-33777.1
-18190.7
-20768.1
-30022.2
-35777.5
-15222.6
-24417.2
-29437.9
-37365.5
-15302.3
-25935.2
-29941
-1448.27
-1370.01
-53.6474
-2465.1
-5687.07
-7544.42
-4627.55
-12327.8
-9930.86
-13569
-10618.9
-22733.7
-23192.6
-19017
-23436.4
-30706.2
-21812
-10733
-9627.12
-13056.1
-29055.2
-30515.6
-17559.8
-20584.8
-23303.6
-25816.8
-41337.9
-2144.67
-2317.14
-1904.59
-2114.81
-7715.76
-6512.72
-9113.29
-7996.04
-9913.55
-6914.17
-15030.9
-12535.1
-10817.6
-9128.49
-11701.2
-10305.3
-16022.2
-12406.6
-23687
-18419.3
-26114.5
-21848.4
-15151
-11028.9
-17431.6
-11050.3
-18177.5
-11084.4
-20269.5
-12244.8
-31064.4
-19062.4
-14764.7
-5272.45
-13291.1
-8882.13
-14182.1
-11931.2
-14356.5
-13752.6
-14474.4
-9704.98
-16368.3
-4809.69
-13981
-14176.8
-15401.7
-15775.2
-15319.4
-17328.1
-16794.5
-18670.9
-15326.6
-15604.8
-16735.9
-17398.5
-21620.4
-11736
-32182
-12063.1
-20495.9
-5317.65
-29590
-5782.69
-22753.5
-16186.3
-33615.1
-14176.1
-21817.4
-18700.4
-31699.4
-17249.7
-2308.43
-1904.75
-1786.49
-2007.37
-5325.64
-3851.92
-6067.47
-5741.07
-4876.01
-3890.81
-9728.68
-8180.99
-7626.49
-4641.55
-9009.52
-4984.42
-9142.39
-4914.69
-13253.7
-8319.97
-16853.4
-9905.53
-9980.17
-5582.42
-7343.44
-3648.31
-7995.06
-3628.08
-9185.83
-4123.72
-12889.4
-4285.14
-5705.89
-10408.7
-5405.75
-11421.1
-9101.45
-13893.7
-11693.3
-17466.2
-1303.6
-971.252
-988.32
-774.646
-3553.16
-3056.96
-3113.4
-2578.03
-890.702
-1546.8
-7828.7
-7839.33
-3144.39
-3551.73
-11901.6
-12392
-20027.4
-23687.4
663.677
5085.88
-7210.49
-5982.21
-4837.01
-2921.3
-750.279
-581.64
-751.357
-551.424
-1768.29
-804.678
-1235.22
-462.383
-5024.1
-1689.2
-4966.38
-1601.52
-6249.51
-1682.15
-7627.61
-2004.99
-7281.29
-8575.61
-8470.86
-9479.07
-14009.6
-14025.2
-16265.6
-15338.6
-5465.36
-5925.32
-4450.17
-5208.23
-9213.5
-10046.3
-10662.2
-10633.8
-17626.3
-16102.5
-19711.2
-16985.2
-5503.85
-6276.18
-5826.39
-6581.85
-366.643
-423.705
-3633.42
-1190.48
-450.703
-401.158
-3215.19
-1023.5
-427.85
-361.143
-3899.21
-1308.14
-706.556
-383.536
-4028.08
-1381.63
-597.57
-592.457
-515.048
-477.373
-1540.34
-1534.95
-811.49
-758.64
-4075.96
-3984.43
-1497.07
-1382.24
-4330.78
-10250.4
-2334.99
-35.8577
-191.625
-3843.07
-904.361
-1681.1
804.023
-34.1842
-14511.8
-8811.24
-5167.48
-3430.9
-1047.44
-614.558
-540.352
-457.77
-389.31
-1608.16
-1387.81
-748
-659.232
-3493.21
-2944.08
-1122.09
-972.238
-5074
-4705.29
-1476.38
-2282.21
-2218.8
-2361.77
-367.569
-708.65
-200.519
-271.783
-9638.78
-5677.26
-4527.03
-2449.67
-2412.15
-1382.74
-1415.97
-745.981
-242.95
-190.724
-4659.47
-3591.79
-6709.3
-3665.03
-8577.33
-6065.83
-10371.2
-6367.66
-4127.59
-2142.86
-2600.43
-2172.15
-7580.18
-3144.46
-8338.94
-3187.44
-11803.9
-6334.16
-13102.1
-6565.21
-4634.25
-1669.1
-5052.6
-1597.76
-2209.08
-1203.41
-719.057
-879.751
-1562.1
-1309.28
-521.028
-862.808
-2237.86
-988.279
-802.462
-914.295
-2669.47
-897.436
-1025.39
-790.704
-374.833
-339.643
-229.8
-187.789
-1203.48
-1061.27
-377.423
-259.779
-2342.58
-1611.7
-481.086
-150.063
-4426.68
-2627.08
-2704.81
-1518.35
-1973.59
-1161.48
-767.479
-477.202
-243.568
-50.3023
-4007.31
-1988.72
-1934.47
-858.673
-1183.18
-527.327
-685.949
-330.688
-371.516
-31.6041
-56.1896
-12.3826
-2.67586
-0.748142
-39.139
-8.61404
0.0196292
0.136984
-141.912
-31.9276
-5.91346
-1.6967
-84.3541
-18.6896
-0.808653
-0.292639
-212.717
-50.1991
-10.5565
-2.39235
-157.465
-37.0391
-9.19707
-2.35859
-88.3388
-21.3249
-7.27542
-1.82286
-86.7306
-20.1003
-4.18147
-0.875078
-292.249
-69.7784
-21.4891
-4.98679
-310.438
-72.2518
-25.5785
-5.48542
-272.139
-65.3726
-19.0815
-3.52096
-261.722
-61.2697
-23.1929
-5.19828
-264.407
-62.6704
-17.7755
-4.07475
-336.813
-77.8001
-26.5914
-5.88703
-260.288
-60.8028
-15.2506
-3.48059
-350.87
-80.226
-26.7687
-6.07949
-54.7875
-11.7799
-3.14945
-0.960566
-51.836
-10.573
-3.48607
-0.845925
-137.53
-30.3295
-7.66335
-2.20282
-127.206
-26.3664
-8.45592
-2.13147
-244.291
-56.8874
-16.2405
-4.20897
-224.96
-50.3155
-15.6635
-3.1093
-205.231
-49.8751
-14.2991
-2.13674
-151.656
-34.8783
-11.4949
-2.21351
-253.159
-59.3453
-22.2819
-4.01517
-38.3833
-7.34361
-1.77881
-0.345808
-23.8126
-4.58191
-0.814752
-0.160487
-101.954
-20.1402
-5.55852
-1.11945
-60.9418
-12.0784
-2.56881
-0.511025
-132.237
-28.1071
-8.37709
-1.6446
-69.6854
-15.5006
-3.52383
-0.738208
-134.591
-30.688
-9.89471
-2.07593
-62.9445
-15.9375
-4.18898
-0.956183
-141.271
-31.5305
-12.8782
-3.01877
-65.0373
-14.9456
-5.21318
-1.19243
-235.21
-49.1901
-19.1708
-4.06303
-92.9792
-17.7388
-6.04537
-1.3727
-194.112
-41.0274
-17.2898
-3.81891
-86.378
-16.7256
-5.98514
-1.36025
-258.045
-54.2502
-20.0583
-4.38018
-92.402
-17.9657
-5.89602
-1.38505
-268.962
-57.1341
-20.3726
-4.55201
-93.3436
-18.7287
-5.78827
-1.38076
-0.187042
-0.0333555
-0.00540425
-0.00084438
-0.000149485
-0.119463
-0.0258491
-0.00462029
-0.000782559
-0.000151821
-0.481169
-0.0775207
-0.0118411
-0.0017897
-0.000311446
-0.344008
-0.0614833
-0.0103199
-0.00173931
-0.000349198
-0.609252
-0.0884456
-0.0129626
-0.00195148
-0.000348861
-0.445056
-0.0708461
-0.0114547
-0.00195952
-0.000414264
-0.203801
-0.0294071
-0.00446921
-0.000738301
-0.000153744
-0.226505
-0.0340806
-0.0048993
-0.000722353
-0.000129626
-0.525047
-0.0712388
-0.00993736
-0.00144696
-0.000254023
-0.293359
-0.035686
-0.00454463
-0.000593943
-8.84881e-05
-0.381003
-0.0524926
-0.00794589
-0.00131194
-0.000271099
-0.262798
-0.0327829
-0.00437276
-0.000615334
-0.000103331
-0.508706
-0.0654052
-0.00842814
-0.00108342
-0.000154786
-0.309404
-0.037284
-0.00466519
-0.00060016
-8.90252e-05
-0.562786
-0.0742039
-0.00949489
-0.00119051
-0.000163297
-0.350122
-0.0423627
-0.00514751
-0.000616842
-7.89614e-05
-0.185011
-0.0299501
-0.00471714
-0.000729646
-0.000127579
-0.10506
-0.0184075
-0.00314678
-0.000522451
-9.72997e-05
-0.403309
-0.06184
-0.00945411
-0.00144818
-0.000254484
-0.231407
-0.0384408
-0.00637487
-0.00104631
-0.000195355
-0.565175
-0.0768603
-0.0110255
-0.00163601
-0.000284263
-0.20327
-0.0315733
-0.00521201
-0.000876298
-0.000171584
-0.184465
-0.0250646
-0.00413407
-0.000748865
-0.000167599
-0.0254379
-0.00588648
-0.00137972
-0.000299099
-7.28164e-05
-0.0710467
-0.00904343
-0.00157314
-0.000313329
-7.83989e-05
-235.471
-529.104
-876.806
-1748.15
-1867.52
-3352.36
-2866.71
-5188.37
-3402.46
-5780.39
-4265.16
-6106.46
-3486.24
-4806.57
-4849.56
-6977.44
-4897.89
-7052.49
-1596.81
-518.063
-238.353
-151.692
-117.66
-425.422
-216.751
-37.303
-22.439
-3.46663
-5217.43
-1701.95
-788.405
-504.819
-395.142
-1162.72
-389.025
-170.67
-99.9897
-57.0259
-9181.64
-3026.36
-1418.22
-916.094
-723.91
-2382.3
-931.322
-457.356
-294.509
-220.023
-13106.5
-4388.8
-2096.06
-1370.92
-1092.02
-3829.37
-1636.57
-854.2
-570.45
-446.094
-18399.1
-6409.9
-3152.86
-2096.59
-1684.79
-5878.13
-2726.27
-1473.38
-1002.31
-798.632
-25747.3
-9966.78
-5208.01
-3562.6
-2894.66
-7509.6
-3594.65
-1985.08
-1369.63
-1102.33
-23037
-8549.12
-4342.36
-2929.81
-2368.38
-7083.57
-3411.42
-1872.97
-1286.21
-1033.49
-27113.9
-10725.9
-5690.9
-3923.2
-3193.51
-7612.11
-3558.19
-1945.18
-1339.87
-1077.05
-28021.7
-11109
-5931.23
-4113.18
-3354.07
-7639.31
-3564.31
-1938.79
-1316.06
-1065.14
-819.473
-10173.4
-8728.19
-3392.45
-1782.92
-894.199
-3480.53
-2345.88
-7595.28
-8513.74
-4684.08
-4463.63
-0.557031
-1.45304
-4.153
-10.9619
-26.6809
-60.4908
-0.541995
-1.95878
-6.33878
-17.5174
-42.8507
-94.2828
-0.308102
-0.106863
-0.89392
-0.406476
-2.84767
-1.58527
-8.31778
-5.75483
-21.2844
-17.1636
-52.2922
-44.3584
-131.476
-278.642
-590.462
-1414.82
-2320
-3505.37
-186.619
-328.944
-513.788
-754.342
-953.522
-1169.65
-0.468539
-0.361897
-0.248075
-0.14176
-0.045767
-1.21621
-0.933673
-0.635994
-0.361593
-0.116411
-3.45757
-2.63702
-1.78445
-1.00932
-0.324028
-9.06759
-6.86231
-4.60869
-2.59195
-0.829618
-21.8908
-16.4096
-10.923
-6.1043
-1.94757
-49.0988
-36.36
-23.946
-13.2891
-4.22581
-0.454433
-0.349575
-0.238626
-0.135903
-0.0437954
-1.63322
-1.24788
-0.845987
-0.479206
-0.153969
-5.25614
-3.98945
-2.68704
-1.51454
-0.485345
-14.4306
-10.869
-7.26734
-4.07443
-1.30211
-35.024
-26.1442
-17.3388
-9.66656
-3.08076
-76.338
-56.3912
-37.065
-20.5473
-6.53164
-0.260012
-0.201654
-0.138819
-0.0796016
-0.0257496
-0.0903899
-0.070283
-0.0485144
-0.0278819
-0.00903145
-0.75105
-0.579205
-0.396375
-0.226193
-0.0729701
-0.342457
-0.264964
-0.181941
-0.10411
-0.0336377
-2.3798
-1.82313
-1.23916
-0.703276
-0.226193
-1.32825
-1.02067
-0.695861
-0.395873
-0.127487
-6.90294
-5.24351
-3.53387
-1.99254
-0.638597
-4.78554
-3.64337
-2.46061
-1.38943
-0.445625
-17.5052
-13.1551
-8.77571
-4.91124
-1.56794
-14.146
-10.6546
-7.12032
-3.98879
-1.27396
-42.463
-31.4476
-20.7056
-11.486
-3.65087
-36.1311
-26.8413
-17.7091
-9.83085
-3.12541
-105.174
-76.6708
-49.8628
-27.4756
-8.71009
-218.414
-155.937
-99.95
-54.7338
-17.3123
-450.18
-312.948
-197.599
-107.912
-34.1196
-1039.77
-699.306
-436.24
-239.469
-75.8387
-1601.78
-1041.37
-647.882
-363.289
-118.312
-2332.2
-1488.14
-926.572
-526.704
-171.235
-149.38
-109.015
-70.9666
-39.1309
-12.4126
-259.586
-186.74
-120.328
-66.0466
-20.9215
-398.023
-281.338
-179.33
-98.1324
-31.0793
-569.091
-392.849
-247.505
-135.441
-42.9697
-690.719
-463.383
-289.307
-159.555
-51.1764
-820.719
-538.943
-334.771
-186.075
-59.8689
-0.55818
-1.45943
-4.17658
-11.0319
-26.8499
-60.8115
-0.543215
-1.96451
-6.35491
-17.5494
-42.8785
-94.2183
-0.309363
-0.107707
-0.902795
-0.413604
-2.89167
-1.62989
-8.48992
-6.00101
-21.8129
-18.4673
-53.387
-49.3779
-131.98
-279.156
-589.969
-1406.17
-2301.09
-3492.08
-186.267
-328.028
-512.021
-750.769
-948.358
-1166.56
-0.469634
-0.362857
-0.248824
-0.142237
-0.0459309
-1.22211
-0.938766
-0.639912
-0.364054
-0.117249
-3.47915
-2.65548
-1.79852
-1.01809
-0.327005
-9.13172
-6.91719
-4.6505
-2.61802
-0.838464
-22.048
-16.5461
-11.0282
-6.17045
-1.97012
-49.4105
-36.6421
-24.1707
-13.4336
-4.27563
-0.455603
-0.350631
-0.23947
-0.136448
-0.0439832
-1.6388
-1.25296
-0.850076
-0.481858
-0.154887
-5.2724
-4.00468
-2.69956
-1.52277
-0.488217
-14.4657
-10.9041
-7.29752
-4.09484
-1.30933
-35.0697
-26.2006
-17.3936
-9.70614
-3.0952
-76.3375
-56.4415
-37.1374
-20.6078
-6.55504
-0.261157
-0.202608
-0.13953
-0.0800379
-0.0258968
-0.0911295
-0.0708854
-0.0489523
-0.0281449
-0.00911865
-0.758873
-0.585622
-0.401073
-0.229033
-0.0739174
-0.348647
-0.269948
-0.18552
-0.106239
-0.0343418
-2.41817
-1.85421
-1.2616
-0.7167
-0.230645
-1.36665
-1.05124
-0.717559
-0.408664
-0.131696
-7.05221
-5.36356
-3.61997
-2.04374
-0.655529
-4.99563
-3.80901
-2.57699
-1.45752
-0.467935
-17.9629
-13.5223
-9.03829
-5.06711
-1.61943
-15.2453
-11.5084
-7.71115
-4.33026
-1.38507
-43.4299
-32.2381
-21.2816
-11.8333
-3.76677
-40.3314
-30.0718
-19.9239
-11.1025
-3.53802
-105.713
-77.198
-50.3066
-27.7708
-8.81362
-219.166
-156.812
-100.76
-55.302
-17.5169
-450.628
-314.047
-198.866
-108.891
-34.4874
-1034.96
-697.578
-436.305
-240.12
-76.1763
-1589.34
-1034.25
-644.394
-361.988
-118.101
-2322.96
-1482.33
-923.278
-525.144
-170.869
-149.201
-108.985
-71.0259
-39.2045
-12.4443
-259.042
-186.527
-120.328
-66.1189
-20.9594
-396.933
-280.847
-179.234
-98.1933
-31.1224
-566.766
-391.633
-247.044
-135.357
-42.9787
-687.155
-461.24
-288.2
-159.095
-51.0716
-818.503
-537.523
-333.961
-185.687
-59.7671
-11133.4
-6771.45
-302.624
-112.68
-89.3988
-100.684
-124.619
-6515.82
-5104.33
-3724.32
-3647.88
-939.872
-2200.14
-522.073
-589.012
-332.445
-10504.6
-3267.41
-400.146
-757.758
-1758.46
-842.708
-724.848
-419.555
-147.562
-206.254
-336.136
-366.678
-10518.8
-5008.16
-4897.77
-2291.11
-1736.43
-2434.48
-481.147
-352.675
-708.478
-6100.39
-4599.83
-2909.97
-1867.19
-995.934
-4110.2
-2526.77
-1600.99
-953.938
-314.684
-237.613
-169.67
-108.811
-59.643
-18.8564
-90.4567
-66.164
-43.1609
-23.836
-7.56334
-71.7135
-52.4328
-34.1858
-18.8775
-5.99753
-81.5472
-60.2332
-39.5897
-21.9536
-6.9811
-99.4666
-72.313
-46.9407
-25.8587
-8.20406
-3813.58
-2697.16
-1708.63
-1074.18
-655.53
-2827.4
-2004
-1256.51
-771.48
-409.278
-2410.25
-1498.23
-949.362
-558.886
-199.888
-2105.31
-1400.76
-871.688
-542.494
-255.873
-686.199
-461.126
-288.802
-160.292
-52.7655
-1509.13
-968.161
-605.524
-344.968
-120.271
-395.258
-273.59
-172.78
-94.9699
-30.5693
-444.058
-306.218
-193.083
-106.193
-34.25
-254.758
-178.202
-113.04
-62.039
-19.8682
-6043.62
-4070.92
-2606.89
-1645.18
-908.394
-2183.58
-1388.77
-872.154
-502.438
-172.774
-300.257
-206.238
-129.876
-71.4633
-23.0124
-568.412
-390.275
-245.679
-135.06
-43.3024
-1273.19
-849.35
-530.726
-294.529
-95.5826
-633.778
-434.668
-273.195
-149.809
-47.6406
-554.058
-384.455
-242.755
-132.743
-41.8239
-325.389
-229.855
-146.465
-80.2243
-25.4627
-115.319
-82.1367
-52.6048
-28.8702
-9.18909
-163.078
-117.482
-75.7943
-41.6688
-13.2317
-257.942
-180.649
-114.661
-62.8992
-20.0911
-282.993
-199.224
-126.792
-69.5223
-22.1342
-5767.95
-4083.74
-2614.62
-1675.81
-881.631
-3139.32
-1945.44
-1229.03
-724.926
-246.936
-3316.71
-2167.2
-1339.25
-780.606
-265.975
-1621.23
-1021.22
-634.135
-356.448
-107.453
-1275.05
-846.102
-526.961
-290.477
-90.3356
-1723.61
-1085.37
-673.586
-378.39
-112.206
-366.638
-254.349
-160.477
-87.7918
-27.8546
-277.619
-198.882
-127.745
-70.051
-22.1946
-540.51
-375.529
-237.157
-129.767
-41.1766
-30.6927
-93.3675
-168.314
-268.818
-400.032
-547.781
-3899.24
-9696.44
-8292.61
-3565.9
-11570.9
-12532.4
-10507.8
-14486
-2493.37
-285.829
-5073.69
2393.2
-16611.3
-17443.1
3527.78
-2730.13
-7283.7
-6251.14
-2566.68
-8494.56
-6569.42
-7801.73
-7980.4
-1207.8
1908.8
-2555.1
6547.15
-10395.6
-10195.1
7004.89
-1466.18
-4239.7
-3779.45
-1470.56
-4535.48
-1632.12
-4675.24
-4229.16
-291.217
1811.77
-67.3986
5697.53
-4818.75
-2043.71
6969.33
-735.079
-2314.81
-2136.48
-791.726
-1672.27
812.953
-2689.71
-2353.41
69.5816
873.544
567.795
3540.09
-2324.31
1130.42
5496.31
-439.981
-1574.14
-1402.18
-488.094
-749.976
869.137
-1985.41
-2259.95
176.87
165.241
654.485
1712.92
-1974.07
786.163
2126.13
-319.211
-1225.69
-1011.27
-340.733
-1030.07
-262.998
-1471.6
-1886.7
173.545
323.385
281.286
1098.62
-3114.09
-1251.39
93.761
-1275.63
-2963.76
-5159.04
-2196.44
-5759.26
-10011.9
-7941.05
-13371.5
-1101.32
-739.53
-3570.94
-2251.63
-1674.15
-6807.6
-2299.67
-1116.34
-2599.22
-4202.55
-1731.02
-4911.74
-7563.22
-6445.83
-8487.23
-996.915
-502.178
-3030.71
-1688.48
-788.379
-5402.57
-1762.21
-816.812
-1900.83
-2808.21
-1123.31
-3501.78
-5030.05
-4295.93
-5664.38
-643.809
-535.051
-2014.82
-1659.22
-631.851
-3650.33
-1612.98
-549.478
-1391.61
-1738.33
-667.29
-2426.99
-3254.9
-2883.81
-3757.54
-449.666
-518.978
-1402.5
-1524.93
-441.654
-2712.31
-1400.62
-367.944
-930.009
-1150.04
-425.249
-1503.14
-2354.2
-2033.02
-3029.36
-325.285
-557.511
-1015.01
-1530.29
-563.653
-2228.86
-1489.75
-261.503
-656.409
-810.467
-294.221
-1207.29
-2022.68
-1461.02
-2381.49
-286.836
-564.31
-903.311
-1427.47
-932.444
-2152.6
-1462.58
11496.3
14291.2
27766.2
45017.8
43079.2
84826.5
28662.9
86628.3
29048.4
68743.3
35883.5
60565.4
27080.4
37328.9
12624.1
13281.3
23636.1
28046.5
30822.5
29180.5
19737.5
28716.5
29110.3
28993.9
8445.95
6862.77
11452.4
8903.7
21349.8
15740.8
38717.3
29198.6
31999.7
33052.3
35868.3
38303.8
10069
8196.9
69776.8
85811.1
39208.5
51193.6
83892.8
103288
39844.9
49072.7
55601.2
72409.5
46912.1
63186.9
28011.7
34503.2
5892.94
1991.58
7428.49
2723.18
14302.9
6127.53
23761.3
9147.31
17189.5
5932.16
16249
4919.77
30527.3
9439.73
39567.7
13155
40331
23906.7
34788.2
24017.3
36362.2
22976.7
29869.6
22203.9
31106.5
23269.2
33997.1
22435.2
34391.4
24651.5
36007
25333.1
30038.7
22472.8
31728.7
22977.5
31940.6
24412.9
34317
25335.9
35758.9
16485.9
23811.9
29689
38191.4
19165.2
23223.1
30634.4
35913.3
15221.4
24928.6
29529.5
37295.3
15272.6
26061.6
29964.9
5629.03
6299.11
2081.93
4513.46
16967.2
19669.7
7741.3
15677.2
27249.6
31528.6
14626.5
26845.5
19627.3
8680.41
26718.3
39206.4
23427.1
4876.16
8883.65
17408.9
38089.4
31757.7
13183
20321
26625.4
30584.3
42768.2
5330.01
4679.95
3553.63
3326.99
16844.1
13234.6
12571.5
10840
24699.8
18487.3
19099.2
16161
8240.77
7805.09
14240.4
13480.6
22707.5
18651.6
32027
25105.4
28267.4
24305.1
12658.7
10150.2
18798.9
12619.7
22002.6
13874.5
24338.3
14998.7
32558.8
20993.1
16241.8
5453.73
14571.2
9297.62
14620.8
11857.1
15386.5
14124.2
15752.2
10124.7
18297.8
5151.79
14774.4
14502.8
15675.2
15890.5
16078.6
17675.4
17073.3
18803.1
16045.1
15874.1
16971.8
17490.2
22524.8
12026.3
32445.1
12174.3
22121.4
5498.23
30047.4
5607.39
23203.3
16361.7
33745.8
14255.5
21966.9
18755.8
31739.4
17262.6
3460.27
2402.19
1344.81
2389.97
1772.09
1098.19
9526.28
5557.75
2988.94
7209.86
4107.4
2168.99
11467.2
6078.82
3536.46
10647.2
5452.37
3090.25
5093.79
2117.56
1071.38
9910.05
3963.1
1653.21
11944.7
5008.31
2004.48
15734
7407.66
3562.1
16564.5
7321.13
3139.65
8987.75
4105.65
1920.98
8842.61
4050.01
1659.43
10325.5
4566.83
1775.92
11832.2
5353.08
2170.72
16528.7
6596.65
2227.11
12973.8
19634.3
11884.4
15823.7
13104.7
24224.7
12036.4
21247.3
-274.079
897.103
-614.222
515.376
2426.62
4607.31
1460.36
2956.45
2215.6
3806.32
10818.4
14738.6
6371.35
5410.59
14013.8
13021.9
21988.3
24320.6
170.936
-4892.11
8876.92
6541.82
5781.38
3184.01
944.674
592.793
852.484
580.207
2931.25
839.03
1791.12
521.314
7800.66
1856.11
6481.26
1846.79
7257.23
1877.13
8029.17
2096.28
13999.5
11392.4
11107.3
11024.8
23696.9
18603.8
19739.8
17483.9
6997.39
6789.5
7998.65
6434.12
10516.5
10812.8
11047
10855.2
19240.6
17106.7
20187.3
17266.9
6294.06
6749.89
6079.44
6728.36
740.018
493.168
4018.91
1268.93
926.284
399.079
3588.26
1074.43
701.37
412.605
4147.12
1365.16
823.323
406.811
4109.24
1401.9
-50.5791
-123.5
241.514
95.5281
-307.23
-533.067
398.693
133.45
869.598
280.018
1047.84
672.502
-3680.66
-1832.86
-1763.54
-1011.66
-38.4482
-4871.11
-6106.82
-2159.49
-1880.56
-144.633
9601.68
6239.31
4002.51
2906.42
941.012
-137.92
-90.8574
28.1453
6.39412
-411.819
-328.566
77.3632
16.7241
-305.317
-354.068
275.74
127.382
-822.064
434.905
-3437.54
-1456.56
-1231.47
-423.804
-1053.16
-565.489
-80.0965