/*--------------------------------*- C++ -*----------------------------------*\
| =========                 |                                                 |
| \\      /  F ield         | OpenFOAM: The Open Source CFD Toolbox           |
|  \\    /   O peration     | Version:  2412                                  |
|   \\  /    A nd           | Website:  www.openfoam.com                      |
|    \\/     M anipulation  |                                                 |
\*---------------------------------------------------------------------------*/
FoamFile
{
    version     2.0;
    format      ascii;
    arch        "LSB;label=32;scalar=64";
    class       volScalarField;
    location    "0.3";
    object      T;
}
// * * * * * * * * * * * * * * * * * * * * * * * * * * * * * * * * * * * * * //

dimensions      [0 0 0 1 0 0 0];

internalField   nonuniform List<scalar> 
5712
(
517.302
545.709
497.45
530.83
472.406
509.604
437.444
475.99
443.929
482.568
476.956
516.309
492.913
529.649
508.379
540.825
456.405
427.667
484.975
442.137
423.963
396.469
449.42
407.708
527.958
536.763
551.504
556.058
511.169
522.465
538.771
545.82
509.921
486.527
465.916
451.567
506.402
527.513
517.184
526.217
455.532
467.125
485.2
493.895
419.767
428.88
532.755
541.508
482.398
498.555
549.319
559.856
542.544
559.597
559.916
567.657
528.585
553.954
550.217
563.901
509.854
544.263
530.319
555.574
543.777
560.605
551.701
563.627
400.936
376.675
414.462
383.094
367.111
348.545
378.343
354.133
449.798
414.769
435.526
406.975
423.336
387.007
428.086
388.608
385.984
357.475
389.91
358.771
459.489
419.58
464.616
421.576
490.031
541.347
455.945
516.363
475.776
531.637
446.17
507.649
499.168
545.983
461.475
521.14
503.728
547.851
463.702
523.816
527.571
498.904
550.768
529.561
511.205
482.894
543.45
519.951
488.563
461.077
530.769
505.15
372.234
337.403
413.149
454.677
512.867
335.299
367.741
402.338
438.726
489.944
334.798
364.907
396.336
432.278
490.084
444.744
399.419
451.507
407.511
437.087
393.186
449.374
405.32
425.195
385.051
445.288
402.331
325.96
310.79
354.739
333.703
383.624
355.012
411.179
375.635
441.903
400.304
325.08
309.31
351.08
330.623
377.683
351.256
406.943
373.521
440.729
399.559
352.873
337.702
353.879
339.823
326.452
307.919
327.191
307.955
381.73
367.112
380.502
363.678
354.334
340.357
355.103
341.238
328.081
308.209
328.894
309.086
381.864
367.591
382.856
368.706
413.576
396.885
448.326
430.007
412.236
392.431
446.939
424.286
412.76
396.727
447.793
430.716
413.404
397.402
447.021
429.759
352.39
318.086
301.186
356.141
319.792
302.312
348.924
315.197
298.893
354.685
317.915
300.347
342.063
309.745
294.563
352.354
314.801
297.392
294.236
283.348
278.511
309.613
291.086
282.692
323.42
298.251
286.666
335.682
305.089
290.954
349.329
311.446
294.145
292.961
282.496
277.826
308.237
290.606
282.365
321.113
297.06
285.831
333.377
302.788
288.841
345.203
308.303
291.751
353.49
338.467
358.39
342.63
385.453
364.008
397.845
371.82
324.981
308.36
326.103
309.544
326.664
309.281
328.146
310.727
326.543
324.028
325.082
320.028
308.866
311.351
345.228
347.747
377.508
382.254
327.41
328.548
326.784
327.601
312.524
312.675
293.395
281.756
296.387
283.043
294.363
281.519
297.201
282.882
294.778
281.092
298.328
282.798
299.56
283.238
299.877
283.353
317.056
305.342
322.952
308.812
338.494
323.245
347.331
328.036
306.518
295.504
301.787
293.038
325.995
310.607
327.412
311.18
352.491
330.649
355.057
331.536
308.497
296.738
309.151
297.104
293.919
281.253
286.593
279.082
290.661
280.02
285.075
278.426
295.45
281.932
287.397
279.432
295.951
282.232
287.672
279.532
283.358
278.646
279.002
276.785
283.876
279.253
278.85
276.828
284.457
280.531
278.627
277.036
299.245
313.033
290.347
284.774
278.229
311.023
296.578
286.823
281.82
277.136
311.235
297.568
288.532
282.788
277.606
276.147
274.772
275.279
274.321
276.774
275.177
275.465
274.484
277.929
276.032
275.797
274.782
304.129
293.694
291.272
284.471
283.734
279.93
279.608
277.226
276.243
275.197
303.936
293.206
292.288
285.225
284.924
280.56
280.341
277.631
276.798
275.672
294.251
285.655
295.087
285.81
305.75
292.787
307.125
292.614
286.917
281.31
286.354
281.083
295.651
285.819
296.123
286.244
308.431
292.287
309.22
292.882
287.224
281.422
287.474
281.673
281.183
278.212
277.42
275.992
281.124
277.973
277.258
275.912
281.141
278.384
277.453
276.02
281.475
278.498
277.472
276.149
273.77
273.302
273.136
273.406
273.144
273.064
274.015
273.406
273.184
273.491
273.182
273.08
274.467
273.594
273.276
273.642
273.241
273.107
283.902
278.084
275.64
278.977
275.723
274.398
276.536
274.562
273.785
275.065
273.851
273.398
273.817
273.314
273.137
283.343
277.638
275.286
279.118
275.633
274.249
276.708
274.543
273.711
275.162
273.88
273.403
273.966
273.368
273.151
275.603
273.68
273.179
273.043
275.95
273.756
273.198
273.046
275.519
273.664
273.178
273.043
275.916
273.753
273.202
273.048
275.366
273.632
273.175
273.043
275.848
273.744
273.205
273.049
275.947
273.772
273.206
273.049
275.979
273.786
273.204
273.048
275.462
273.66
273.185
273.045
274.926
273.536
273.148
273.038
275.122
273.579
273.165
273.042
274.748
273.493
273.137
273.037
275.655
273.709
273.192
273.046
275.037
273.566
273.153
273.039
275.741
273.734
273.196
273.047
275.087
273.581
273.157
273.04
275.015
273.558
273.152
273.038
274.428
273.427
273.12
273.032
274.949
273.543
273.149
273.037
274.415
273.423
273.118
273.032
274.844
273.519
273.145
273.037
274.43
273.426
273.118
273.031
274.686
273.48
273.136
273.036
274.42
273.422
273.118
273.032
274.543
273.446
273.125
273.035
273.997
273.328
273.087
273.024
273.797
273.285
273.072
273.02
274.039
273.338
273.089
273.025
273.84
273.295
273.074
273.02
274.109
273.354
273.092
273.026
273.918
273.313
273.078
273.021
274.203
273.373
273.098
273.027
274.028
273.338
273.083
273.023
274.342
273.402
273.105
273.029
274.156
273.365
273.089
273.024
274.525
273.448
273.112
273.03
274.328
273.41
273.097
273.026
274.454
273.427
273.109
273.029
274.27
273.392
273.094
273.025
274.558
273.46
273.113
273.03
274.358
273.422
273.099
273.026
274.578
273.469
273.114
273.031
274.379
273.429
273.1
273.026
273.01
273.003
273.001
273
273
273.011
273.003
273.001
273
273
273.01
273.003
273.001
273
273
273.011
273.003
273.001
273
273
273.01
273.003
273.001
273
273
273.011
273.003
273.001
273
273
273.012
273.003
273.001
273
273
273.012
273.003
273.001
273
273
273.011
273.003
273.001
273
273
273.01
273.003
273.001
273
273
273.01
273.003
273.001
273
273
273.01
273.003
273.001
273
273
273.011
273.003
273.001
273
273
273.01
273.003
273.001
273
273
273.012
273.003
273.001
273
273
273.011
273.003
273.001
273
273
273.01
273.003
273.001
273
273
273.009
273.003
273.001
273
273
273.01
273.003
273.001
273
273
273.009
273.003
273.001
273
273
273.01
273.003
273.001
273
273
273.009
273.003
273.001
273
273
273.01
273.003
273.001
273
273
273.009
273.003
273.001
273
273
273.01
273.003
273.001
273
273
468.096
456.242
467.888
456.302
467.251
456.168
466.369
455.388
465.784
454.541
467.26
460.515
466.89
458.698
466.896
460.502
466.817
460.547
547.836
564.971
569.184
570.487
570.959
526.471
556.699
565.339
568.112
569.139
548.59
565.335
569.38
570.623
571.078
527.034
557.101
565.575
568.282
569.31
549.217
565.675
569.564
570.75
571.188
527.58
557.49
565.804
568.443
569.456
549.955
566.001
569.715
570.843
571.263
527.917
557.68
565.876
568.477
569.486
550.428
566.067
569.686
570.799
571.22
527.847
557.436
565.637
568.275
569.312
545.945
563.524
568.126
569.651
570.254
524.491
554.482
563.598
566.732
568.017
547.967
564.757
568.912
570.24
570.753
526.203
556.039
564.701
567.575
568.726
544.445
562.604
567.521
569.188
569.86
523.193
553.367
562.787
566.1
567.484
544.573
562.539
567.425
569.093
569.772
522.997
553.055
562.511
565.848
567.268
361.656
409.215
405.385
359.664
339.128
341.274
347.232
351.077
361.103
365.78
391.692
402.829
398.206
409.125
371.031
375.208
360.232
363.712
350.397
352.995
293.852
284.621
273.408
273.174
273.189
273.142
273.294
290.582
284.17
279.473
278.076
275.441
274.397
275.755
274.214
273.747
273.835
273.533
289.585
278.357
274.419
274.345
275.541
274.927
274.064
273.856
273.36
273.327
273.698
273.723
290.921
281.144
283.184
277.497
275.855
278.862
274.043
273.412
274.289
286.603
281.596
278.465
276.188
274.101
281.087
278.332
276.346
274.879
273.606
273.328
273.241
273.157
273.087
273.028
273.142
273.105
273.07
273.039
273.012
273.154
273.115
273.076
273.042
273.013
273.116
273.087
273.057
273.032
273.01
273.238
273.176
273.115
273.064
273.02
284.742
280.225
277.466
275.537
273.911
280.205
277.374
275.644
274.457
273.488
277.584
275.999
274.838
274.002
273.323
276.266
274.971
274.169
273.626
273.207
274.579
273.945
273.553
273.291
273.093
274.061
273.735
273.46
273.248
273.078
275.002
274.336
273.819
273.44
273.14
273.9
273.61
273.376
273.2
273.063
273.582
273.413
273.263
273.142
273.045
273.641
273.449
273.282
273.152
273.048
273.42
273.301
273.193
273.105
273.033
284.206
279.994
277.382
275.51
273.894
276.92
275.632
274.637
273.896
273.286
274.094
273.769
273.486
273.264
273.083
274.045
273.739
273.47
273.256
273.081
274.925
274.331
273.837
273.456
273.145
274.493
274.051
273.668
273.364
273.115
273.839
273.603
273.388
273.212
273.067
273.678
273.488
273.315
273.172
273.054
273.289
273.211
273.138
273.076
273.024
273.264
273.194
273.127
273.07
273.022
273.55
273.395
273.253
273.138
273.044
273.572
273.412
273.266
273.145
273.046
284.878
280.479
277.745
275.756
273.965
278.818
276.887
275.442
274.36
273.439
280.423
277.737
275.95
274.64
273.501
276.38
275.314
274.456
273.799
273.252
275.191
274.527
273.965
273.527
273.166
277.345
275.909
274.811
273.991
273.307
273.823
273.59
273.379
273.208
273.066
273.331
273.242
273.158
273.087
273.028
274.007
273.716
273.457
273.25
273.079
448.841
521.539
435.853
504.834
406.52
477.838
417.787
495.348
421.168
402.477
471.462
430.059
392.128
373.625
437.195
396.379
473.109
496.242
533.382
542.704
462.725
485.686
521.843
533.209
496.022
452.272
454.439
427.527
477.575
515.9
512.473
525.126
449.707
465.557
480.251
492.515
413.998
427.148
528.327
540.583
477.294
497.266
546.105
559.333
520.238
552.153
552.05
565.04
507.225
547.127
542.206
561.304
492.44
538.756
522.109
552.877
540.66
559.483
551.052
563.372
389.403
371.171
406.904
378.935
357.257
344.148
371.568
350.431
442.603
410.855
424.226
401.368
419.366
384.56
426.938
387.78
382.257
355.204
388.798
357.988
455.822
417.34
463.563
420.828
484.324
539.316
452.956
515.121
466.25
528.168
441.538
505.684
496.36
544.971
459.819
520.467
502.94
547.559
463.154
523.604
494.118
463.925
539.796
517.662
480.505
451.678
533.967
509.799
464.646
437.994
523.5
497.767
370.332
341.641
404.656
443.064
508.275
340.973
366.418
392.941
425.382
484.631
337.044
362.491
390.506
425.992
487.311
416.725
381.237
439.595
402.902
411.467
376.401
439.388
401.539
405.378
371.999
438.25
399.93
329.545
313.905
352.285
331.903
375.132
349.287
400.492
369.23
437.212
398.959
326.616
310.758
349.245
330.388
373.431
350.006
402.433
372.455
438.177
399.499
350.397
336.467
351.848
338.626
325.345
307.838
325.749
307.423
379.545
365.67
377.347
361.881
353.096
339.582
354.682
340.975
327.077
307.766
328.537
308.923
380.611
366.715
382.44
368.415
411.754
395.533
447.101
428.984
409.338
390.69
445.087
423.032
411.74
395.91
447.105
430.111
413.048
397.123
446.817
429.572
356.179
343.531
372.82
359.004
351.672
337.708
370.584
354.07
346.531
331.189
367.156
346.515
300.411
292.573
314.816
303.362
328.527
313.769
343.151
325.428
362.806
338.091
296.351
289.54
313.174
301.941
327.366
311.998
341.727
321.495
356.301
331.21
332.444
324.354
346.089
334.388
359.662
345.711
385.763
361.907
315.312
300.939
321.45
304.794
314.115
301.291
321.051
305.634
319.5
312.027
319.066
310.592
301.628
306.666
340.496
346.237
372.035
380.493
323.184
327.096
323.146
326.361
309.517
311.6
291.92
282.073
293.988
282.712
292.517
281.768
294.688
282.519
292.933
281.29
295.996
282.443
297.846
282.892
299.239
283.21
312.322
304.147
318.794
307.089
331.244
320.588
341.775
325.29
303.954
294.659
299.568
292.839
323.445
309.363
326.608
310.724
349.246
328.84
354.055
330.895
306.778
296.026
308.58
296.828
292.747
281.115
286.297
279.108
290.246
280.261
285.313
278.721
294.507
281.738
287.064
279.376
295.615
282.151
287.532
279.501
288.771
286.361
280.882
279.619
289.057
286.645
280.511
279.32
288.906
286.639
279.976
278.925
304.818
319.802
294.424
287.328
279.225
319.787
304.435
293.142
285.902
278.586
315.792
301.285
291.075
284.404
278.355
284.147
281.665
278.354
276.858
284.443
281.86
278.17
276.754
284.426
281.735
277.888
276.576
311.161
299.844
298.574
290.943
289.9
285.474
283.835
281.054
277.784
276.584
307.644
296.029
295.934
288.196
287.687
282.933
282.174
279.255
277.676
276.572
294.813
286.431
294.72
285.829
305.872
293.415
306.343
292.483
286.829
281.404
287.017
281.783
295.219
285.674
295.947
286.176
307.732
292.048
308.954
292.782
287.001
281.35
287.373
281.632
281.235
278.319
277.518
276.088
281.696
278.501
277.627
276.251
281.066
278.36
277.451
276.025
281.429
278.477
277.461
276.143
279.655
278.577
275
274.651
279.976
278.644
274.987
274.598
279.494
277.886
274.92
274.453
290.593
285.267
284.989
281.439
281.531
279.069
278.524
276.904
274.885
274.302
286.515
282.373
281.951
279.137
278.877
277.021
276.638
275.554
274.677
274.125
275.842
273.763
273.204
273.049
276.035
273.809
273.217
273.052
275.733
273.739
273.201
273.049
275.969
273.794
273.218
273.053
275.547
273.697
273.196
273.049
275.873
273.773
273.218
273.053
275.933
273.785
273.213
273.051
275.968
273.789
273.206
273.049
275.498
273.684
273.194
273.048
274.978
273.559
273.156
273.041
275.264
273.628
273.181
273.047
274.883
273.537
273.151
273.04
275.65
273.719
273.197
273.048
275.049
273.575
273.158
273.041
275.735
273.736
273.197
273.048
275.088
273.583
273.158
273.04
275.518
273.686
273.185
273.046
275.14
273.596
273.158
273.04
275.405
273.662
273.18
273.045
275.056
273.579
273.154
273.04
275.231
273.623
273.172
273.043
274.938
273.555
273.149
273.039
274.986
273.564
273.158
273.041
274.824
273.528
273.143
273.038
274.784
273.515
273.143
273.039
274.792
273.521
273.126
273.034
274.587
273.484
273.112
273.029
274.749
273.513
273.125
273.034
274.547
273.476
273.111
273.029
274.676
273.498
273.123
273.033
274.486
273.463
273.109
273.029
274.63
273.485
273.123
273.033
274.455
273.452
273.108
273.029
274.611
273.476
273.123
273.034
274.441
273.444
273.107
273.028
274.586
273.471
273.119
273.032
274.39
273.433
273.104
273.028
274.6
273.473
273.121
273.033
274.419
273.439
273.105
273.028
274.577
273.47
273.116
273.032
274.377
273.431
273.102
273.027
274.582
273.471
273.115
273.031
274.382
273.432
273.101
273.027
273.012
273.003
273.001
273
273
273.012
273.003
273.001
273
273
273.012
273.003
273.001
273
273
273.012
273.003
273.001
273
273
273.012
273.003
273.001
273
273
273.012
273.003
273.001
273
273
273.012
273.003
273.001
273
273
273.012
273.003
273.001
273
273
273.012
273.003
273.001
273
273
273.011
273.003
273.001
273
273
273.011
273.003
273.001
273
273
273.011
273.003
273.001
273
273
273.012
273.003
273.001
273
273
273.011
273.003
273.001
273
273
273.012
273.003
273.001
273
273
273.011
273.003
273.001
273
273
273.012
273.003
273.001
273
273
273.011
273.003
273.001
273
273
273.011
273.003
273.001
273
273
273.011
273.003
273.001
273
273
273.011
273.003
273.001
273
273
273.011
273.003
273.001
273
273
273.011
273.003
273.001
273
273
273.011
273.003
273.001
273
273
273.011
273.003
273.001
273
273
462.34
451.993
462.884
452.617
463.45
453.397
463.716
453.509
464.114
453.433
466.486
459.788
465.725
457.704
466.457
460.081
466.68
460.417
546.945
564.821
569.158
570.483
570.958
525.071
556.409
565.286
568.103
569.138
547.813
565.203
569.357
570.619
571.078
525.795
556.843
565.528
568.274
569.309
548.611
565.57
569.546
570.747
571.188
526.6
557.281
565.766
568.436
569.455
549.527
565.926
569.701
570.84
571.263
527.212
557.525
565.847
568.472
569.485
550.152
566.017
569.677
570.797
571.22
527.372
557.328
565.617
568.271
569.311
545.804
563.497
568.121
569.65
570.254
524.256
554.432
563.588
566.731
568.016
547.762
564.719
568.905
570.238
570.753
525.857
555.963
564.686
567.572
568.725
544.363
562.588
567.517
569.188
569.86
523.061
553.338
562.781
566.099
567.484
544.548
562.535
567.425
569.093
569.772
522.956
553.046
562.509
565.847
567.268
359.662
407.108
398.813
353.216
337.642
348.328
335.423
348.049
366.919
394.573
372.273
398.781
273.001
273.002
273.005
273.013
273.033
273.083
273.002
273.003
273.008
273.02
273.047
273.109
273
273
273.001
273.001
273.003
273.002
273.009
273.007
273.026
273.023
273.071
273.064
273.197
273.462
274.094
275.57
277.421
279.088
273.239
273.503
273.999
274.806
275.728
276.419
273.001
273.001
273
273
273
273.002
273.001
273.001
273
273
273.004
273.003
273.002
273.001
273
273.011
273.008
273.006
273.003
273.001
273.028
273.021
273.014
273.008
273.003
273.068
273.051
273.034
273.019
273.006
273.001
273.001
273.001
273
273
273.003
273.002
273.002
273.001
273
273.007
273.005
273.004
273.002
273.001
273.017
273.013
273.009
273.005
273.002
273.039
273.03
273.02
273.011
273.004
273.089
273.067
273.044
273.025
273.008
273
273
273
273
273
273
273
273
273
273
273.001
273.001
273
273
273
273.001
273
273
273
273
273.003
273.002
273.001
273.001
273
273.002
273.001
273.001
273.001
273
273.008
273.006
273.004
273.002
273.001
273.006
273.005
273.003
273.002
273.001
273.022
273.017
273.011
273.006
273.002
273.019
273.015
273.01
273.006
273.002
273.059
273.044
273.03
273.017
273.005
273.053
273.04
273.027
273.015
273.005
273.16
273.119
273.079
273.044
273.014
273.371
273.272
273.178
273.098
273.031
273.864
273.622
273.402
273.221
273.07
274.98
274.393
273.887
273.487
273.154
276.316
275.291
274.45
273.798
273.255
277.485
276.062
274.931
274.066
273.341
273.194
273.144
273.095
273.053
273.017
273.404
273.297
273.194
273.107
273.034
273.794
273.576
273.373
273.206
273.065
274.415
274.013
273.651
273.358
273.113
275.11
274.493
273.955
273.524
273.167
275.62
274.842
274.174
273.645
273.205
273.001
273.002
273.005
273.013
273.034
273.084
273.002
273.003
273.008
273.02
273.048
273.109
273
273
273.001
273.001
273.003
273.002
273.009
273.008
273.027
273.024
273.073
273.069
273.198
273.464
274.093
275.558
277.398
279.075
273.239
273.502
273.996
274.799
275.719
276.414
273.001
273.001
273
273
273
273.002
273.001
273.001
273
273
273.004
273.003
273.002
273.001
273
273.011
273.008
273.006
273.003
273.001
273.028
273.021
273.014
273.008
273.003
273.069
273.052
273.035
273.019
273.006
273.001
273.001
273.001
273
273
273.003
273.002
273.002
273.001
273
273.007
273.005
273.004
273.002
273.001
273.017
273.013
273.009
273.005
273.002
273.039
273.03
273.02
273.011
273.004
273.089
273.067
273.045
273.025
273.008
273
273
273
273
273
273
273
273
273
273
273.001
273.001
273
273
273
273.001
273
273
273
273
273.003
273.002
273.001
273.001
273
273.002
273.002
273.001
273.001
273
273.008
273.006
273.004
273.002
273.001
273.006
273.005
273.003
273.002
273.001
273.023
273.017
273.012
273.007
273.002
273.02
273.016
273.011
273.006
273.002
273.061
273.046
273.031
273.017
273.006
273.057
273.043
273.029
273.016
273.005
273.162
273.12
273.08
273.044
273.014
273.373
273.274
273.179
273.099
273.032
273.865
273.624
273.403
273.222
273.07
274.973
274.39
273.887
273.487
273.154
276.3
275.281
274.445
273.796
273.254
277.475
276.056
274.928
274.064
273.34
273.195
273.144
273.095
273.053
273.017
273.404
273.297
273.195
273.108
273.034
273.792
273.575
273.373
273.206
273.065
274.411
274.01
273.65
273.357
273.113
275.103
274.489
273.953
273.523
273.166
275.616
274.839
274.173
273.644
273.205
293.767
284.582
273.416
273.178
273.219
273.157
273.313
290.996
286.004
280.094
280.757
274.764
276.477
274.034
274.434
273.817
289.523
278.519
274.595
274.435
275.651
274.97
274.075
273.896
273.495
273.401
273.839
273.798
290.739
281.082
283.132
277.476
275.865
278.902
274.07
273.449
274.345
286.544
281.56
278.445
276.179
274.099
281.06
278.315
276.337
274.874
273.605
273.335
273.247
273.162
273.09
273.028
273.146
273.109
273.072
273.04
273.013
273.179
273.134
273.089
273.05
273.016
273.128
273.096
273.064
273.036
273.011
273.254
273.188
273.124
273.069
273.022
285.327
280.786
277.925
275.849
274.032
281.91
278.695
276.614
275.077
273.723
278.155
276.467
275.183
274.217
273.4
278.468
276.504
275.207
274.255
273.436
274.366
273.967
273.619
273.341
273.109
275.605
274.793
274.136
273.629
273.204
273.817
273.589
273.381
273.21
273.067
274.121
273.8
273.514
273.284
273.091
273.651
273.473
273.308
273.17
273.054
284.271
280.117
277.509
275.609
273.936
277.083
275.778
274.75
273.969
273.312
274.244
273.885
273.568
273.313
273.1
274.124
273.803
273.516
273.284
273.09
275.027
274.417
273.902
273.496
273.158
274.534
274.087
273.695
273.381
273.121
273.85
273.613
273.396
273.218
273.069
273.713
273.517
273.335
273.185
273.059
273.4
273.295
273.193
273.107
273.034
273.325
273.24
273.158
273.088
273.028
273.668
273.485
273.315
273.174
273.055
273.637
273.463
273.301
273.166
273.053
284.764
280.419
277.717
275.748
273.965
278.777
276.864
275.431
274.356
273.439
280.417
277.76
275.983
274.668
273.512
276.37
275.314
274.461
273.803
273.254
275.206
274.543
273.98
273.537
273.17
277.4
275.968
274.862
274.026
273.32
273.847
273.611
273.395
273.217
273.069
273.362
273.266
273.174
273.097
273.031
274.058
273.758
273.488
273.268
273.085
273.123
273.382
273.694
274.085
274.539
274.995
412.575
403.945
377.39
385.267
391.643
380.403
366.607
354.332
438.339
465.166
431.16
456.369
421.314
405.807
447.557
392.839
386.812
363.077
368.736
377.163
369.129
354.682
345.792
414.996
433.668
410.444
428.149
402.709
390.857
422.036
365.221
361.997
342.722
345.96
356.126
352.217
337.47
332.313
383.045
399.104
380.688
396.184
376.642
369.935
392.696
338.012
336.4
321.806
323.55
333.049
331.19
318.754
315.75
353.005
367.629
351.732
365.213
349.167
344.542
362.416
319.303
318.341
307.256
308.331
315.949
314.501
305.187
302.799
331.442
343.66
330.719
342.317
328.859
324.994
339.792
307.221
306.525
297.877
298.629
304.62
303.368
296.361
294.571
317.049
328.282
316.448
327.229
314.842
311.41
324.565
327.259
324.449
348.899
353.733
320.843
314.435
342.127
332.108
308.307
294.778
306.704
294.633
303.176
302.017
294.409
320.644
318.179
339.152
342.961
315.017
309.547
333.511
325.448
302.507
292.025
301.038
292.148
298.24
297.602
291.995
310.699
308.893
324.684
327.156
306.584
302.799
320.845
315.61
297.965
289.656
296.951
289.542
294.928
294.508
289.205
299.765
298.547
309.149
310.619
296.757
293.929
306.715
303.048
291.816
286.491
291.053
286.088
289.552
288.94
285.487
291.939
291.123
298.243
299.181
289.932
287.919
296.599
293.953
286.963
283.931
286.371
283.318
285.229
284.518
282.517
286.892
286.313
291.222
291.872
285.478
283.974
290.053
288.139
283.914
281.828
283.414
281.147
282.332
281.584
280.336
518.315
546.383
497.452
530.786
472.408
509.587
437.447
475.986
443.94
482.566
476.977
516.301
492.952
529.636
509.655
541.693
456.4
427.661
484.964
442.129
423.962
396.465
449.416
407.704
528.73
537.384
551.985
556.44
511.154
522.432
538.715
545.765
509.898
486.511
465.904
451.556
506.378
527.486
517.179
526.215
455.526
467.121
485.198
493.893
419.764
428.876
532.748
541.505
482.392
498.551
549.312
559.854
543.071
559.85
560.238
567.795
528.542
553.942
550.17
563.887
509.829
544.254
530.297
555.566
543.77
560.602
551.698
563.626
400.93
376.671
414.456
383.089
367.107
348.542
378.339
354.13
449.79
414.764
435.517
406.97
423.331
387.003
428.081
388.604
385.981
357.472
389.907
358.768
459.483
419.576
464.611
421.572
490.021
541.344
455.941
516.361
475.765
531.632
446.165
507.647
499.162
545.98
461.472
521.138
503.723
547.849
463.699
523.815
528.11
499.38
551.084
529.902
511.143
482.821
543.433
519.926
488.532
461.049
530.76
505.144
372.229
337.4
413.14
454.664
512.862
335.296
367.736
402.33
438.712
489.941
334.796
364.903
396.33
432.271
490.082
445.054
399.585
451.734
407.619
437.067
393.159
449.405
405.336
425.182
385.041
445.297
402.34
325.957
310.788
354.735
333.7
383.618
355.008
411.171
375.631
441.907
400.309
325.078
309.309
351.076
330.621
377.679
351.254
406.939
373.52
440.73
399.561
352.87
337.7
353.876
339.821
326.449
307.918
327.189
307.954
381.727
367.11
380.498
363.676
354.332
340.355
355.1
341.236
328.079
308.208
328.892
309.084
381.862
367.589
382.853
368.704
413.573
396.883
448.325
430.007
412.233
392.43
446.939
424.286
412.758
396.725
447.792
430.715
413.402
397.4
447.02
429.758
352.509
318.186
301.281
356.204
319.863
302.387
348.912
315.19
298.891
354.69
317.916
300.347
342.058
309.742
294.562
352.358
314.802
297.392
294.235
283.348
278.51
309.611
291.085
282.692
323.419
298.25
286.666
335.68
305.088
290.953
349.332
311.446
294.144
292.96
282.495
277.826
308.235
290.605
282.365
321.112
297.059
285.831
333.376
302.788
288.84
345.205
308.303
291.751
353.49
338.465
358.391
342.628
385.454
364.006
397.845
371.818
324.807
308.283
325.899
309.452
326.64
309.263
328.12
310.708
326.533
324.018
325.078
320.023
308.854
311.341
345.225
347.746
377.505
382.252
327.405
328.547
326.781
327.6
312.519
312.673
293.352
281.754
296.337
283.042
294.355
281.513
297.191
282.876
294.772
281.088
298.322
282.794
299.556
283.236
299.876
283.352
317.054
305.34
322.95
308.81
338.492
323.243
347.329
328.034
306.515
295.503
301.784
293.036
325.992
310.605
327.411
311.179
352.488
330.647
355.055
331.534
308.495
296.736
309.15
297.103
293.916
281.251
286.591
279.081
290.657
280.018
285.073
278.425
295.447
281.93
287.396
279.431
295.95
282.232
287.671
279.531
283.336
278.623
279
276.778
283.873
279.253
278.845
276.825
284.454
280.53
278.624
277.034
299.243
313.031
290.345
284.772
278.227
311.021
296.577
286.822
281.818
277.134
311.233
297.566
288.531
282.786
277.605
276.127
274.757
275.273
274.316
276.775
275.178
275.465
274.485
277.929
276.032
275.797
274.782
304.127
293.692
291.271
284.47
283.733
279.929
279.607
277.225
276.242
275.196
303.935
293.205
292.286
285.224
284.923
280.559
280.34
277.63
276.797
275.672
294.25
285.654
295.085
285.81
305.748
292.786
307.124
292.613
286.916
281.31
286.353
281.082
295.65
285.818
296.122
286.244
308.429
292.286
309.218
292.882
287.223
281.421
287.473
281.673
281.182
278.212
277.419
275.991
281.123
277.973
277.257
275.911
281.14
278.384
277.453
276.019
281.475
278.498
277.471
276.149
273.762
273.299
273.135
273.405
273.144
273.063
274.016
273.406
273.184
273.492
273.182
273.08
274.468
273.594
273.276
273.642
273.241
273.107
283.902
278.084
275.64
278.977
275.723
274.398
276.536
274.562
273.784
275.065
273.851
273.398
273.817
273.314
273.137
283.343
277.638
275.286
279.117
275.632
274.249
276.707
274.543
273.711
275.162
273.879
273.403
273.966
273.368
273.151
275.605
273.681
273.179
273.043
275.952
273.756
273.197
273.046
275.517
273.664
273.178
273.043
275.915
273.752
273.202
273.048
275.365
273.632
273.175
273.043
275.847
273.744
273.205
273.049
275.946
273.772
273.206
273.049
275.978
273.786
273.204
273.048
275.462
273.66
273.185
273.045
274.926
273.536
273.148
273.038
275.121
273.578
273.165
273.042
274.748
273.493
273.137
273.037
275.654
273.709
273.192
273.046
275.036
273.566
273.153
273.039
275.741
273.734
273.196
273.047
275.087
273.581
273.157
273.04
275.017
273.558
273.152
273.038
274.427
273.427
273.12
273.032
274.947
273.543
273.149
273.037
274.414
273.423
273.118
273.032
274.843
273.519
273.145
273.037
274.429
273.426
273.118
273.031
274.685
273.48
273.136
273.036
274.42
273.422
273.118
273.032
274.543
273.446
273.125
273.035
273.997
273.328
273.087
273.024
273.796
273.284
273.072
273.02
274.039
273.338
273.089
273.025
273.841
273.295
273.074
273.02
274.108
273.353
273.092
273.026
273.917
273.313
273.078
273.021
274.203
273.373
273.098
273.027
274.028
273.338
273.083
273.023
274.341
273.401
273.105
273.029
274.155
273.365
273.089
273.024
274.524
273.447
273.112
273.03
274.327
273.41
273.097
273.026
274.454
273.427
273.109
273.029
274.27
273.392
273.094
273.025
274.558
273.46
273.113
273.03
274.358
273.422
273.099
273.026
274.578
273.469
273.114
273.031
274.379
273.429
273.1
273.026
273.01
273.003
273.001
273
273
273.011
273.003
273.001
273
273
273.01
273.003
273.001
273
273
273.011
273.003
273.001
273
273
273.01
273.003
273.001
273
273
273.011
273.003
273.001
273
273
273.012
273.003
273.001
273
273
273.012
273.003
273.001
273
273
273.011
273.003
273.001
273
273
273.01
273.003
273.001
273
273
273.01
273.003
273.001
273
273
273.01
273.003
273.001
273
273
273.011
273.003
273.001
273
273
273.01
273.003
273.001
273
273
273.012
273.003
273.001
273
273
273.011
273.003
273.001
273
273
273.01
273.003
273.001
273
273
273.009
273.003
273.001
273
273
273.01
273.003
273.001
273
273
273.009
273.003
273.001
273
273
273.01
273.003
273.001
273
273
273.009
273.003
273.001
273
273
273.01
273.003
273.001
273
273
273.009
273.003
273.001
273
273
273.01
273.003
273.001
273
273
468.173
456.322
467.933
456.347
467.275
456.193
466.382
455.401
465.79
454.547
467.261
460.516
466.892
458.7
466.895
460.502
466.816
460.547
547.944
565.011
569.203
570.499
570.969
526.535
556.725
565.352
568.121
569.146
548.637
565.358
569.393
570.632
571.086
527.087
557.132
565.594
568.296
569.322
549.236
565.686
569.571
570.755
571.193
527.61
557.51
565.817
568.453
569.465
549.963
566.007
569.719
570.846
571.266
527.933
557.691
565.884
568.484
569.492
550.432
566.07
569.688
570.801
571.222
527.855
557.443
565.642
568.279
569.315
545.946
563.524
568.127
569.652
570.255
524.493
554.484
563.6
566.734
568.018
547.969
564.759
568.914
570.241
570.754
526.207
556.043
564.703
567.577
568.727
544.446
562.604
567.521
569.189
569.86
523.194
553.367
562.787
566.1
567.485
544.573
562.54
567.426
569.093
569.772
522.998
553.055
562.511
565.848
567.268
361.655
409.213
405.383
359.662
338.776
340.822
347.242
351.1
361.11
365.791
391.697
402.833
398.216
409.132
371.046
375.225
360.255
363.737
349.705
352.184
293.851
284.62
273.408
273.174
273.189
273.142
273.294
290.581
284.169
279.472
278.076
275.441
274.397
275.755
274.214
273.747
273.835
273.533