/*--------------------------------*- C++ -*----------------------------------*\
| =========                 |                                                 |
| \\      /  F ield         | OpenFOAM: The Open Source CFD Toolbox           |
|  \\    /   O peration     | Version:  2412                                  |
|   \\  /    A nd           | Website:  www.openfoam.com                      |
|    \\/     M anipulation  |                                                 |
\*---------------------------------------------------------------------------*/
FoamFile
{
    version     2.0;
    format      ascii;
    arch        "LSB;label=32;scalar=64";
    class       volScalarField;
    location    "20/rightSolid";
    object      T;
}
// * * * * * * * * * * * * * * * * * * * * * * * * * * * * * * * * * * * * * //

dimensions      [0 0 0 1 0 0 0];

internalField   nonuniform List<scalar> 
130
(
300.68691
300.49663
300.33497
300.21199
300.12659
300.0717
300.0387
300.02001
300.00997
300.00484
300.00235
300.00121
300.00077
301.33137
300.93115
300.60561
300.36973
300.21347
300.11726
300.06159
300.03109
300.01519
300.00727
300.0035
300.0018
300.00116
302.97167
301.97734
301.22338
300.71326
300.39529
300.20949
300.10668
300.05247
300.0251
300.01183
300.00566
300.00293
300.00191
306.23852
303.83748
302.22131
301.22674
300.65074
300.33288
300.16474
300.07921
300.03726
300.01739
300.00832
300.00437
300.0029
311.24719
306.098
303.25621
301.70314
300.86958
300.43266
300.20978
300.09937
300.0463
300.02154
300.01035
300.00552
300.00373
311.24729
306.09806
303.25628
301.70315
300.86959
300.43266
300.20979
300.09938
300.0463
300.02154
300.01035
300.00552
300.00373
306.23865
303.83755
302.22137
301.22678
300.65076
300.33289
300.16475
300.07921
300.03726
300.0174
300.00832
300.00437
300.0029
302.97181
301.97743
301.22344
300.7133
300.39531
300.2095
300.10669
300.05247
300.0251
300.01183
300.00566
300.00293
300.00191
301.33148
300.93123
300.60566
300.36977
300.21349
300.11727
300.06159
300.0311
300.01519
300.00727
300.0035
300.0018
300.00116
300.68699
300.49669
300.33501
300.21202
300.12661
300.07171
300.03871
300.02001
300.00997
300.00484
300.00235
300.00121
300.00077
)
;

boundaryField
{
    maxX
    {
        type            zeroGradient;
    }
    minZ
    {
        type            zeroGradient;
    }
    maxZ
    {
        type            zeroGradient;
    }
    rightSolid_to_bottomWater
    {
        type            compressible::turbulentTemperatureRadCoupledMixed;
        refValue        nonuniform List<scalar> 
130
(
300.01206
300.00874
300.00582
300.00358
300.00206
300.00111
300.00057
300.00028
300.00013
300.00006
300.00003
300.00001
300.00001
300.0285
300.02033
300.01322
300.00791
300.0044
300.0023
300.00114
300.00054
300.00025
300.00011
300.00005
300.00002
300.00001
300.08324
300.05611
300.03423
300.01918
300.01002
300.00495
300.00234
300.00106
300.00047
300.00021
300.00009
300.00004
300.00003
300.60175
300.28361
300.12584
300.05435
300.02341
300.0101
300.00435
300.00186
300.00079
300.00034
300.00015
300.00007
300.00005
302.0964
300.38906
300.13256
300.05634
300.02557
300.0117
300.00527
300.00232
300.001
300.00043
300.0002
300.0001
300.00006
302.09646
300.38907
300.13256
300.05634
300.02557
300.0117
300.00527
300.00232
300.001
300.00043
300.0002
300.0001
300.00006
300.60177
300.28362
300.12585
300.05435
300.02341
300.0101
300.00435
300.00186
300.00079
300.00034
300.00015
300.00007
300.00005
300.08324
300.05611
300.03424
300.01919
300.01002
300.00495
300.00234
300.00106
300.00047
300.00021
300.00009
300.00004
300.00003
300.0285
300.02033
300.01322
300.00791
300.0044
300.0023
300.00114
300.00054
300.00025
300.00011
300.00005
300.00002
300.00001
300.01206
300.00874
300.00582
300.00358
300.00206
300.00111
300.00057
300.00028
300.00013
300.00006
300.00003
300.00001
300.00001
)
;
        refGradient     uniform 0;
        valueFraction   uniform 0.0075140686;
        source          uniform 0;
        logInterval     -1;
        writePrecision  8;
        updateHeader    1;
        writeToFile     0;
        useUserTime     1;
        kappaMethod     solidThermo;
        value           nonuniform List<scalar> 
130
(
300.67771
300.48982
300.33024
300.20889
300.12467
300.07057
300.03806
300.01967
300.00979
300.00475
300.0023
300.00118
300.00075
301.31506
300.91941
300.59771
300.36471
300.21045
300.11552
300.06063
300.03059
300.01493
300.00714
300.00343
300.00177
300.00114
302.93842
301.95446
301.20863
300.70426
300.39005
300.20657
300.10512
300.05166
300.0247
300.01164
300.00556
300.00288
300.00188
306.17712
303.79734
302.19661
301.21227
300.6426
300.32847
300.16244
300.07804
300.03668
300.01711
300.00818
300.0043
300.00285
311.15125
306.03706
303.22117
301.68362
300.859
300.42708
300.20692
300.09794
300.0456
300.0212
300.01018
300.00543
300.00367
311.15136
306.03712
303.22124
301.68363
300.85901
300.42708
300.20693
300.09794
300.0456
300.0212
300.01018
300.00543
300.00367
306.17724
303.79741
302.19667
301.2123
300.64262
300.32848
300.16245
300.07804
300.03668
300.01711
300.00818
300.00429
300.00285
302.93856
301.95455
301.20869
300.7043
300.39007
300.20658
300.10513
300.05167
300.0247
300.01164
300.00556
300.00288
300.00188
301.31517
300.91949
300.59776
300.36475
300.21047
300.11553
300.06064
300.03059
300.01494
300.00714
300.00343
300.00177
300.00114
300.67779
300.48988
300.33028
300.20892
300.12469
300.07057
300.03807
300.01967
300.0098
300.00475
300.0023
300.00118
300.00075
)
;
    }
    rightSolid_to_topAir
    {
        type            compressible::turbulentTemperatureRadCoupledMixed;
        refValue        nonuniform List<scalar> 
130
(
300.24323
300.25067
300.24711
300.23584
300.22001
300.20211
300.18386
300.16632
300.15006
300.13532
300.12216
300.11053
300.10073
300.41206
300.42627
300.42315
300.40784
300.38536
300.35942
300.3325
300.30612
300.28114
300.25801
300.23692
300.21796
300.20162
300.92686
300.94752
300.92937
300.88691
300.83164
300.77136
300.71087
300.65291
300.59891
300.54956
300.50515
300.46583
300.43252
302.06207
302.07507
302.00832
301.89806
301.76821
301.63319
301.50107
301.37603
301.26001
301.15377
301.05755
300.9715
300.89797
304.15162
304.06372
303.8506
303.58316
303.30011
303.02182
302.75835
302.51407
302.29032
302.08697
301.90332
301.73878
301.59713
304.15165
304.06375
303.85063
303.58319
303.30014
303.02185
302.75837
302.51409
302.29034
302.08699
301.90333
301.7388
301.59714
302.06209
302.0751
302.00835
301.89809
301.76824
301.63322
301.50109
301.37605
301.26003
301.15379
301.05757
300.97152
300.89798
300.92688
300.94754
300.92939
300.88693
300.83166
300.77138
300.71089
300.65292
300.59893
300.54958
300.50517
300.46584
300.43253
300.41207
300.42629
300.42317
300.40786
300.38538
300.35944
300.33251
300.30613
300.28115
300.25802
300.23693
300.21797
300.20163
300.24325
300.25068
300.24713
300.23586
300.22003
300.20212
300.18387
300.16633
300.15007
300.13533
300.12217
300.11054
300.10074
)
;
        refGradient     uniform 0;
        valueFraction   uniform 0.00032132529;
        source          uniform 0;
        logInterval     -1;
        writePrecision  8;
        updateHeader    1;
        writeToFile     0;
        useUserTime     1;
        kappaMethod     solidThermo;
        value           nonuniform List<scalar> 
130
(
300.68261
300.49338
300.33267
300.21046
300.12563
300.07113
300.03839
300.01986
300.00991
300.00483
300.00236
300.00123
300.00079
301.32451
300.92606
300.60208
300.36743
300.21206
300.11645
300.06117
300.0309
300.01513
300.00728
300.00353
300.00185
300.00121
302.95939
301.9685
301.21743
300.7095
300.39307
300.20828
300.10609
300.05224
300.02506
300.01189
300.00576
300.00305
300.00203
306.21799
303.82338
302.21222
301.22125
300.64765
300.3313
300.16406
300.07903
300.03735
300.01761
300.00858
300.00464
300.00316
311.21753
306.07917
303.24475
301.69655
300.8661
300.43106
300.20927
300.09944
300.04665
300.02202
300.01087
300.00603
300.00421
311.21764
306.07923
303.24482
301.69656
300.8661
300.43106
300.20927
300.09944
300.04665
300.02202
300.01087
300.00603
300.00421
306.21812
303.82345
302.21228
301.22129
300.64767
300.33131
300.16407
300.07904
300.03735
300.01761
300.00858
300.00464
300.00316
302.95953
301.96859
301.21749
300.70954
300.39309
300.20829
300.1061
300.05224
300.02507
300.0119
300.00576
300.00305
300.00203
301.32461
300.92614
300.60213
300.36746
300.21208
300.11646
300.06118
300.03091
300.01513
300.00728
300.00353
300.00185
300.00121
300.68269
300.49344
300.33271
300.21048
300.12565
300.07114
300.0384
300.01986
300.00991
300.00483
300.00236
300.00123
300.00079
)
;
    }
    rightSolid_to_heater
    {
        type            compressible::turbulentTemperatureRadCoupledMixed;
        refValue        nonuniform List<scalar> 10(300.88237 301.75219 304.0685 309.2374 320.59166 320.59192 309.23766 304.06871 301.75234 300.88248);
        refGradient     uniform 0;
        valueFraction   uniform 0.50000003;
        source          uniform 0;
        logInterval     -1;
        writePrecision  8;
        updateHeader    1;
        writeToFile     0;
        useUserTime     1;
        kappaMethod     solidThermo;
        value           nonuniform List<scalar> 10(300.78256 301.5385 303.51427 307.72837 315.90573 315.90592 307.72856 303.51444 301.53862 300.78265);
    }
}


// ************************************************************************* //
