/*--------------------------------*- C++ -*----------------------------------*\
| =========                 |                                                 |
| \\      /  F ield         | OpenFOAM: The Open Source CFD Toolbox           |
|  \\    /   O peration     | Version:  2412                                  |
|   \\  /    A nd           | Website:  www.openfoam.com                      |
|    \\/     M anipulation  |                                                 |
\*---------------------------------------------------------------------------*/
FoamFile
{
    version     2.0;
    format      ascii;
    arch        "LSB;label=32;scalar=64";
    class       volScalarField;
    location    "20/bottomWater";
    object      p;
}
// * * * * * * * * * * * * * * * * * * * * * * * * * * * * * * * * * * * * * //

dimensions      [1 -1 -2 0 0 0 0];

internalField   nonuniform List<scalar> 
1460
(
353.16364
353.1633
353.16313
353.16301
353.16289
353.16277
353.16266
353.16256
353.16244
353.16232
353.16219
353.16204
353.16188
353.16169
353.16151
353.16134
353.16118
353.16105
353.16094
353.16084
353.16075
353.16067
353.16059
353.16051
353.16043
353.16035
353.16028
353.1602
353.16012
353.16004
274.6834
274.68321
274.68308
274.68297
274.68286
274.68276
274.68265
274.68255
274.68244
274.68232
274.68219
274.68205
274.68188
274.6817
274.68151
274.68134
274.68118
274.68105
274.68093
274.68084
274.68075
274.68067
274.68059
274.68051
274.68043
274.68035
274.68027
274.6802
274.68012
274.68004
196.20344
196.20325
196.20311
196.20299
196.20288
196.20277
196.20266
196.20256
196.20244
196.20232
196.20219
196.20205
196.20188
196.2017
196.20151
196.20134
196.20119
196.20105
196.20094
196.20084
196.20075
196.20067
196.20059
196.20051
196.20043
196.20035
196.20027
196.2002
196.20012
196.20004
117.7234
117.72321
117.72308
117.72297
117.72286
117.72276
117.72265
117.72255
117.72244
117.72232
117.72219
117.72205
117.72188
117.7217
117.72151
117.72134
117.72118
117.72105
117.72093
117.72084
117.72075
117.72067
117.72059
117.72051
117.72043
117.72035
117.72027
117.7202
117.72012
117.72004
39.243645
39.243297
39.243133
39.243005
39.242885
39.242772
39.242664
39.242555
39.242443
39.242323
39.242191
39.242044
39.241878
39.241693
39.241509
39.241338
39.241185
39.241051
39.240937
39.24084
39.240753
39.240671
39.240591
39.240512
39.240433
39.240355
39.240276
39.240197
39.240117
39.240038
353.16344
353.16321
353.16307
353.16297
353.16286
353.16276
353.16266
353.16256
353.16245
353.16234
353.1622
353.16204
353.16185
353.16161
353.16142
353.16127
353.16112
353.161
353.1609
353.16082
353.16074
353.16066
353.16059
353.16051
353.16043
353.16036
353.16028
353.1602
353.16012
353.16004
274.6832
274.68313
274.68304
274.68294
274.68284
274.68275
274.68265
274.68256
274.68245
274.68234
274.6822
274.68205
274.68185
274.68161
274.68141
274.68125
274.68112
274.68099
274.68089
274.68081
274.68074
274.68066
274.68059
274.68051
274.68043
274.68036
274.68028
274.6802
274.68012
274.68004
196.20323
196.20317
196.20307
196.20297
196.20286
196.20276
196.20267
196.20257
196.20246
196.20234
196.20221
196.20204
196.20185
196.20161
196.20141
196.20126
196.20112
196.201
196.2009
196.20082
196.20074
196.20067
196.20059
196.20051
196.20043
196.20036
196.20028
196.2002
196.20012
196.20004
117.7232
117.72313
117.72304
117.72294
117.72284
117.72275
117.72265
117.72256
117.72245
117.72234
117.7222
117.72205
117.72185
117.72161
117.72141
117.72125
117.72112
117.72099
117.72089
117.72081
117.72074
117.72066
117.72059
117.72051
117.72043
117.72036
117.72028
117.7202
117.72012
117.72004
39.243436
39.243207
39.243074
39.242967
39.242863
39.242761
39.242663
39.242562
39.242455
39.242336
39.2422
39.242039
39.241845
39.24161
39.24142
39.241265
39.241125
39.240999
39.240899
39.240816
39.240739
39.240664
39.240588
39.240512
39.240435
39.240357
39.240278
39.240198
39.240119
39.240039
353.16343
353.16321
353.16308
353.16298
353.16288
353.16279
353.1627
353.16261
353.16251
353.16241
353.1623
353.16215
353.16197
353.16165
353.16141
353.16122
353.16105
353.16091
353.16084
353.16078
353.16073
353.16067
353.1606
353.16053
353.16045
353.16037
353.16029
353.1602
353.16012
353.16004
274.68319
274.68313
274.68304
274.68295
274.68286
274.68278
274.68269
274.6826
274.68251
274.68242
274.68231
274.68217
274.68197
274.68165
274.68139
274.6812
274.68103
274.68088
274.68082
274.68078
274.68073
274.68067
274.68061
274.68053
274.68045
274.68037
274.68029
274.6802
274.68012
274.68004
196.20322
196.20316
196.20307
196.20298
196.20289
196.20279
196.2027
196.20261
196.20252
196.20242
196.20231
196.20217
196.20198
196.20165
196.2014
196.2012
196.20104
196.20089
196.20083
196.20078
196.20074
196.20068
196.20061
196.20053
196.20045
196.20037
196.20029
196.2002
196.20012
196.20004
117.72319
117.72313
117.72304
117.72295
117.72286
117.72278
117.72269
117.7226
117.72251
117.72242
117.72231
117.72217
117.72197
117.72165
117.72139
117.7212
117.72103
117.72088
117.72082
117.72078
117.72073
117.72067
117.72061
117.72053
117.72045
117.72037
117.72029
117.7202
117.72012
117.72004
39.243426
39.243207
39.243081
39.242981
39.242883
39.242789
39.242697
39.242606
39.242513
39.242412
39.242297
39.242154
39.241967
39.241654
39.241413
39.241221
39.241054
39.240907
39.240835
39.240784
39.24073
39.240669
39.2406
39.240526
39.240447
39.240367
39.240286
39.240204
39.240122
39.240041
353.16339
353.16318
353.16306
353.16297
353.16288
353.16279
353.16271
353.16263
353.16255
353.16247
353.16235
353.16217
353.16182
353.16104
353.16112
353.16103
353.16088
353.16067
353.16071
353.16072
353.1607
353.16065
353.16059
353.16052
353.16045
353.16037
353.16029
353.16021
353.16012
353.16004
274.68315
274.6831
274.68302
274.68294
274.68286
274.68278
274.68271
274.68263
274.68256
274.68248
274.68238
274.6822
274.68178
274.68083
274.68101
274.68097
274.68083
274.6806
274.68068
274.68071
274.6807
274.68066
274.6806
274.68053
274.68045
274.68037
274.68029
274.68021
274.68012
274.68004
196.20318
196.20313
196.20305
196.20297
196.20288
196.2028
196.20272
196.20264
196.20256
196.20248
196.20237
196.20219
196.20177
196.20082
196.20102
196.20098
196.20084
196.20061
196.20069
196.20072
196.20071
196.20066
196.2006
196.20053
196.20045
196.20037
196.20029
196.20021
196.20012
196.20004
117.72315
117.7231
117.72302
117.72294
117.72286
117.72278
117.72271
117.72263
117.72256
117.72248
117.72238
117.7222
117.72178
117.72083
117.72101
117.72097
117.72083
117.7206
117.72068
117.72071
117.7207
117.72066
117.7206
117.72053
117.72045
117.72037
117.72029
117.72021
117.72012
117.72004
39.243387
39.243176
39.243059
39.242968
39.242879
39.242794
39.242713
39.242634
39.242554
39.242465
39.242354
39.242173
39.241816
39.241042
39.24112
39.241026
39.240882
39.240669
39.240715
39.240718
39.240696
39.240653
39.240594
39.240524
39.240449
39.24037
39.240288
39.240207
39.240124
39.240042
353.16339
353.16318
353.16306
353.16298
353.16289
353.16282
353.16275
353.16269
353.16265
353.16263
353.16264
353.16269
353.16281
353.1603
353.16063
353.16066
353.16071
353.16068
353.16063
353.16055
353.16047
353.16038
353.1603
353.16021
353.16013
353.16004
274.68315
274.6831
274.68303
274.68295
274.68288
274.6828
274.68274
274.68269
274.68266
274.68266
274.6827
274.68278
274.68301
274.68014
274.68061
274.68067
274.68073
274.68071
274.68065
274.68056
274.68048
274.68039
274.6803
274.68021
274.68013
274.68005
196.20318
196.20313
196.20306
196.20298
196.2029
196.20282
196.20276
196.2027
196.20267
196.20266
196.20269
196.20279
196.20302
196.20015
196.20062
196.20068
196.20073
196.20071
196.20065
196.20056
196.20048
196.20039
196.2003
196.20021
196.20013
196.20005
117.72315
117.7231
117.72303
117.72295
117.72288
117.7228
117.72274
117.72269
117.72266
117.72266
117.7227
117.72278
117.72301
117.72014
117.72061
117.72067
117.72073
117.72071
117.72065
117.72056
117.72048
117.72039
117.7203
117.72021
117.72013
117.72005
39.243386
39.243177
39.243064
39.242976
39.242893
39.242817
39.242749
39.242693
39.242652
39.242632
39.242644
39.242689
39.242808
39.240301
39.240629
39.240664
39.240707
39.240684
39.240625
39.24055
39.240468
39.240384
39.240298
39.240213
39.240128
39.240044
353.16339
353.16318
353.16306
353.16298
353.16289
353.16282
353.16275
353.16269
353.16265
353.16263
353.16264
353.16269
353.16281
353.1603
353.16063
353.16066
353.16071
353.16068
353.16063
353.16055
353.16047
353.16038
353.1603
353.16021
353.16013
353.16004
274.68315
274.6831
274.68303
274.68295
274.68288
274.6828
274.68274
274.68269
274.68266
274.68266
274.6827
274.68278
274.68301
274.68014
274.68061
274.68067
274.68073
274.68071
274.68065
274.68056
274.68048
274.68039
274.6803
274.68021
274.68013
274.68005
196.20318
196.20313
196.20306
196.20298
196.2029
196.20282
196.20276
196.2027
196.20267
196.20266
196.20269
196.20279
196.20302
196.20015
196.20062
196.20068
196.20073
196.20071
196.20065
196.20056
196.20048
196.20039
196.2003
196.20021
196.20013
196.20005
117.72315
117.7231
117.72303
117.72295
117.72288
117.7228
117.72274
117.72269
117.72266
117.72266
117.7227
117.72278
117.72301
117.72014
117.72061
117.72067
117.72073
117.72071
117.72065
117.72056
117.72048
117.72039
117.7203
117.72021
117.72013
117.72005
39.243386
39.243177
39.243064
39.242976
39.242893
39.242817
39.242749
39.242693
39.242652
39.242632
39.242644
39.242689
39.242808
39.240301
39.240629
39.240664
39.240707
39.240684
39.240625
39.24055
39.240468
39.240384
39.240298
39.240213
39.240128
39.240044
353.16339
353.16318
353.16306
353.16297
353.16288
353.16279
353.16271
353.16263
353.16255
353.16247
353.16235
353.16217
353.16182
353.16104
353.16112
353.16103
353.16088
353.16067
353.16071
353.16072
353.1607
353.16065
353.16059
353.16052
353.16045
353.16037
353.16029
353.16021
353.16012
353.16004
274.68315
274.6831
274.68302
274.68294
274.68286
274.68278
274.68271
274.68263
274.68256
274.68248
274.68238
274.6822
274.68178
274.68083
274.68101
274.68097
274.68083
274.6806
274.68068
274.68071
274.6807
274.68066
274.6806
274.68053
274.68045
274.68037
274.68029
274.68021
274.68012
274.68004
196.20318
196.20313
196.20305
196.20297
196.20288
196.2028
196.20272
196.20264
196.20256
196.20248
196.20237
196.20219
196.20177
196.20082
196.20102
196.20098
196.20084
196.20061
196.20069
196.20072
196.20071
196.20066
196.2006
196.20053
196.20045
196.20037
196.20029
196.20021
196.20012
196.20004
117.72315
117.7231
117.72302
117.72294
117.72286
117.72278
117.72271
117.72263
117.72256
117.72248
117.72238
117.7222
117.72178
117.72083
117.72101
117.72097
117.72083
117.7206
117.72068
117.72071
117.7207
117.72066
117.7206
117.72053
117.72045
117.72037
117.72029
117.72021
117.72012
117.72004
39.243387
39.243176
39.243059
39.242968
39.242879
39.242794
39.242713
39.242634
39.242554
39.242465
39.242354
39.242173
39.241816
39.241042
39.24112
39.241026
39.240882
39.240669
39.240715
39.240718
39.240696
39.240653
39.240594
39.240524
39.240449
39.24037
39.240288
39.240207
39.240124
39.240042
353.16343
353.16321
353.16308
353.16298
353.16288
353.16279
353.1627
353.16261
353.16251
353.16241
353.1623
353.16215
353.16197
353.16165
353.16141
353.16122
353.16105
353.16091
353.16084
353.16078
353.16073
353.16067
353.1606
353.16053
353.16045
353.16037
353.16029
353.1602
353.16012
353.16004
274.68319
274.68313
274.68304
274.68295
274.68286
274.68278
274.68269
274.6826
274.68251
274.68242
274.68231
274.68217
274.68197
274.68165
274.68139
274.6812
274.68103
274.68088
274.68082
274.68078
274.68073
274.68067
274.68061
274.68053
274.68045
274.68037
274.68029
274.6802
274.68012
274.68004
196.20322
196.20316
196.20307
196.20298
196.20289
196.20279
196.2027
196.20261
196.20252
196.20242
196.20231
196.20217
196.20198
196.20165
196.2014
196.2012
196.20104
196.20089
196.20083
196.20078
196.20074
196.20068
196.20061
196.20053
196.20045
196.20037
196.20029
196.2002
196.20012
196.20004
117.72319
117.72313
117.72304
117.72295
117.72286
117.72278
117.72269
117.7226
117.72251
117.72242
117.72231
117.72217
117.72197
117.72165
117.72139
117.7212
117.72103
117.72088
117.72082
117.72078
117.72073
117.72067
117.72061
117.72053
117.72045
117.72037
117.72029
117.7202
117.72012
117.72004
39.243426
39.243207
39.243081
39.242981
39.242883
39.242789
39.242697
39.242606
39.242513
39.242412
39.242297
39.242154
39.241967
39.241654
39.241413
39.241221
39.241054
39.240907
39.240835
39.240784
39.24073
39.240669
39.2406
39.240526
39.240447
39.240367
39.240286
39.240204
39.240122
39.240041
353.16344
353.16321
353.16307
353.16297
353.16286
353.16276
353.16266
353.16256
353.16245
353.16234
353.1622
353.16204
353.16185
353.16161
353.16142
353.16127
353.16112
353.161
353.1609
353.16082
353.16074
353.16066
353.16059
353.16051
353.16043
353.16036
353.16028
353.1602
353.16012
353.16004
274.6832
274.68313
274.68304
274.68294
274.68284
274.68275
274.68265
274.68256
274.68245
274.68234
274.6822
274.68205
274.68185
274.68161
274.68141
274.68125
274.68112
274.68099
274.68089
274.68081
274.68074
274.68066
274.68059
274.68051
274.68043
274.68036
274.68028
274.6802
274.68012
274.68004
196.20323
196.20317
196.20307
196.20297
196.20286
196.20276
196.20267
196.20257
196.20246
196.20234
196.20221
196.20204
196.20185
196.20161
196.20141
196.20126
196.20112
196.201
196.2009
196.20082
196.20074
196.20067
196.20059
196.20051
196.20043
196.20036
196.20028
196.2002
196.20012
196.20004
117.7232
117.72313
117.72304
117.72294
117.72284
117.72275
117.72265
117.72256
117.72245
117.72234
117.7222
117.72205
117.72185
117.72161
117.72141
117.72125
117.72112
117.72099
117.72089
117.72081
117.72074
117.72066
117.72059
117.72051
117.72043
117.72036
117.72028
117.7202
117.72012
117.72004
39.243436
39.243207
39.243074
39.242967
39.242863
39.242761
39.242663
39.242562
39.242455
39.242336
39.2422
39.242039
39.241845
39.24161
39.24142
39.241265
39.241125
39.240999
39.240899
39.240816
39.240739
39.240664
39.240588
39.240512
39.240435
39.240357
39.240278
39.240198
39.240119
39.240039
353.16364
353.1633
353.16313
353.16301
353.16289
353.16277
353.16266
353.16256
353.16244
353.16232
353.16219
353.16204
353.16188
353.16169
353.16151
353.16134
353.16118
353.16105
353.16094
353.16084
353.16075
353.16067
353.16059
353.16051
353.16043
353.16035
353.16028
353.1602
353.16012
353.16004
274.6834
274.68321
274.68308
274.68297
274.68286
274.68276
274.68265
274.68255
274.68244
274.68232
274.68219
274.68205
274.68188
274.6817
274.68151
274.68134
274.68118
274.68105
274.68093
274.68084
274.68075
274.68067
274.68059
274.68051
274.68043
274.68035
274.68027
274.6802
274.68012
274.68004
196.20344
196.20325
196.20311
196.20299
196.20288
196.20277
196.20266
196.20256
196.20244
196.20232
196.20219
196.20205
196.20188
196.2017
196.20151
196.20134
196.20119
196.20105
196.20094
196.20084
196.20075
196.20067
196.20059
196.20051
196.20043
196.20035
196.20027
196.2002
196.20012
196.20004
117.7234
117.72321
117.72308
117.72297
117.72286
117.72276
117.72265
117.72255
117.72244
117.72232
117.72219
117.72205
117.72188
117.7217
117.72151
117.72134
117.72118
117.72105
117.72093
117.72084
117.72075
117.72067
117.72059
117.72051
117.72043
117.72035
117.72027
117.7202
117.72012
117.72004
39.243645
39.243297
39.243133
39.243005
39.242885
39.242772
39.242664
39.242555
39.242443
39.242323
39.242191
39.242044
39.241878
39.241693
39.241509
39.241338
39.241185
39.241051
39.240937
39.24084
39.240753
39.240671
39.240591
39.240512
39.240433
39.240355
39.240276
39.240197
39.240117
39.240038
)
;

boundaryField
{
    minX
    {
        type            calculated;
        value           nonuniform List<scalar> 
50
(
353.16364
274.6834
196.20344
117.7234
39.243645
353.16344
274.6832
196.20323
117.7232
39.243436
353.16343
274.68319
196.20322
117.72319
39.243426
353.16339
274.68315
196.20318
117.72315
39.243387
353.16339
274.68315
196.20318
117.72315
39.243386
353.16339
274.68315
196.20318
117.72315
39.243386
353.16339
274.68315
196.20318
117.72315
39.243387
353.16343
274.68319
196.20322
117.72319
39.243426
353.16344
274.6832
196.20323
117.7232
39.243436
353.16364
274.6834
196.20344
117.7234
39.243645
)
;
    }
    maxX
    {
        type            calculated;
        value           nonuniform List<scalar> 
50
(
353.16
274.68
196.2
117.72
39.24
353.16
274.68
196.2
117.72
39.24
353.16
274.68
196.2
117.72
39.24
353.16
274.68
196.2
117.72
39.24
353.16
274.68
196.2
117.72
39.24
353.16
274.68
196.2
117.72
39.24
353.16
274.68
196.2
117.72
39.24
353.16
274.68
196.2
117.72
39.24
353.16
274.68
196.2
117.72
39.24
353.16
274.68
196.2
117.72
39.24
)
;
    }
    minY
    {
        type            calculated;
        value           nonuniform List<scalar> 
292
(
392.40364
392.40344
392.40343
392.40339
392.40339
392.40339
392.40339
392.40343
392.40344
392.40364
392.4033
392.40321
392.40321
392.40318
392.40318
392.40318
392.40318
392.40321
392.40321
392.4033
392.40313
392.40307
392.40308
392.40306
392.40306
392.40306
392.40306
392.40308
392.40307
392.40313
392.40301
392.40297
392.40298
392.40297
392.40298
392.40298
392.40297
392.40298
392.40297
392.40301
392.40289
392.40286
392.40288
392.40288
392.40289
392.40289
392.40288
392.40288
392.40286
392.40289
392.40277
392.40276
392.40279
392.40279
392.40282
392.40282
392.40279
392.40279
392.40276
392.40277
392.40266
392.40266
392.4027
392.40271
392.40275
392.40275
392.40271
392.4027
392.40266
392.40266
392.40256
392.40256
392.40261
392.40263
392.40269
392.40269
392.40263
392.40261
392.40256
392.40256
392.40244
392.40245
392.40251
392.40255
392.40265
392.40265
392.40255
392.40251
392.40245
392.40244
392.40232
392.40234
392.40241
392.40247
392.40263
392.40263
392.40247
392.40241
392.40234
392.40232
392.40219
392.4022
392.4023
392.40235
392.40264
392.40264
392.40235
392.4023
392.4022
392.40219
392.40204
392.40204
392.40215
392.40217
392.40269
392.40269
392.40217
392.40215
392.40204
392.40204
392.40188
392.40185
392.40197
392.40182
392.40281
392.40281
392.40182
392.40197
392.40185
392.40188
392.40169
392.40161
392.40165
392.40104
392.40104
392.40165
392.40161
392.40169
392.40151
392.40142
392.40141
392.40112
392.40112
392.40141
392.40142
392.40151
392.40134
392.40127
392.40122
392.40103
392.40103
392.40122
392.40127
392.40134
392.40118
392.40112
392.40105
392.40088
392.40088
392.40105
392.40112
392.40118
392.40105
392.401
392.40091
392.40067
392.4003
392.4003
392.40067
392.40091
392.401
392.40105
392.40094
392.4009
392.40084
392.40071
392.40063
392.40063
392.40071
392.40084
392.4009
392.40094
392.40084
392.40082
392.40078
392.40072
392.40066
392.40066
392.40072
392.40078
392.40082
392.40084
392.40075
392.40074
392.40073
392.4007
392.40071
392.40071
392.4007
392.40073
392.40074
392.40075
392.40067
392.40066
392.40067
392.40065
392.40068
392.40068
392.40065
392.40067
392.40066
392.40067
392.40059
392.40059
392.4006
392.40059
392.40063
392.40063
392.40059
392.4006
392.40059
392.40059
392.40051
392.40051
392.40053
392.40052
392.40055
392.40055
392.40052
392.40053
392.40051
392.40051
392.40043
392.40043
392.40045
392.40045
392.40047
392.40047
392.40045
392.40045
392.40043
392.40043
392.40035
392.40036
392.40037
392.40037
392.40038
392.40038
392.40037
392.40037
392.40036
392.40035
392.40028
392.40028
392.40029
392.40029
392.4003
392.4003
392.40029
392.40029
392.40028
392.40028
392.4002
392.4002
392.4002
392.40021
392.40021
392.40021
392.40021
392.4002
392.4002
392.4002
392.40012
392.40012
392.40012
392.40012
392.40013
392.40013
392.40012
392.40012
392.40012
392.40012
392.40004
392.40004
392.40004
392.40004
392.40004
392.40004
392.40004
392.40004
392.40004
392.40004
)
;
    }
    minZ
    {
        type            calculated;
        value           nonuniform List<scalar> 
150
(
353.16364
274.6834
196.20344
117.7234
39.243645
353.1633
274.68321
196.20325
117.72321
39.243297
353.16313
274.68308
196.20311
117.72308
39.243133
353.16301
274.68297
196.20299
117.72297
39.243005
353.16289
274.68286
196.20288
117.72286
39.242885
353.16277
274.68276
196.20277
117.72276
39.242772
353.16266
274.68265
196.20266
117.72265
39.242664
353.16256
274.68255
196.20256
117.72255
39.242555
353.16244
274.68244
196.20244
117.72244
39.242443
353.16232
274.68232
196.20232
117.72232
39.242323
353.16219
274.68219
196.20219
117.72219
39.242191
353.16204
274.68205
196.20205
117.72205
39.242044
353.16188
274.68188
196.20188
117.72188
39.241878
353.16169
274.6817
196.2017
117.7217
39.241693
353.16151
274.68151
196.20151
117.72151
39.241509
353.16134
274.68134
196.20134
117.72134
39.241338
353.16118
274.68118
196.20119
117.72118
39.241185
353.16105
274.68105
196.20105
117.72105
39.241051
353.16094
274.68093
196.20094
117.72093
39.240937
353.16084
274.68084
196.20084
117.72084
39.24084
353.16075
274.68075
196.20075
117.72075
39.240753
353.16067
274.68067
196.20067
117.72067
39.240671
353.16059
274.68059
196.20059
117.72059
39.240591
353.16051
274.68051
196.20051
117.72051
39.240512
353.16043
274.68043
196.20043
117.72043
39.240433
353.16035
274.68035
196.20035
117.72035
39.240355
353.16028
274.68027
196.20027
117.72027
39.240276
353.1602
274.6802
196.2002
117.7202
39.240197
353.16012
274.68012
196.20012
117.72012
39.240117
353.16004
274.68004
196.20004
117.72004
39.240038
)
;
    }
    maxZ
    {
        type            calculated;
        value           nonuniform List<scalar> 
150
(
353.16364
274.6834
196.20344
117.7234
39.243645
353.1633
274.68321
196.20325
117.72321
39.243297
353.16313
274.68308
196.20311
117.72308
39.243133
353.16301
274.68297
196.20299
117.72297
39.243005
353.16289
274.68286
196.20288
117.72286
39.242885
353.16277
274.68276
196.20277
117.72276
39.242772
353.16266
274.68265
196.20266
117.72265
39.242664
353.16256
274.68255
196.20256
117.72255
39.242555
353.16244
274.68244
196.20244
117.72244
39.242443
353.16232
274.68232
196.20232
117.72232
39.242323
353.16219
274.68219
196.20219
117.72219
39.242191
353.16204
274.68205
196.20205
117.72205
39.242044
353.16188
274.68188
196.20188
117.72188
39.241878
353.16169
274.6817
196.2017
117.7217
39.241693
353.16151
274.68151
196.20151
117.72151
39.241509
353.16134
274.68134
196.20134
117.72134
39.241338
353.16118
274.68118
196.20119
117.72118
39.241185
353.16105
274.68105
196.20105
117.72105
39.241051
353.16094
274.68093
196.20094
117.72093
39.240937
353.16084
274.68084
196.20084
117.72084
39.24084
353.16075
274.68075
196.20075
117.72075
39.240753
353.16067
274.68067
196.20067
117.72067
39.240671
353.16059
274.68059
196.20059
117.72059
39.240591
353.16051
274.68051
196.20051
117.72051
39.240512
353.16043
274.68043
196.20043
117.72043
39.240433
353.16035
274.68035
196.20035
117.72035
39.240355
353.16028
274.68027
196.20027
117.72027
39.240276
353.1602
274.6802
196.2002
117.7202
39.240197
353.16012
274.68012
196.20012
117.72012
39.240117
353.16004
274.68004
196.20004
117.72004
39.240038
)
;
    }
    bottomWater_to_rightSolid
    {
        type            calculated;
        value           nonuniform List<scalar> 
130
(
0.0010507706
0.00093728935
0.00084025344
0.00075305513
0.00067086902
0.00059102161
0.00051210886
0.00043342322
0.00035466997
0.00027575595
0.00019668539
0.00011748946
3.8312189e-05
0.00099875994
0.00089857007
0.00081576533
0.00073924397
0.00066400875
0.00058849494
0.0005121491
0.00043484768
0.00035667536
0.00027779569
0.00019840532
0.00011864005
3.8718598e-05
0.00090650248
0.00083542038
0.00078414702
0.00073029915
0.00066882034
0.00059998085
0.00052550164
0.00044733576
0.00036707883
0.00028579966
0.00020411825
0.00012233191
4.0558383e-05
0.00066879898
0.00071484284
0.00071773958
0.0006959368
0.00065261685
0.00059365713
0.00052438317
0.00044874538
0.00036951892
0.00028844779
0.00020652647
0.00012428307
4.1925986e-05
0.0003011083
0.00062869803
0.0006640499
0.00070726194
0.00068362329
0.0006250217
0.00055046106
0.00046848711
0.00038360029
0.00029806727
0.00021285855
0.00012829286
4.4245765e-05
0.00030110757
0.00062869789
0.00066405005
0.00070726207
0.00068362336
0.00062502172
0.00055046105
0.00046848708
0.00038360025
0.00029806722
0.00021285851
0.00012829282
4.4245742e-05
0.00066879875
0.00071484273
0.00071773966
0.00069593694
0.00065261699
0.00059365724
0.00052438322
0.00044874539
0.0003695189
0.00028844776
0.00020652643
0.00012428303
4.1925955e-05
0.00090650242
0.00083542037
0.0007841471
0.00073029928
0.00066882047
0.00059998095
0.0005255017
0.00044733575
0.00036707878
0.00028579958
0.00020411815
0.00012233181
4.0558304e-05
0.00099875994
0.0008985701
0.00081576542
0.0007392441
0.0006640089
0.00058849508
0.0005121492
0.00043484774
0.00035667537
0.00027779566
0.00019840526
0.00011863998
3.8718513e-05
0.0010507706
0.00093728937
0.0008402535
0.00075305522
0.00067086912
0.0005910217
0.00051210894
0.00043342325
0.00035466995
0.0002757559
0.00019668531
0.00011748936
3.8312083e-05
)
;
    }
    bottomWater_to_leftSolid
    {
        type            calculated;
        value           nonuniform List<scalar> 
130
(
0.0036446154
0.0032967707
0.0031330114
0.0030050499
0.0028852026
0.0027722782
0.002663633
0.0025550723
0.0024429162
0.0023230462
0.0021913757
0.002044075
0.0018784137
0.0034362767
0.0032071281
0.003074376
0.002967179
0.0028628547
0.0027613935
0.0026625597
0.0025619765
0.00245477
0.0023361781
0.0022002509
0.0020390881
0.0018454459
0.0034261345
0.0032065071
0.0030809668
0.0029807073
0.0028833861
0.0027890447
0.0026971273
0.0026062092
0.0025128362
0.0024122531
0.0022970816
0.0021539028
0.0019666243
0.0033872469
0.0031758597
0.0030594582
0.0029677455
0.0028790099
0.0027938896
0.0027127958
0.00263382
0.0025535196
0.0024653454
0.002354226
0.0021731589
0.0018161973
0.0033864185
0.0031768255
0.0030637184
0.0029763175
0.0028934637
0.0028168249
0.0027493356
0.0026931246
0.0026519231
0.0026323195
0.0026438849
0.0026888691
0.0028084614
0.0033864185
0.0031768255
0.0030637184
0.0029763175
0.0028934637
0.0028168249
0.0027493356
0.0026931246
0.0026519232
0.0026323195
0.0026438849
0.0026888692
0.0028084615
0.0033872469
0.0031758597
0.0030594582
0.0029677454
0.0028790099
0.0027938896
0.0027127958
0.00263382
0.0025535196
0.0024653454
0.002354226
0.0021731589
0.0018161974
0.0034261345
0.0032065071
0.0030809668
0.0029807073
0.0028833861
0.0027890446
0.0026971273
0.0026062092
0.0025128362
0.0024122532
0.0022970816
0.0021539028
0.0019666244
0.0034362767
0.003207128
0.003074376
0.0029671789
0.0028628546
0.0027613935
0.0026625597
0.0025619764
0.0024547699
0.0023361781
0.0022002509
0.0020390881
0.0018454459
0.0036446154
0.0032967707
0.0031330114
0.0030050498
0.0028852026
0.0027722782
0.002663633
0.0025550723
0.0024429161
0.0023230461
0.0021913756
0.002044075
0.0018784136
)
;
    }
    bottomWater_to_heater
    {
        type            calculated;
        value           nonuniform List<scalar> 
92
(
0.001693303
0.0015094609
0.0013381842
0.0011847792
0.0016104221
0.0014203191
0.0012650497
0.0011249977
0.0016536724
0.0014127562
0.0012211967
0.001053959
353.16104
353.16112
353.16103
353.16088
274.68083
274.68101
274.68097
274.68083
196.20082
196.20102
196.20098
196.20084
117.72083
117.72101
117.72097
117.72083
0.0010419101
39.241042
0.0011197968
39.24112
0.0010258697
39.241026
0.00088243446
39.240882
353.16281
353.1603
274.68301
274.68014
196.20302
196.20015
117.72301
117.72014
39.242808
39.240301
353.16281
353.16104
353.16112
353.16103
353.1603
353.16088
274.68301
274.68083
274.68101
274.68097
274.68014
274.68083
196.20302
196.20082
196.20102
196.20098
196.20015
196.20084
117.72301
117.72083
117.72101
117.72097
117.72014
117.72083
39.242808
39.241042
39.24112
39.241026
39.240301
39.240882
0.0010419102
0.0011197968
0.0010258696
0.0008824344
0.0016536725
0.0014127562
0.0012211967
0.001053959
0.0016104222
0.0014203191
0.0012650497
0.0011249977
0.001693303
0.0015094609
0.0013381842
0.0011847792
)
;
    }
}


// ************************************************************************* //
