/*--------------------------------*- C++ -*----------------------------------*\
| =========                 |                                                 |
| \\      /  F ield         | OpenFOAM: The Open Source CFD Toolbox           |
|  \\    /   O peration     | Version:  2412                                  |
|   \\  /    A nd           | Website:  www.openfoam.com                      |
|    \\/     M anipulation  |                                                 |
\*---------------------------------------------------------------------------*/
FoamFile
{
    version     2.0;
    format      ascii;
    arch        "LSB;label=32;scalar=64";
    class       volScalarField;
    location    "20/bottomWater";
    object      p_rgh;
}
// * * * * * * * * * * * * * * * * * * * * * * * * * * * * * * * * * * * * * //

dimensions      [1 -1 -2 0 0 0 0];

internalField   nonuniform List<scalar> 
1460
(
0.0036446154
0.0032967707
0.0031330114
0.0030050499
0.0028852026
0.0027722782
0.002663633
0.0025550723
0.0024429162
0.0023230462
0.0021913757
0.002044075
0.0018784136
0.0016933029
0.0015094608
0.0013381841
0.0011847791
0.0010507705
0.00093728924
0.00084025337
0.00075305511
0.00067086906
0.00059102174
0.00051210909
0.00043342338
0.00035467005
0.00027575599
0.0001966854
0.00011748947
3.8312205e-05
0.003401359
0.0032130752
0.0030794423
0.0029683494
0.0028610281
0.0027561845
0.0026528768
0.0025478982
0.0024389022
0.0023219513
0.0021930446
0.0020480036
0.0018834442
0.0016974756
0.0015115288
0.0013385049
0.0011823739
0.0010473877
0.00093383595
0.00083738907
0.00075093703
0.00066917403
0.00058940891
0.00051047817
0.00043184495
0.00035322857
0.00027449542
0.00019561045
0.00011653258
3.736983e-05
0.0034379681
0.0032503484
0.0031111359
0.0029946095
0.0028822459
0.0027725227
0.0026646501
0.0025557223
0.0024436408
0.002324366
0.0021937168
0.0020480161
0.0018837613
0.001698844
0.0015140895
0.0013418621
0.0011864622
0.0010515968
0.00093786337
0.00084091898
0.00075370475
0.00067111455
0.00059065519
0.00051120314
0.00043221753
0.0003533796
0.00027453841
0.00019560517
0.00011649363
3.7252799e-05
0.003401359
0.0032130752
0.0030794423
0.0029683494
0.0028610281
0.0027561845
0.0026528768
0.0025478982
0.0024389022
0.0023219513
0.0021930446
0.0020480036
0.0018834443
0.0016974756
0.0015115288
0.0013385049
0.001182374
0.0010473877
0.00093383601
0.00083738911
0.00075093703
0.00066917401
0.00058940885
0.00051047789
0.00043184487
0.00035322853
0.00027449541
0.00019561044
0.00011653257
3.7369816e-05
0.0036446154
0.0032967707
0.0031330114
0.0030050499
0.0028852026
0.0027722782
0.002663633
0.0025550723
0.0024429162
0.0023230462
0.0021913757
0.002044075
0.0018784137
0.001693303
0.0015094609
0.0013381842
0.0011847792
0.0010507706
0.00093728935
0.00084025344
0.00075305513
0.00067086902
0.00059102161
0.00051210886
0.00043342322
0.00035466997
0.00027575595
0.00019668539
0.00011748946
3.8312189e-05
0.0034362767
0.0032071281
0.003074376
0.002967179
0.0028628546
0.0027613935
0.0026625597
0.0025619765
0.00245477
0.0023361782
0.0022002509
0.002039088
0.0018454458
0.001610422
0.0014203189
0.0012650495
0.0011249975
0.00099875975
0.00089856988
0.00081576519
0.00073924389
0.00066400873
0.00058849499
0.0005121492
0.00043484777
0.00035667542
0.00027779572
0.00019840533
0.00011864006
3.871862e-05
0.0031976358
0.003129598
0.0030368055
0.0029402475
0.0028435044
0.0027471309
0.0026531399
0.0025566158
0.0024528742
0.0023377177
0.0022047866
0.002045131
0.0018488959
0.0016054586
0.0014108005
0.0012548483
0.0011186409
0.00099382292
0.00089475912
0.00081407973
0.0007392676
0.00066465929
0.00058888708
0.00051204706
0.00043436156
0.00035600187
0.00027710187
0.0001977321
0.00011792636
3.7795058e-05
0.0032326124
0.0031659391
0.0030679383
0.0029660529
0.0028648506
0.0027647549
0.0026656569
0.0025651838
0.002458126
0.0023401379
0.0022052126
0.0020444696
0.0018480493
0.0016056156
0.00141325
0.0012597324
0.0011232714
0.00099837344
0.00089912386
0.00081798076
0.00074216981
0.00066637118
0.00058974676
0.0005123952
0.00043444011
0.00035595604
0.00027699749
0.00019761718
0.00011780896
3.7625284e-05
0.0031976358
0.003129598
0.0030368055
0.0029402476
0.0028435044
0.0027471309
0.0026531399
0.0025566158
0.0024528742
0.0023377177
0.0022047866
0.002045131
0.0018488959
0.0016054587
0.0014108006
0.0012548484
0.0011186411
0.00099382311
0.00089475929
0.00081407985
0.00073926758
0.00066465923
0.00058888702
0.00051204698
0.00043436151
0.00035600184
0.00027710186
0.00019773209
0.00011792635
3.7795038e-05
0.0034362767
0.0032071281
0.003074376
0.002967179
0.0028628547
0.0027613935
0.0026625597
0.0025619765
0.00245477
0.0023361781
0.0022002509
0.0020390881
0.0018454459
0.0016104221
0.0014203191
0.0012650497
0.0011249977
0.00099875994
0.00089857007
0.00081576533
0.00073924397
0.00066400875
0.00058849494
0.0005121491
0.00043484768
0.00035667536
0.00027779569
0.00019840532
0.00011864005
3.8718598e-05
0.0034261345
0.0032065071
0.0030809668
0.0029807073
0.0028833861
0.0027890446
0.0026971273
0.0026062092
0.0025128363
0.0024122532
0.0022970816
0.0021539027
0.0019666242
0.0016536723
0.001412756
0.0012211965
0.0010539587
0.00090650205
0.00083541992
0.0007841466
0.00073029884
0.00066882017
0.00059998079
0.00052550165
0.00044733578
0.00036707886
0.00028579968
0.00020411826
0.00012233192
4.0558408e-05
0.0031867309
0.0031276494
0.0030429025
0.0029537278
0.0028648529
0.0027776005
0.0026895115
0.0026022129
0.0025128499
0.0024168807
0.0023059648
0.0021659463
0.0019747598
0.0016457361
0.0013943072
0.0012009925
0.0010312908
0.00088370183
0.00081952056
0.00077907539
0.00073219327
0.00067386186
0.00060511226
0.00052936796
0.00044977522
0.0003684205
0.00028643893
0.00020434756
0.00012229734
4.0245478e-05
0.0032225258
0.0031647832
0.003074813
0.0029801776
0.0028864322
0.0027938487
0.0027021016
0.0026110383
0.0025184126
0.0024192612
0.0023066705
0.00216633
0.0019761224
0.0016495932
0.0013991318
0.0012045651
0.0010354675
0.00088885386
0.00082533056
0.00078469487
0.00073617239
0.00067589212
0.00060604706
0.00052966069
0.00044971653
0.00036821868
0.00028621717
0.00020416169
0.00012215704
4.0128262e-05
0.0031867309
0.0031276494
0.0030429025
0.0029537278
0.002864853
0.0027776006
0.0026895116
0.0026022129
0.0025128498
0.0024168807
0.0023059648
0.0021659463
0.0019747599
0.0016457363
0.0013943073
0.0012009926
0.0010312911
0.0008837022
0.00081952097
0.00077907576
0.00073219339
0.00067386192
0.00060511229
0.00052936797
0.0004497752
0.00036842048
0.00028643892
0.00020434755
0.00012229733
4.0245457e-05
0.0034261345
0.0032065071
0.0030809668
0.0029807073
0.0028833861
0.0027890447
0.0026971273
0.0026062092
0.0025128362
0.0024122531
0.0022970816
0.0021539028
0.0019666243
0.0016536724
0.0014127562
0.0012211967
0.001053959
0.00090650248
0.00083542038
0.00078414702
0.00073029915
0.00066882034
0.00059998085
0.00052550164
0.00044733576
0.00036707883
0.00028579966
0.00020411825
0.00012233191
4.0558383e-05
0.0033872469
0.0031758597
0.0030594582
0.0029677454
0.0028790099
0.0027938896
0.0027127958
0.00263382
0.0025535196
0.0024653454
0.002354226
0.0021731588
0.0018161972
0.0010419099
0.0011197965
0.0010258693
0.0008824339
0.0006687978
0.00071484158
0.0007177383
0.00069593587
0.00065261628
0.00059365683
0.00052438302
0.00044874531
0.00036951889
0.00028844779
0.00020652646
0.00012428307
4.1925999e-05
0.0031486213
0.0030970324
0.003021887
0.0029414574
0.0028608035
0.002782164
0.0027061953
0.0026324475
0.0025589786
0.0024795617
0.0023778802
0.0021997931
0.0017809831
0.0008303431
0.0010145647
0.00097259563
0.00083107351
0.00060221406
0.00068076708
0.00070892757
0.00069871691
0.00066013945
0.00060121944
0.00052999848
0.00045231214
0.00037157874
0.00028957118
0.00020713876
0.00012467495
4.2291612e-05
0.0031837291
0.0031335095
0.0030532911
0.0029674397
0.0028820393
0.0027987492
0.0027182442
0.0026401216
0.002562373
0.0024793175
0.0023745528
0.0021945776
0.0017686431
0.00082321037
0.0010231793
0.00098418856
0.00083884194
0.00061030006
0.0006913542
0.00071877975
0.00070512443
0.00066308997
0.0006022631
0.00053006385
0.00045195063
0.000371106
0.00028914276
0.00020681516
0.00012447621
4.2247634e-05
0.0031486213
0.0030970324
0.003021887
0.0029414574
0.0028608035
0.0027821641
0.0027061953
0.0026324475
0.0025589786
0.0024795617
0.0023778802
0.0021997932
0.0017809831
0.00083034324
0.0010145649
0.0009725959
0.00083107399
0.00060221511
0.00068076828
0.00070892899
0.00069871773
0.00066013985
0.00060121964
0.00052999858
0.00045231218
0.00037157875
0.00028957118
0.00020713876
0.00012467495
4.2291594e-05
0.0033872469
0.0031758597
0.0030594582
0.0029677455
0.0028790099
0.0027938896
0.0027127958
0.00263382
0.0025535196
0.0024653454
0.002354226
0.0021731589
0.0018161973
0.0010419101
0.0011197968
0.0010258697
0.00088243446
0.00066879898
0.00071484284
0.00071773958
0.0006959368
0.00065261685
0.00059365713
0.00052438317
0.00044874538
0.00036951892
0.00028844779
0.00020652647
0.00012428307
4.1925986e-05
0.0033864185
0.0031768255
0.0030637184
0.0029763175
0.0028934637
0.0028168248
0.0027493356
0.0026931246
0.0026519231
0.0026323195
0.0026438848
0.0026888691
0.0028084613
0.00030110591
0.00062869566
0.00066404684
0.00070725999
0.00068362217
0.00062502109
0.00055046074
0.00046848696
0.00038360023
0.00029806725
0.00021285854
0.00012829285
4.4245771e-05
0.0031475045
0.0030975049
0.0030255882
0.0029495818
0.0028750019
0.0028049646
0.0027429894
0.0026932276
0.0026616821
0.0026573854
0.0026955392
0.0027843183
0.0030079247
0.00014403531
0.00060943765
0.0006684991
0.00072859604
0.00071065241
0.00064659969
0.00056496882
0.00047739306
0.00038872242
0.00030089688
0.00021448356
0.00012954028
4.5835625e-05
0.0031827015
0.0031340832
0.00305712
0.0029757264
0.0028964755
0.0028218264
0.002755267
0.0027010612
0.0026652469
0.0026579976
0.0026949244
0.0027861804
0.003018848
0.00014959122
0.00062267806
0.00067878213
0.00073338491
0.00071294412
0.00064703992
0.00056441051
0.00047650938
0.0003878593
0.00030019388
0.0002139896
0.00012929152
4.5963013e-05
0.0031475045
0.0030975049
0.0030255883
0.0029495818
0.0028750019
0.0028049646
0.0027429894
0.0026932276
0.0026616821
0.0026573854
0.0026955393
0.0027843183
0.0030079247
0.0001440376
0.00060944035
0.00066850545
0.0007285984
0.00071065339
0.00064660012
0.00056496901
0.00047739314
0.00038872245
0.00030089688
0.00021448356
0.00012954028
4.5835613e-05
0.0033864185
0.0031768255
0.0030637184
0.0029763175
0.0028934637
0.0028168249
0.0027493356
0.0026931246
0.0026519231
0.0026323195
0.0026438849
0.0026888691
0.0028084614
0.0003011083
0.00062869803
0.0006640499
0.00070726194
0.00068362329
0.0006250217
0.00055046106
0.00046848711
0.00038360029
0.00029806727
0.00021285855
0.00012829286
4.4245765e-05
0.0033864185
0.0031768255
0.0030637184
0.0029763175
0.0028934637
0.0028168248
0.0027493356
0.0026931246
0.0026519232
0.0026323195
0.0026438849
0.0026888692
0.0028084614
0.0003011055
0.00062869516
0.00066404619
0.00070725962
0.00068362195
0.00062502096
0.00055046066
0.0004684869
0.00038360018
0.00029806721
0.0002128585
0.00012829281
4.4245726e-05
0.0031475045
0.0030975049
0.0030255883
0.0029495818
0.0028750019
0.0028049646
0.0027429894
0.0026932276
0.0026616821
0.0026573854
0.0026955393
0.0027843184
0.0030079248
0.00014403474
0.00060943691
0.00066849714
0.00072859543
0.00071065217
0.00064659956
0.00056496873
0.000477393
0.00038872236
0.00030089683
0.00021448352
0.00012954024
4.5835581e-05
0.0031827015
0.0031340832
0.00305712
0.0029757264
0.0028964754
0.0028218264
0.002755267
0.0027010612
0.002665247
0.0026579977
0.0026949245
0.0027861805
0.0030188481
0.00014959045
0.00062267777
0.00067878219
0.00073338485
0.00071294406
0.00064703987
0.00056441046
0.00047650933
0.00038785925
0.00030019383
0.00021398955
0.00012929148
4.5962978e-05
0.0031475045
0.0030975049
0.0030255883
0.0029495818
0.0028750019
0.0028049646
0.0027429894
0.0026932276
0.0026616821
0.0026573855
0.0026955393
0.0027843184
0.0030079249
0.00014403667
0.00060944029
0.00066850656
0.00072859868
0.00071065347
0.00064660014
0.00056496899
0.00047739311
0.0003887224
0.00030089683
0.00021448351
0.00012954024
4.5835584e-05
0.0033864185
0.0031768255
0.0030637184
0.0029763175
0.0028934637
0.0028168249
0.0027493356
0.0026931246
0.0026519232
0.0026323195
0.0026438849
0.0026888692
0.0028084615
0.00030110757
0.00062869789
0.00066405005
0.00070726207
0.00068362336
0.00062502172
0.00055046105
0.00046848708
0.00038360025
0.00029806722
0.00021285851
0.00012829282
4.4245742e-05
0.0033872469
0.0031758597
0.0030594581
0.0029677454
0.0028790099
0.0027938895
0.0027127957
0.00263382
0.0025535196
0.0024653454
0.002354226
0.0021731588
0.0018161972
0.00104191
0.0011197966
0.0010258693
0.00088243385
0.00066879776
0.0007148414
0.00071773805
0.00069593566
0.00065261613
0.00059365672
0.00052438295
0.00044874528
0.00036951889
0.00028844778
0.00020652644
0.00012428302
4.1925915e-05
0.0031486213
0.0030970324
0.003021887
0.0029414574
0.0028608035
0.002782164
0.0027061952
0.0026324474
0.0025589786
0.0024795617
0.0023778802
0.0021997932
0.0017809832
0.00083034327
0.0010145647
0.00097259563
0.00083107347
0.00060221399
0.00068076683
0.00070892719
0.00069871667
0.0006601393
0.00060121935
0.00052999843
0.0004523121
0.00037157872
0.00028957115
0.00020713873
0.0001246749
4.2291529e-05
0.0031837291
0.0031335095
0.0030532911
0.0029674397
0.0028820393
0.0027987492
0.0027182442
0.0026401216
0.002562373
0.0024793175
0.0023745529
0.0021945777
0.0017686432
0.00082321057
0.0010231793
0.00098418854
0.00083884185
0.00061029983
0.00069135397
0.00071877965
0.0007051244
0.00066308996
0.00060226309
0.00053006383
0.00045195061
0.00037110597
0.00028914274
0.00020681512
0.00012447616
4.2247576e-05
0.0031486213
0.0030970324
0.003021887
0.0029414574
0.0028608036
0.0027821641
0.0027061952
0.0026324474
0.0025589786
0.0024795617
0.0023778802
0.0021997933
0.0017809833
0.00083034345
0.0010145649
0.00097259587
0.00083107386
0.00060221477
0.00068076804
0.00070892906
0.00069871786
0.00066013997
0.00060121971
0.00052999861
0.00045231217
0.00037157873
0.00028957114
0.00020713872
0.0001246749
4.2291549e-05
0.0033872469
0.0031758597
0.0030594582
0.0029677454
0.0028790099
0.0027938896
0.0027127958
0.00263382
0.0025535196
0.0024653454
0.002354226
0.0021731589
0.0018161974
0.0010419102
0.0011197968
0.0010258696
0.0008824344
0.00066879875
0.00071484273
0.00071773966
0.00069593694
0.00065261699
0.00059365724
0.00052438322
0.00044874539
0.0003695189
0.00028844776
0.00020652643
0.00012428303
4.1925955e-05
0.0034261345
0.0032065071
0.0030809668
0.0029807073
0.0028833861
0.0027890446
0.0026971273
0.0026062092
0.0025128362
0.0024122531
0.0022970815
0.0021539027
0.0019666242
0.0016536722
0.001412756
0.0012211965
0.0010539587
0.00090650196
0.00083541977
0.00078414643
0.00073029868
0.00066882002
0.00059998067
0.00052550157
0.00044733573
0.00036707882
0.00028579963
0.00020411818
0.00012233179
4.0558231e-05
0.0031867309
0.0031276494
0.0030429025
0.0029537278
0.0028648529
0.0027776005
0.0026895115
0.0026022129
0.0025128498
0.0024168807
0.0023059648
0.0021659463
0.0019747598
0.001645736
0.0013943072
0.0012009925
0.0010312908
0.00088370178
0.00081952046
0.00077907526
0.0007321931
0.00067386175
0.00060511219
0.00052936791
0.00044977517
0.00036842045
0.00028643887
0.00020434748
0.00012229723
4.0245325e-05
0.0032225258
0.0031647833
0.003074813
0.0029801777
0.0028864322
0.0027938487
0.0027021015
0.0026110383
0.0025184126
0.0024192612
0.0023066706
0.00216633
0.0019761224
0.0016495933
0.0013991318
0.0012045651
0.0010354674
0.00088885378
0.00082533048
0.00078469484
0.00073617238
0.00067589212
0.00060604706
0.00052966068
0.0004497165
0.00036821864
0.00028621711
0.00020416161
0.00012215693
4.0128142e-05
0.0031867309
0.0031276494
0.0030429025
0.0029537278
0.0028648529
0.0027776005
0.0026895115
0.0026022129
0.0025128498
0.0024168807
0.0023059648
0.0021659463
0.00197476
0.0016457364
0.0013943073
0.0012009926
0.001031291
0.00088370209
0.0008195209
0.0007790758
0.00073219354
0.00067386205
0.00060511237
0.000529368
0.00044977519
0.00036842043
0.00028643885
0.00020434746
0.00012229723
4.0245358e-05
0.0034261345
0.0032065071
0.0030809668
0.0029807073
0.0028833861
0.0027890446
0.0026971273
0.0026062092
0.0025128362
0.0024122532
0.0022970816
0.0021539028
0.0019666244
0.0016536725
0.0014127562
0.0012211967
0.001053959
0.00090650242
0.00083542037
0.0007841471
0.00073029928
0.00066882047
0.00059998095
0.0005255017
0.00044733575
0.00036707878
0.00028579958
0.00020411815
0.00012233181
4.0558304e-05
0.0034362767
0.003207128
0.003074376
0.0029671789
0.0028628546
0.0027613934
0.0026625597
0.0025619764
0.0024547699
0.002336178
0.0022002508
0.0020390879
0.0018454458
0.001610422
0.0014203189
0.0012650495
0.0011249975
0.00099875974
0.00089856985
0.00081576514
0.00073924383
0.00066400868
0.00058849496
0.00051214918
0.00043484778
0.00035667544
0.00027779573
0.0001984053
0.00011863996
3.8718433e-05
0.0031976358
0.003129598
0.0030368055
0.0029402475
0.0028435044
0.0027471309
0.0026531398
0.0025566157
0.0024528741
0.0023377176
0.0022047865
0.0020451309
0.0018488958
0.0016054585
0.0014108004
0.0012548483
0.0011186409
0.00099382295
0.00089475913
0.00081407972
0.00073926756
0.00066465926
0.00058888707
0.00051204707
0.00043436159
0.00035600192
0.0002771019
0.00019773209
0.00011792628
3.7794878e-05
0.0032326124
0.0031659391
0.0030679383
0.0029660529
0.0028648506
0.0027647549
0.0026656568
0.0025651837
0.002458126
0.0023401379
0.0022052126
0.0020444695
0.0018480493
0.0016056156
0.00141325
0.0012597324
0.0011232714
0.00099837343
0.00089912386
0.00081798079
0.00074216986
0.00066637123
0.00058974682
0.00051239525
0.00043444015
0.00035595607
0.00027699749
0.00019761715
0.00011780888
3.7625144e-05
0.0031976358
0.003129598
0.0030368055
0.0029402476
0.0028435044
0.0027471309
0.0026531398
0.0025566157
0.0024528741
0.0023377177
0.0022047865
0.002045131
0.0018488959
0.0016054587
0.0014108006
0.0012548484
0.001118641
0.00099382307
0.00089475929
0.00081407991
0.00073926773
0.00066465939
0.00058888714
0.00051204707
0.00043436156
0.00035600186
0.00027710185
0.00019773205
0.00011792626
3.779492e-05
0.0034362767
0.003207128
0.003074376
0.0029671789
0.0028628546
0.0027613935
0.0026625597
0.0025619764
0.0024547699
0.0023361781
0.0022002509
0.0020390881
0.0018454459
0.0016104222
0.0014203191
0.0012650497
0.0011249977
0.00099875994
0.0008985701
0.00081576542
0.0007392441
0.0006640089
0.00058849508
0.0005121492
0.00043484774
0.00035667537
0.00027779566
0.00019840526
0.00011863998
3.8718513e-05
0.0036446154
0.0032967707
0.0031330114
0.0030050498
0.0028852025
0.0027722782
0.002663633
0.0025550723
0.0024429161
0.0023230461
0.0021913756
0.0020440749
0.0018784135
0.0016933029
0.0015094608
0.0013381841
0.0011847791
0.0010507705
0.00093728921
0.00084025333
0.00075305506
0.00067086901
0.00059102169
0.00051210904
0.00043342334
0.00035467
0.00027575592
0.0001966853
0.00011748933
3.8312001e-05
0.003401359
0.0032130752
0.0030794423
0.0029683494
0.0028610281
0.0027561844
0.0026528768
0.0025478981
0.0024389021
0.0023219511
0.0021930444
0.0020480035
0.0018834442
0.0016974756
0.0015115288
0.0013385049
0.0011823739
0.0010473877
0.00093383594
0.00083738906
0.00075093701
0.00066917401
0.00058940889
0.00051047813
0.00043184492
0.00035322853
0.00027449537
0.00019561036
0.00011653243
3.736961e-05
0.0034379681
0.0032503484
0.0031111359
0.0029946095
0.002882246
0.0027725227
0.00266465
0.0025557223
0.0024436407
0.0023243659
0.0021937167
0.0020480161
0.0018837612
0.001698844
0.0015140894
0.0013418621
0.0011864622
0.0010515968
0.00093786338
0.000840919
0.00075370477
0.00067111457
0.0005906552
0.00051120311
0.00043221752
0.00035337957
0.00027453836
0.00019560508
0.0001164935
3.725262e-05
0.003401359
0.0032130752
0.0030794423
0.0029683494
0.0028610281
0.0027561845
0.0026528768
0.0025478981
0.0024389021
0.0023219512
0.0021930445
0.0020480036
0.0018834442
0.0016974756
0.0015115288
0.0013385049
0.001182374
0.0010473877
0.00093383602
0.00083738915
0.00075093709
0.00066917407
0.00058940889
0.00051047796
0.00043184486
0.00035322849
0.00027449533
0.00019561033
0.00011653243
3.7369659e-05
0.0036446154
0.0032967707
0.0031330114
0.0030050498
0.0028852026
0.0027722782
0.002663633
0.0025550723
0.0024429161
0.0023230461
0.0021913756
0.002044075
0.0018784136
0.001693303
0.0015094609
0.0013381842
0.0011847792
0.0010507706
0.00093728937
0.0008402535
0.00075305522
0.00067086912
0.0005910217
0.00051210894
0.00043342325
0.00035466995
0.0002757559
0.00019668531
0.00011748936
3.8312083e-05
)
;

boundaryField
{
    minX
    {
        type            zeroGradient;
    }
    maxX
    {
        type            fixedValue;
        value           uniform 0;
    }
    minY
    {
        type            fixedFluxPressure;
        gradient        uniform 0;
        value           nonuniform List<scalar> 
292
(
0.0036446154
0.0034362767
0.0034261345
0.0033872469
0.0033864185
0.0033864185
0.0033872469
0.0034261345
0.0034362767
0.0036446154
0.0032967707
0.0032071281
0.0032065071
0.0031758597
0.0031768255
0.0031768255
0.0031758597
0.0032065071
0.003207128
0.0032967707
0.0031330114
0.003074376
0.0030809668
0.0030594582
0.0030637184
0.0030637184
0.0030594581
0.0030809668
0.003074376
0.0031330114
0.0030050499
0.002967179
0.0029807073
0.0029677454
0.0029763175
0.0029763175
0.0029677454
0.0029807073
0.0029671789
0.0030050498
0.0028852026
0.0028628546
0.0028833861
0.0028790099
0.0028934637
0.0028934637
0.0028790099
0.0028833861
0.0028628546
0.0028852025
0.0027722782
0.0027613935
0.0027890446
0.0027938896
0.0028168248
0.0028168248
0.0027938895
0.0027890446
0.0027613934
0.0027722782
0.002663633
0.0026625597
0.0026971273
0.0027127958
0.0027493356
0.0027493356
0.0027127957
0.0026971273
0.0026625597
0.002663633
0.0025550723
0.0025619765
0.0026062092
0.00263382
0.0026931246
0.0026931246
0.00263382
0.0026062092
0.0025619764
0.0025550723
0.0024429162
0.00245477
0.0025128363
0.0025535196
0.0026519231
0.0026519232
0.0025535196
0.0025128362
0.0024547699
0.0024429161
0.0023230462
0.0023361782
0.0024122532
0.0024653454
0.0026323195
0.0026323195
0.0024653454
0.0024122531
0.002336178
0.0023230461
0.0021913757
0.0022002509
0.0022970816
0.002354226
0.0026438848
0.0026438849
0.002354226
0.0022970815
0.0022002508
0.0021913756
0.002044075
0.002039088
0.0021539027
0.0021731588
0.0026888691
0.0026888692
0.0021731588
0.0021539027
0.0020390879
0.0020440749
0.0018784136
0.0018454458
0.0019666242
0.0018161972
0.0028084613
0.0028084614
0.0018161972
0.0019666242
0.0018454458
0.0018784135
0.0016933029
0.001610422
0.0016536723
0.0010419099
0.00104191
0.0016536722
0.001610422
0.0016933029
0.0015094608
0.0014203189
0.001412756
0.0011197965
0.0011197966
0.001412756
0.0014203189
0.0015094608
0.0013381841
0.0012650495
0.0012211965
0.0010258693
0.0010258693
0.0012211965
0.0012650495
0.0013381841
0.0011847791
0.0011249975
0.0010539587
0.0008824339
0.00088243385
0.0010539587
0.0011249975
0.0011847791
0.0010507705
0.00099875975
0.00090650205
0.0006687978
0.00030110591
0.0003011055
0.00066879776
0.00090650196
0.00099875974
0.0010507705
0.00093728924
0.00089856988
0.00083541992
0.00071484158
0.00062869566
0.00062869516
0.0007148414
0.00083541977
0.00089856985
0.00093728921
0.00084025337
0.00081576519
0.0007841466
0.0007177383
0.00066404684
0.00066404619
0.00071773805
0.00078414643
0.00081576514
0.00084025333
0.00075305511
0.00073924389
0.00073029884
0.00069593587
0.00070725999
0.00070725962
0.00069593566
0.00073029868
0.00073924383
0.00075305506
0.00067086906
0.00066400873
0.00066882017
0.00065261628
0.00068362217
0.00068362195
0.00065261613
0.00066882002
0.00066400868
0.00067086901
0.00059102174
0.00058849499
0.00059998079
0.00059365683
0.00062502109
0.00062502096
0.00059365672
0.00059998067
0.00058849496
0.00059102169
0.00051210909
0.0005121492
0.00052550165
0.00052438302
0.00055046074
0.00055046066
0.00052438295
0.00052550157
0.00051214918
0.00051210904
0.00043342338
0.00043484777
0.00044733578
0.00044874531
0.00046848696
0.0004684869
0.00044874528
0.00044733573
0.00043484778
0.00043342334
0.00035467005
0.00035667542
0.00036707886
0.00036951889
0.00038360023
0.00038360018
0.00036951889
0.00036707882
0.00035667544
0.00035467
0.00027575599
0.00027779572
0.00028579968
0.00028844779
0.00029806725
0.00029806721
0.00028844778
0.00028579963
0.00027779573
0.00027575592
0.0001966854
0.00019840533
0.00020411826
0.00020652646
0.00021285854
0.0002128585
0.00020652644
0.00020411818
0.0001984053
0.0001966853
0.00011748947
0.00011864006
0.00012233192
0.00012428307
0.00012829285
0.00012829281
0.00012428302
0.00012233179
0.00011863996
0.00011748933
3.8312205e-05
3.871862e-05
4.0558408e-05
4.1925999e-05
4.4245771e-05
4.4245726e-05
4.1925915e-05
4.0558231e-05
3.8718433e-05
3.8312001e-05
)
;
    }
    minZ
    {
        type            fixedFluxPressure;
        gradient        uniform 0;
        value           nonuniform List<scalar> 
150
(
0.0036446154
0.003401359
0.0034379681
0.003401359
0.0036446154
0.0032967707
0.0032130752
0.0032503484
0.0032130752
0.0032967707
0.0031330114
0.0030794423
0.0031111359
0.0030794423
0.0031330114
0.0030050499
0.0029683494
0.0029946095
0.0029683494
0.0030050499
0.0028852026
0.0028610281
0.0028822459
0.0028610281
0.0028852026
0.0027722782
0.0027561845
0.0027725227
0.0027561845
0.0027722782
0.002663633
0.0026528768
0.0026646501
0.0026528768
0.002663633
0.0025550723
0.0025478982
0.0025557223
0.0025478982
0.0025550723
0.0024429162
0.0024389022
0.0024436408
0.0024389022
0.0024429162
0.0023230462
0.0023219513
0.002324366
0.0023219513
0.0023230462
0.0021913757
0.0021930446
0.0021937168
0.0021930446
0.0021913757
0.002044075
0.0020480036
0.0020480161
0.0020480036
0.002044075
0.0018784136
0.0018834442
0.0018837613
0.0018834443
0.0018784137
0.0016933029
0.0016974756
0.001698844
0.0016974756
0.001693303
0.0015094608
0.0015115288
0.0015140895
0.0015115288
0.0015094609
0.0013381841
0.0013385049
0.0013418621
0.0013385049
0.0013381842
0.0011847791
0.0011823739
0.0011864622
0.001182374
0.0011847792
0.0010507705
0.0010473877
0.0010515968
0.0010473877
0.0010507706
0.00093728924
0.00093383595
0.00093786337
0.00093383601
0.00093728935
0.00084025337
0.00083738907
0.00084091898
0.00083738911
0.00084025344
0.00075305511
0.00075093703
0.00075370475
0.00075093703
0.00075305513
0.00067086906
0.00066917403
0.00067111455
0.00066917401
0.00067086902
0.00059102174
0.00058940891
0.00059065519
0.00058940885
0.00059102161
0.00051210909
0.00051047817
0.00051120314
0.00051047789
0.00051210886
0.00043342338
0.00043184495
0.00043221753
0.00043184487
0.00043342322
0.00035467005
0.00035322857
0.0003533796
0.00035322853
0.00035466997
0.00027575599
0.00027449542
0.00027453841
0.00027449541
0.00027575595
0.0001966854
0.00019561045
0.00019560517
0.00019561044
0.00019668539
0.00011748947
0.00011653258
0.00011649363
0.00011653257
0.00011748946
3.8312205e-05
3.736983e-05
3.7252799e-05
3.7369816e-05
3.8312189e-05
)
;
    }
    maxZ
    {
        type            fixedFluxPressure;
        gradient        uniform 0;
        value           nonuniform List<scalar> 
150
(
0.0036446154
0.003401359
0.0034379681
0.003401359
0.0036446154
0.0032967707
0.0032130752
0.0032503484
0.0032130752
0.0032967707
0.0031330114
0.0030794423
0.0031111359
0.0030794423
0.0031330114
0.0030050498
0.0029683494
0.0029946095
0.0029683494
0.0030050498
0.0028852025
0.0028610281
0.002882246
0.0028610281
0.0028852026
0.0027722782
0.0027561844
0.0027725227
0.0027561845
0.0027722782
0.002663633
0.0026528768
0.00266465
0.0026528768
0.002663633
0.0025550723
0.0025478981
0.0025557223
0.0025478981
0.0025550723
0.0024429161
0.0024389021
0.0024436407
0.0024389021
0.0024429161
0.0023230461
0.0023219511
0.0023243659
0.0023219512
0.0023230461
0.0021913756
0.0021930444
0.0021937167
0.0021930445
0.0021913756
0.0020440749
0.0020480035
0.0020480161
0.0020480036
0.002044075
0.0018784135
0.0018834442
0.0018837612
0.0018834442
0.0018784136
0.0016933029
0.0016974756
0.001698844
0.0016974756
0.001693303
0.0015094608
0.0015115288
0.0015140894
0.0015115288
0.0015094609
0.0013381841
0.0013385049
0.0013418621
0.0013385049
0.0013381842
0.0011847791
0.0011823739
0.0011864622
0.001182374
0.0011847792
0.0010507705
0.0010473877
0.0010515968
0.0010473877
0.0010507706
0.00093728921
0.00093383594
0.00093786338
0.00093383602
0.00093728937
0.00084025333
0.00083738906
0.000840919
0.00083738915
0.0008402535
0.00075305506
0.00075093701
0.00075370477
0.00075093709
0.00075305522
0.00067086901
0.00066917401
0.00067111457
0.00066917407
0.00067086912
0.00059102169
0.00058940889
0.0005906552
0.00058940889
0.0005910217
0.00051210904
0.00051047813
0.00051120311
0.00051047796
0.00051210894
0.00043342334
0.00043184492
0.00043221752
0.00043184486
0.00043342325
0.00035467
0.00035322853
0.00035337957
0.00035322849
0.00035466995
0.00027575592
0.00027449537
0.00027453836
0.00027449533
0.0002757559
0.0001966853
0.00019561036
0.00019560508
0.00019561033
0.00019668531
0.00011748933
0.00011653243
0.0001164935
0.00011653243
0.00011748936
3.8312001e-05
3.736961e-05
3.725262e-05
3.7369659e-05
3.8312083e-05
)
;
    }
    bottomWater_to_rightSolid
    {
        type            fixedFluxPressure;
        gradient        uniform 0;
        value           nonuniform List<scalar> 
130
(
0.0010507706
0.00093728935
0.00084025344
0.00075305513
0.00067086902
0.00059102161
0.00051210886
0.00043342322
0.00035466997
0.00027575595
0.00019668539
0.00011748946
3.8312189e-05
0.00099875994
0.00089857007
0.00081576533
0.00073924397
0.00066400875
0.00058849494
0.0005121491
0.00043484768
0.00035667536
0.00027779569
0.00019840532
0.00011864005
3.8718598e-05
0.00090650248
0.00083542038
0.00078414702
0.00073029915
0.00066882034
0.00059998085
0.00052550164
0.00044733576
0.00036707883
0.00028579966
0.00020411825
0.00012233191
4.0558383e-05
0.00066879898
0.00071484284
0.00071773958
0.0006959368
0.00065261685
0.00059365713
0.00052438317
0.00044874538
0.00036951892
0.00028844779
0.00020652647
0.00012428307
4.1925986e-05
0.0003011083
0.00062869803
0.0006640499
0.00070726194
0.00068362329
0.0006250217
0.00055046106
0.00046848711
0.00038360029
0.00029806727
0.00021285855
0.00012829286
4.4245765e-05
0.00030110757