/*--------------------------------*- C++ -*----------------------------------*\
| =========                 |                                                 |
| \\      /  F ield         | OpenFOAM: The Open Source CFD Toolbox           |
|  \\    /   O peration     | Version:  2412                                  |
|   \\  /    A nd           | Website:  www.openfoam.com                      |
|    \\/     M anipulation  |                                                 |
\*---------------------------------------------------------------------------*/
FoamFile
{
    version     2.0;
    format      ascii;
    arch        "LSB;label=32;scalar=64";
    class       surfaceScalarField;
    location    "20/bottomWater";
    object      phi;
}
// * * * * * * * * * * * * * * * * * * * * * * * * * * * * * * * * * * * * * //

dimensions      [1 0 -1 0 0 0 0];

oriented        oriented;

internalField   nonuniform List<scalar> 
3858
(
7.3440328e-05
4.0490326e-06
2.5106391e-06
6.6636282e-05
3.9730176e-06
2.8310287e-06
6.0975383e-05
3.1953275e-06
2.4655718e-06
5.6884954e-05
2.286325e-06
1.8041032e-06
5.4340946e-05
1.4758263e-06
1.0681819e-06
5.3084618e-05
8.8379005e-07
3.7253808e-07
5.2827939e-05
5.0721727e-07
-2.505377e-07
5.3366956e-05
2.8632726e-07
-8.2534511e-07
5.4615267e-05
1.5267263e-07
-1.4009836e-06
5.6543222e-05
6.2348594e-08
-1.990303e-06
5.9119756e-05
-1.0575397e-08
-2.5659584e-06
6.2186703e-05
-7.7772642e-08
-2.9891746e-06
6.5262827e-05
-1.3803087e-07
-2.9380934e-06
6.7012782e-05
-1.6192778e-07
-1.5880268e-06
6.7412673e-05
-1.5813265e-07
-2.4175865e-07
6.664719e-05
-1.3962193e-07
9.0510478e-07
6.4928342e-05
-1.0251156e-07
1.8213597e-06
6.2395529e-05
-7.2281772e-08
2.605095e-06
5.9541925e-05
-5.7109097e-08
2.9107131e-06
5.6821927e-05
-5.3620623e-08
2.7736185e-06
5.4494159e-05
-5.1227137e-08
2.3789955e-06
5.264505e-05
-4.1049622e-08
1.8901583e-06
5.1253373e-05
-2.3481789e-08
1.4151584e-06
5.024691e-05
-5.2692365e-09
1.0117329e-06
4.9538849e-05
9.9022648e-09
6.9815825e-07
4.9050688e-05
1.8842329e-08
4.6931911e-07
4.8718495e-05
2.2165545e-08
3.1002682e-07
4.8493054e-05
2.2116912e-08
2.0332476e-07
4.8337468e-05
2.0748706e-08
1.3483655e-07
2.3190967e-08
9.8128783e-08
7.9686201e-05
1.6045698e-06
2.7582617e-06
7.8668019e-05
1.6706146e-06
3.3205856e-06
7.7498561e-05
1.3733367e-06
2.9914486e-06
7.6467812e-05
9.7585738e-07
2.3412164e-06
7.5789029e-05
6.0454536e-07
1.5500642e-06
7.5610046e-05
3.3174833e-07
7.3102402e-07
7.602635e-05
1.636619e-07
-7.274853e-08
7.7061892e-05
7.2573326e-08
-8.2178766e-07
7.8777317e-05
2.4091012e-08
-1.5868435e-06
8.1232232e-05
-5.7469816e-09
-2.3868193e-06
8.4460538e-05
-2.9990236e-08
-3.2088908e-06
8.8360631e-05
-5.1999005e-08
-3.9258671e-06
9.24489e-05
-7.1904753e-08
-4.154395e-06
9.5237466e-05
-8.1843617e-08
-2.8686505e-06
9.6466335e-05
-7.9532734e-08
-1.3074684e-06
9.6322488e-05
-7.0302022e-08
7.4526673e-08
9.4882297e-05
-5.1446492e-08
1.389126e-06
9.2301802e-05
-3.5178903e-08
2.5433923e-06
8.9016235e-05
-2.6371953e-08
3.2548294e-06
8.5547766e-05
-2.4451334e-08
3.4393003e-06
8.2287888e-05
-2.3925597e-08
3.2325759e-06
7.9467915e-05
-1.9437451e-08
2.7983614e-06
7.7181768e-05
-1.0685661e-08
2.273351e-06
7.5422072e-05
-3.9555184e-10
1.7548222e-06
7.4125677e-05
6.0332215e-09
1.3002639e-06
7.3201753e-05
1.0083286e-08
9.326825e-07
7.2559797e-05
1.1582248e-08
6.5253964e-07
7.2121462e-05
1.1475083e-08
4.4897667e-07
7.182404e-05
1.1036117e-08
3.0713482e-07
1.1776646e-08
2.1992282e-07
8.0441864e-05
-1.6045676e-06
2.7672731e-06
8.0431185e-05
-1.6706078e-06
3.3519019e-06
8.0136303e-05
-1.3733269e-06
3.0415458e-06
7.9683508e-05
-9.7584879e-07
2.4045008e-06
7.9279073e-05
-6.0454104e-07
1.6135215e-06
7.9159863e-05
-3.3174812e-07
7.8270661e-07
7.9527394e-05
-1.6366369e-07
-4.0205952e-08
8.0476935e-05
-7.2574958e-08
-8.0439258e-07
8.2108352e-05
-2.4091287e-08
-1.5832344e-06
8.4491501e-05
5.7487622e-09
-2.3946451e-06
8.7664979e-05
2.9993571e-08
-3.2334617e-06
9.1538294e-05
5.2003735e-08
-3.9773171e-06
9.5643673e-05
7.1910506e-08
-4.2491949e-06
9.8508475e-05
8.1849967e-08
-3.0284951e-06
9.9848921e-05
7.9538982e-08
-1.4995179e-06
9.9823699e-05
7.0307222e-08
-1.1538742e-07
9.8497051e-05
5.1449551e-08
1.2237526e-06
9.6003828e-05
3.517941e-08
2.4228644e-06
9.2759875e-05
2.6370822e-08
3.1912104e-06
8.9272904e-05
2.4450828e-08
3.4380688e-06
8.5934679e-05
2.3928102e-08
3.2903712e-06
8.2995236e-05
1.9443545e-08
2.9005614e-06
8.0577256e-05
1.0694109e-08
2.3966006e-06
7.8698314e-05
4.0854757e-10
1.878138e-06
7.7300953e-05
-6.0258897e-09
1.4094196e-06
7.6299386e-05
-1.0077013e-08
1.0217276e-06
7.5601223e-05
-1.1577656e-08
7.2132345e-07
7.5124167e-05
-1.1472722e-08
5.0000373e-07
7.4802537e-05
-1.1036849e-08
3.4370217e-07
-1.1780892e-08
2.4555384e-07
7.9686202e-05
-4.0490313e-06
2.7582616e-06
7.8668023e-05
-3.9730137e-06
3.3205855e-06
7.7498569e-05
-3.1953218e-06
2.9914485e-06
7.6467824e-05
-2.28632e-06
2.3412167e-06
7.5789042e-05
-1.4758239e-06
1.5500648e-06
7.5610058e-05
-8.8378989e-07
7.3102502e-07
7.602636e-05
-5.0721816e-07
-7.2747338e-08
7.7061899e-05
-2.8632801e-07
-8.2178615e-07
7.8777322e-05
-1.5267253e-07
-1.5868417e-06
8.1232236e-05
-6.2347292e-08
-2.3868173e-06
8.446054e-05
1.0578077e-08
-3.2088889e-06
8.8360633e-05
7.777646e-08
-3.9258655e-06
9.2448902e-05
1.3803557e-07
-4.1543937e-06
9.5237468e-05
1.6193287e-07
-2.8686494e-06
9.6466337e-05
1.5813737e-07
-1.3074674e-06
9.6322491e-05
1.396254e-07
7.4528082e-08
9.48823e-05
1.0251275e-07
1.3891278e-06
9.2301804e-05
7.228038e-08
2.5433945e-06
8.9016237e-05
5.7105914e-08
3.2548326e-06
8.5547765e-05
5.3617588e-08
3.4393046e-06
8.2287886e-05
5.1226447e-08
3.2325814e-06
7.946791e-05
4.1052136e-08
2.7983669e-06
7.7181762e-05
2.3486654e-08
2.2733559e-06
7.5422069e-05
5.2745113e-09
1.7548268e-06
7.4125673e-05
-9.8969984e-09
1.3002672e-06
7.3201749e-05
-1.8838235e-08
9.3268521e-07
7.2559792e-05
-2.2162403e-08
6.5254197e-07
7.2121455e-05
-2.2114925e-08
4.4897853e-07
7.1824031e-05
-2.0748539e-08
3.071362e-07
-2.3193355e-08
2.1992395e-07
7.344033e-05
2.5106391e-06
6.6636287e-05
2.8310287e-06
6.0975393e-05
2.465572e-06
5.6884969e-05
1.8041039e-06
5.4340962e-05
1.068183e-06
5.3084633e-05
3.7253963e-07
5.2827951e-05
-2.505359e-07
5.3366966e-05
-8.2534298e-07
5.4615274e-05
-1.4009811e-06
5.6543227e-05
-1.9903003e-06
5.9119761e-05
-2.5659557e-06
6.2186709e-05
-2.9891718e-06
6.5262836e-05
-2.9380908e-06
6.7012793e-05
-1.5880245e-06
6.7412687e-05
-2.4175645e-07
6.6647205e-05
9.0510752e-07
6.4928355e-05
1.821363e-06
6.2395536e-05
2.6050986e-06
5.9541925e-05
2.910717e-06
5.682192e-05
2.7736227e-06
5.4494147e-05
2.3789997e-06
5.2645037e-05
1.8901626e-06
5.125336e-05
1.4151628e-06
5.0246897e-05
1.0117374e-06
4.9538838e-05
6.9816274e-07
4.9050676e-05
4.6932326e-07
4.8718483e-05
3.1003032e-07
4.8493041e-05
2.0332741e-07
4.8337454e-05
1.3483839e-07
9.8130163e-08
7.6755445e-05
4.2824422e-06
1.4727517e-06
7.3269216e-05
4.4052343e-06
1.9120235e-06
7.0425505e-05
3.5638956e-06
1.7453874e-06
6.8370452e-05
2.6413888e-06
1.2177668e-06
6.7119169e-05
1.7989509e-06
5.2051465e-07
6.6606238e-05
1.1338611e-06
-2.4839222e-07
6.6785649e-05
6.6175832e-07
-1.0917072e-06
6.7632478e-05
3.4879672e-07
-2.0209708e-06
6.9207002e-05
1.4422504e-07
-3.1197323e-06
7.1671409e-05
-1.2092649e-09
-4.4535008e-06
7.5253613e-05
-1.167319e-07
-6.0314302e-06
8.0057437e-05
-1.9678417e-07
-7.5962145e-06
8.5427172e-05
-2.0175384e-07
-8.1060748e-06
8.727271e-05
-1.2257355e-08
-3.4213073e-06
8.7252964e-05
1.4671149e-07
-3.6872409e-07
8.6185145e-05
2.2882202e-07
1.7441021e-06
8.4128492e-05
2.1893134e-07
3.6590809e-06
8.0701089e-05
1.9984323e-07
5.8326547e-06
7.6939751e-05
1.546211e-07
6.5174302e-06
7.3467472e-05
8.1157131e-08
6.1647404e-06
7.0594049e-05
9.8689484e-09
5.2425491e-06
6.8394719e-05
-3.0455946e-08
4.1199451e-06
6.6801796e-05
-3.996104e-08
3.0480416e-06
6.5686184e-05
-2.9283367e-08
2.1566287e-06
6.4919454e-05
-1.4122559e-08
1.4790107e-06
6.4397058e-05
-1.7444994e-09
9.9346004e-07
6.404168e-05
6.7984659e-09
6.5860638e-07
6.3800086e-05
1.1430642e-08
4.3348759e-07
6.3635259e-05
1.4195893e-08
2.8546763e-07
2.0713559e-08
1.9714435e-07
8.3673338e-05
1.7174866e-06
1.6498796e-06
8.7281373e-05
1.8622348e-06
2.2555503e-06
9.0166265e-05
1.5330316e-06
2.1374204e-06
9.2402721e-05
1.1282639e-06
1.6178849e-06
9.4142079e-05
7.4573749e-07
8.6391968e-07
9.5570496e-05
4.4178792e-07
-5.3191584e-09
9.697602e-05
2.3262722e-07
-1.0491422e-06
9.8609633e-05
1.0106297e-07
-2.2076665e-06
0.00010073804
2.3222132e-08
-3.5942433e-06
0.00010368891
-3.1055636e-08
-5.3078425e-06
0.00010784403
-6.8332377e-08
-7.4124156e-06
0.00011355436
-9.9121253e-08
-9.7338631e-06
0.00012040872
-9.8521308e-08
-1.1111987e-05
0.00012400684
-3.5854181e-08
-6.4431748e-06
0.00012563834
3.3939874e-08
-2.8261957e-06
0.00012565097
7.0075752e-08
2.2064148e-07
0.000124239
7.0558041e-08
2.94947e-06
0.00012093022
5.8652571e-08
5.9933683e-06
0.00011669646
4.0425264e-08
7.6027834e-06
0.00011227009
1.3065434e-08
7.9337581e-06
0.0001081333
-1.5646589e-08
7.3948892e-06
0.00010458983
-3.139198e-08
6.3427649e-06
0.00010176091
-3.1492029e-08
5.0938017e-06
9.9626923e-05
-2.2861549e-08
3.8823868e-06
9.808305e-05
-1.2183949e-08
2.8421991e-06
9.6998032e-05
-3.3569626e-09
2.0193127e-06
9.6251178e-05
2.2182177e-09
1.4039734e-06
9.5745491e-05
5.1699574e-09
9.6092489e-07
9.5409511e-05
7.0901959e-09
6.5022077e-07
9.8496332e-09
4.4671055e-07
8.4537708e-05
-1.7174838e-06
1.6645352e-06
8.9328201e-05
-1.8622267e-06
2.2858706e-06
9.3256594e-05
-1.5330201e-06
2.1792045e-06
9.6247772e-05
-1.1282541e-06
1.6698413e-06
9.8433998e-05
-7.4573325e-07
9.1876594e-07
0.00010005985
-4.4178969e-07
4.0427293e-08
0.00010149501
-2.3263296e-07
-1.010098e-06
0.00010307372
-1.0106993e-07
-2.1809716e-06
0.00010511477
-2.3228245e-08
-3.577834e-06
0.00010796129
3.1050296e-08
-5.3032706e-06
0.00011202241
6.8329043e-08
-7.4312419e-06
0.00011765142
9.9119146e-08
-9.8045668e-06
0.00012448528
9.8519727e-08
-1.1280104e-05
0.00012821016
3.5852036e-08
-6.8250722e-06
0.00013010409
-3.394371e-08
-3.32557e-06
0.00013039494
-7.0083503e-08
-2.6607985e-07
0.00012920034
-7.0571491e-08
2.5594846e-06
0.0001260412
-5.8672503e-08
5.6993267e-06
0.00012187012
-4.0450197e-08
7.443174e-06
0.00011741241
-1.309076e-08
7.9219256e-06
0.00011315092
1.5620026e-08
7.5206001e-06
0.00010941947
3.1374181e-08
6.5692427e-06
0.00010638903
3.1481689e-08
5.3640656e-06
0.00010407345
2.2856482e-08
4.1479995e-06
0.00010238495
1.2181797e-08
3.0735558e-06
0.00010119484
3.3557801e-09
2.2051273e-06
0.00010037556
-2.2194144e-09
1.5450418e-06
9.9822075e-05
-5.1721698e-09
1.0638296e-06
9.9457077e-05
-7.0946274e-09
7.2288478e-07
-9.8572296e-09
4.9664646e-07
8.3673339e-05
-4.2824406e-06
1.6498795e-06
8.7281377e-05
-4.4052298e-06
2.2555501e-06
9.0166275e-05
-3.5638891e-06
2.1374203e-06
9.2402736e-05
-2.6413833e-06
1.617885e-06
9.4142095e-05
-1.7989486e-06
8.6392024e-07
9.5570511e-05
-1.1338622e-06
-5.3177742e-09
9.6976033e-05
-6.6176154e-07
-1.0491409e-06
9.8609642e-05
-3.4880059e-07
-2.2076649e-06
0.00010073804
-1.4422852e-07
-3.5942414e-06
0.00010368891
1.2066023e-09
-5.3078408e-06
0.00010784403
1.1673066e-07
-7.4124141e-06
0.00011355436
1.9678405e-07
-9.733862e-06
0.00012040872
2.0175437e-07
-1.1111987e-05
0.00012400684
1.2257918e-08
-6.4431745e-06
0.00012563834
-1.4671171e-07
-2.8261961e-06
0.00012565097
-2.2882453e-07
2.2064072e-07
0.00012423899
-2.1893784e-07
2.9494686e-06
0.00012093021
-1.9985482e-07
5.9933644e-06
0.00011669645
-1.5463735e-07
7.6027779e-06
0.00011227008
-8.117559e-08
7.9337522e-06
0.00010813329
-9.8863051e-09
7.3948838e-06
0.00010458982
3.0444502e-08
6.3427618e-06
0.0001017609
3.9955522e-08
5.0938006e-06
9.9626919e-05
2.9281781e-08
3.8823872e-06
9.8083045e-05
1.4122455e-08
2.8422004e-06
9.6998027e-05
1.7446862e-09
2.0193145e-06
9.6251172e-05
-6.7983453e-09
1.4039754e-06
9.5745483e-05
-1.1431001e-08
9.6092679e-07
9.5409499e-05
-1.4197566e-08
6.5022245e-07
-2.0717699e-08
4.4671207e-07
7.6755447e-05
1.4727516e-06
7.3269223e-05
1.9120233e-06
7.0425518e-05
1.7453873e-06
6.8370472e-05
1.2177671e-06
6.7119191e-05
5.205156e-07
6.6606259e-05
-2.4839066e-07
6.6785666e-05
-1.0917053e-06
6.7632492e-05
-2.0209687e-06
6.9207012e-05
-3.1197299e-06
7.1671416e-05
-4.4534982e-06
7.5253619e-05
-6.0314274e-06
8.0057443e-05
-7.5962117e-06
8.5427179e-05
-8.1060724e-06
8.7272718e-05
-3.4213058e-06
8.7252973e-05
-3.6872355e-07
8.6185154e-05
1.7441016e-06
8.4128501e-05
3.6590791e-06
8.0701095e-05
5.832649e-06
7.6939752e-05
6.5174226e-06
7.3467467e-05
6.1647328e-06
7.0594037e-05
5.2425429e-06
6.8394702e-05
4.1199419e-06
6.6801779e-05
3.0480414e-06
6.5686168e-05
2.1566309e-06
6.4919438e-05
1.4790143e-06
6.4397042e-05
9.9346417e-07
6.4041664e-05
6.5861032e-07
6.3800069e-05
4.3349087e-07
6.363524e-05
2.8547017e-07
1.9714632e-07
7.6550095e-05
4.2907998e-06
6.3185701e-07
7.308484e-05
4.4372325e-06
9.4004556e-07
7.035291e-05
3.5899467e-06
8.8737119e-07
6.8358241e-05
2.6557343e-06
5.5670105e-07
6.7061116e-05
1.7975684e-06
2.0071591e-08
6.6326543e-05
1.1076598e-06
-6.2147889e-07
6.6060295e-05
6.2384009e-07
-1.4492998e-06
6.6277441e-05
2.994589e-07
-2.5375755e-06
6.7118772e-05
6.8964501e-08
-4.0300277e-06
6.8923551e-05
-1.2280055e-07
-6.1354793e-06
7.2338886e-05
-3.1276571e-07
-9.1339991e-06
7.8341095e-05
-4.87035e-07
-1.3111389e-05
8.7540608e-05
-4.9985773e-07
-1.680573e-05
9.1136679e-05
1.8135802e-08
-7.0355143e-06
9.2264379e-05
3.9356674e-07
-1.8899911e-06
9.1957731e-05
5.6313981e-07
1.4876103e-06
9.0085918e-05
6.4742753e-07
4.8834665e-06
8.4577481e-05
7.1040472e-07
1.0630687e-05
7.9130736e-05
5.678382e-07
1.1396337e-05
7.4411456e-05
2.8863768e-07
1.0595383e-05
7.0842337e-05
2.4412922e-08
8.7872547e-06
6.8403094e-05
-1.3786861e-07
6.6970576e-06
6.6851263e-05
-1.8902643e-07
4.7888982e-06
6.5916658e-05
-1.6782986e-07
3.2590635e-06
6.5375155e-05
-1.1965418e-07
2.1401685e-06
6.506816e-05
-7.3223187e-08
1.3736782e-06
6.4895213e-05
-3.9266348e-08
8.7081985e-07
6.4797628e-05
-1.7939408e-08
5.490114e-07
6.4742848e-05
-5.5031103e-09
3.4575094e-07
2.8614943e-09
2.2552481e-07
8.3507255e-05
1.7211854e-06
7.1223932e-07
8.7213087e-05
1.8772438e-06
1.1097068e-06
9.0292101e-05
1.5450753e-06
1.103278e-06
9.2654976e-05
1.1345176e-06
7.762263e-07
9.4371694e-05
7.4482099e-07
1.9994908e-07
9.5597968e-05
4.3173554e-07
-5.5566834e-07
9.6496328e-05
2.1615661e-07
-1.5398191e-06
9.736049e-05
8.14083e-08
-2.8537778e-06
9.8513618e-05
-4.1650273e-09
-4.6742423e-06
0.00010043476
-7.9199914e-08
-7.2725838e-06
0.00010391239
-1.4642859e-07
-1.1056384e-05
0.00011025371
-2.2564186e-07
-1.6336573e-05
0.00012082289
-2.2698234e-07
-2.1954049e-05
0.00012638045
-2.5703693e-09
-1.1980024e-05
0.00012965434
1.6203516e-07
-5.8685553e-06
0.0001315708
2.4356395e-07
-1.3762441e-06
0.00013129137
2.8282727e-07
3.5935058e-06
0.0001265821
2.9498495e-07
1.1118056e-05
0.00012098069
2.3898271e-07
1.3533048e-05
0.00011526611
1.2043833e-07
1.3816541e-05
0.00011007181
5.0507488e-09
1.2608543e-05
0.00010581489
-7.4559782e-08
1.0536382e-05
0.0001026057
-9.7661538e-08
8.2116241e-06
0.00010036669
-8.7767214e-08
6.0413337e-06
9.8908192e-05
-6.3346243e-08
4.2443907e-06
9.8011292e-05
-3.9033108e-08
2.8820231e-06
9.7484381e-05
-2.0954122e-08
1.9125715e-06
9.7186224e-05
-9.5604921e-09
1.2507027e-06
9.7024998e-05
-2.9805274e-09
8.0892501e-07
1.1809137e-09
5.275347e-07
8.4385123e-05
-1.7211827e-06
7.2178035e-07
8.9296899e-05
-1.877236e-06
1.1285746e-06
9.3437279e-05
-1.5450643e-06
1.1289635e-06
9.6567536e-05
-1.1345084e-06
8.086102e-07
9.8739093e-05
-7.4481744e-07
2.3684794e-07
0.00010016403
-4.3173831e-07
-5.2103862e-07
0.00010109189
-2.1616343e-07
-1.5056364e-06
0.00010189323
-8.1416306e-08
-2.8194828e-06
0.00010294359
4.1548775e-09
-4.6365145e-06
0.00010471869
7.9193416e-08
-7.2367678e-06
0.00010802533
1.4642343e-07
-1.1030732e-05
0.00011413489
2.256374e-07
-1.6365405e-05
0.00012453863
2.2697839e-07
-2.2137803e-05
0.00013023659
2.5637285e-09
-1.2528166e-05
0.00013385107
-1.6204143e-07
-6.6159815e-06
0.00013618415
-2.4357443e-07
-2.1120163e-06
0.0001363306
-2.8284415e-07
2.9787033e-06
0.00013197274
-2.9501043e-07
1.0647187e-05
0.000126571
-2.3901556e-07
1.3322906e-05
0.00012086804
-1.2047449e-07
1.3865799e-05
0.00011550855
-5.0812486e-09
1.2890229e-05
0.00011096629
7.4531925e-08
1.0962405e-05
0.00010745272
9.7642144e-08
8.6823388e-06
0.00010494694
8.7754752e-08
6.478251e-06
0.00010328865
6.333827e-08
4.6051628e-06
0.00010225912
3.9027558e-08
3.1565967e-06
0.0001016521
2.0949707e-08
2.1101579e-06
0.00010130922
9.5561132e-09
1.3875947e-06
0.0001011251
2.9748254e-09
9.0104707e-07
-1.1895866e-09
5.8792309e-07
8.3507256e-05
-4.2907982e-06
7.1223914e-07
8.7213092e-05
-4.437228e-06
1.1097063e-06
9.029211e-05
-3.5899403e-06
1.1032775e-06
9.265499e-05
-2.655729e-06
7.7622614e-07
9.437171e-05
-1.7975664e-06
1.9994943e-07
9.5597983e-05
-1.1076613e-06
-5.5566757e-07
9.649634e-05
-6.2384396e-07
-1.5398181e-06
9.7360499e-05
-2.9946364e-07
-2.8537767e-06
9.8513624e-05
-6.8969162e-08
-4.6742414e-06
0.00010043476
1.2279697e-07
-7.272583e-06
0.00010391239
3.1276327e-07
-1.1056383e-05
0.00011025371
4.8703324e-07
-1.6336573e-05
0.00012082289
4.9985628e-07
-2.195405e-05
0.00012638044
-1.813743e-08
-1.1980025e-05
0.00012965433
-3.9356896e-07
-5.868557e-06
0.00013157079
-5.6314411e-07
-1.376247e-06
0.00013129135
-6.474356e-07
3.5935e-06
0.00012658208
-7.1041835e-07
1.1118041e-05
0.00012098067
-5.6785756e-07
1.3533028e-05
0.00011526609
-2.8866075e-07
1.3816517e-05
0.00011007181
-2.4434172e-08
1.2608522e-05
0.00010581489
1.3785126e-07
1.0536365e-05
0.0001026057
1.8901575e-07
8.2116129e-06
0.00010036669
1.6782402e-07
6.0413276e-06
9.890819e-05
1.1965086e-07
4.2443882e-06
9.8011289e-05
7.322098e-08
2.8820228e-06
9.7484377e-05
3.9264675e-08
1.9125724e-06
9.7186218e-05
1.7937785e-08
1.2507041e-06
9.7024987e-05
5.500666e-09
8.0892668e-07
-2.8662552e-09
5.275365e-07
7.6550097e-05
6.318568e-07
7.3084847e-05
9.40045e-07
7.0352923e-05
8.8737058e-07
6.8358261e-05
5.5670085e-07
6.7061138e-05
2.0072089e-08
6.6326564e-05
-6.2147797e-07
6.6060313e-05
-1.4492986e-06
6.6277455e-05
-2.5375741e-06
6.7118782e-05
-4.0300261e-06
6.8923558e-05
-6.1354774e-06
7.2338891e-05
-9.133997e-06
7.8341099e-05
-1.3111386e-05
8.7540611e-05
-1.6805729e-05
9.1136682e-05
-7.0355141e-06
9.2264383e-05
-1.8899929e-06
9.1957734e-05
1.4876057e-06
9.008592e-05
4.8834582e-06
8.4577484e-05
1.0630666e-05
7.9130737e-05
1.1396312e-05
7.4411454e-05
1.0595356e-05
7.0842331e-05
8.7872315e-06
6.8403083e-05
6.6970411e-06
6.6851251e-05
4.7888892e-06
6.5916645e-05
3.2590606e-06
6.5375141e-05
2.1401695e-06
6.5068145e-05
1.3736811e-06
6.4895197e-05
8.7082332e-07
6.4797611e-05
5.4901456e-07
6.4742828e-05
3.4575349e-07
2.2552696e-07
7.6093605e-05
4.2975883e-06
2.4066321e-07
7.2210582e-05
4.4553685e-06
3.6770058e-07
6.9180959e-05
3.595612e-06
3.2138208e-07
6.6967871e-05
2.6443366e-06
1.2545206e-07
6.542432e-05
1.7771108e-06
-2.1348757e-07
6.4417722e-05
1.0884935e-06
-7.0337464e-07
6.3774069e-05
5.9395872e-07
-1.3996056e-06
6.3430701e-05
2.4224685e-07
-2.4364536e-06
6.3507118e-05
-4.6832181e-08
-4.0596129e-06
6.4431116e-05
-3.4891417e-07
-6.7105629e-06
6.7210168e-05
-7.1837069e-07
-1.119468e-05
7.3745328e-05
-1.0750998e-06
-1.8571449e-05
8.4161879e-05
-5.2401483e-07
-2.6698266e-05
7.4530884e-05
2.5954814e-06
6.9878206e-05
2.7626867e-06
6.9092094e-05
2.273722e-06
7.1900691e-05
2.0748694e-06
6.6594614e-05
2.3377274e-06
1.3599036e-05
6.350877e-05
1.6481952e-06
1.2833986e-05
6.176245e-05
8.1390216e-07
1.1527801e-05
6.1555201e-05
1.8053487e-07
8.8139684e-06
6.2042716e-05
-1.603473e-07
6.3698897e-06
6.2723521e-05
-2.7320361e-07
4.3812969e-06
6.3345264e-05
-2.5304513e-07
2.8903661e-06
6.382384e-05
-1.8656225e-07
1.8481545e-06
6.4159627e-05
-1.2080556e-07
1.1586971e-06
6.4382919e-05
-7.2029985e-08
7.19558e-07
6.4527632e-05
-4.107774e-08
4.4537616e-07
6.4622067e-05
-2.3738509e-08
2.7505401e-07
-1.7560842e-08
1.7459506e-07
8.301407e-05
1.7226583e-06
2.730994e-07
8.6257739e-05
1.8850793e-06
4.363268e-07
8.8999252e-05
1.5480763e-06
4.0930073e-07
9.1080743e-05
1.1302045e-06
2.0886772e-07
9.2477579e-05
7.3613617e-07
-1.5591231e-07
9.3299329e-05
4.2243584e-07
-7.1136137e-07
9.3665072e-05
2.0332335e-07
-1.5149267e-06
9.3717538e-05
5.7979998e-08
-2.721976e-06
9.3676191e-05
-5.8688122e-08
-4.6210395e-06
9.3977526e-05
-1.7182841e-07
-7.7510052e-06
9.5695039e-05
-3.2707143e-07
-1.3165196e-05
0.00010128166
-5.131536e-07
-2.2485138e-05
0.00011334183
-3.633509e-07
-3.4174881e-05
0.00010287328
1.084001e-06
9.8430752e-05
1.3366609e-06
9.8217882e-05
1.1103485e-06
0.00010292578
9.6047867e-07
9.9038633e-05
1.0354744e-06
1.6307454e-05
9.7141647e-05
7.6705945e-07
1.631117e-05
9.5598217e-05
3.8752981e-07
1.5786343e-05
9.5024711e-05
8.9648793e-08
1.3272935e-05
9.4994503e-05
-8.3516984e-08
1.048976e-05
9.52145e-05
-1.4025729e-07
7.8586803e-06
9.5527183e-05
-1.3216931e-07
5.6077754e-06
9.5843697e-05
-9.8370133e-08
3.839684e-06
9.6121311e-05
-6.3612356e-08
2.5472161e-06
9.6345809e-05
-3.7423856e-08
1.6534671e-06
9.6518368e-05
-2.0820661e-08
1.0578868e-06
9.6647525e-05
-1.1846924e-08
6.6787677e-07
-8.5152367e-09
4.2137994e-07
8.3889374e-05
-1.7226558e-06
2.7772036e-07
8.8342959e-05
-1.8850721e-06
4.4514159e-07
9.2146887e-05
-1.5480659e-06
4.2117706e-07
9.4992198e-05
-1.1301955e-06
2.236997e-07
9.6839008e-05
-7.3613238e-07
-1.3769409e-07
9.785559e-05
-4.2243782e-07
-6.9274709e-07
9.8252646e-05
-2.0332913e-07
-1.49604e-06
9.8250381e-05
-5.7986945e-08
-2.7012509e-06
9.8092267e-05
5.8680995e-08
-4.5957696e-06
9.823501e-05
1.7182265e-07
-7.7231617e-06
9.9696712e-05
3.2706616e-07
-1.3146572e-05
0.00010484486
5.1314839e-07
-2.2539851e-05
0.00011650266
3.6334732e-07
-3.4522302e-05
0.0001061425
-1.084004e-06
0.00010219984
-1.3366641e-06
0.00010230853
-1.1103532e-06
0.0001072082
-9.6048842e-07
0.00010368548
-1.035498e-06
1.6240871e-05
0.00010210798
-7.6708941e-07
1.6434561e-05
0.00010061192
-3.875603e-07
1.6136946e-05
9.9897989e-05
-8.9674339e-08
1.3783484e-05
9.9636243e-05
8.3497158e-08
1.1057137e-05
9.9635858e-05
1.4024358e-07
8.4022231e-06
9.9777421e-05
1.3216e-07
6.0723584e-06
9.9983318e-05
9.8363544e-08
4.2025323e-06
0.00010020085
6.3607459e-08
2.8118436e-06
0.00010039904
3.7420133e-08
1.8371249e-06
0.00010056407
2.0817376e-08
1.1809285e-06
0.00010069354
1.1842793e-08
7.4788748e-07
8.5090324e-09
4.7156091e-07
8.3014071e-05
-4.2975869e-06
2.7309916e-07
8.6257743e-05
-4.4553643e-06
4.3632618e-07
8.8999261e-05
-3.5956059e-06
4.0929999e-07
9.1080756e-05
-2.6443314e-06
2.088673e-07
9.2477594e-05
-1.7771085e-06
-1.5591219e-07
9.3299344e-05
-1.0884945e-06
-7.1136075e-07
9.3665084e-05
-5.9396196e-07
-1.5149259e-06
9.3717546e-05
-2.4225086e-07
-2.7219751e-06
9.3676196e-05
4.6828393e-08
-4.6210388e-06
9.3977529e-05
3.4891124e-07
-7.7510046e-06
9.5695039e-05
7.1836819e-07
-1.3165195e-05
0.00010128166
1.0750972e-06
-2.2485138e-05
0.00011334182
5.2401285e-07
-3.4174881e-05
0.00010287328
-2.595483e-06
9.8430742e-05
-2.7626878e-06
9.8217865e-05
-2.2737233e-06
0.00010292575
-2.0748724e-06
9.9038611e-05
-2.337737e-06
1.6307419e-05
9.7141635e-05
-1.648209e-06
1.6311123e-05
9.5598217e-05
-8.1391777e-07
1.5786293e-05
9.5024717e-05
-1.8054931e-07
1.3272897e-05
9.499451e-05
1.6033593e-07
1.0489733e-05
9.5214506e-05
2.7319654e-07
7.8586637e-06
9.5527186e-05
2.530409e-07
5.6077667e-06
9.5843698e-05
1.8655934e-07
3.8396803e-06
9.6121309e-05
1.2080335e-07
2.5472154e-06
9.6345806e-05
7.2028401e-08
1.6534679e-06
9.6518362e-05
4.107646e-08
1.0578884e-06
9.6647516e-05
2.3736604e-08
6.6787891e-07
1.7557092e-08
4.2138249e-07
7.6093607e-05
2.4066293e-07
7.2210588e-05
3.6769979e-07
6.9180971e-05
3.2138109e-07
6.6967889e-05
1.2545145e-07
6.5424341e-05
-2.1348755e-07
6.4417742e-05
-7.0337406e-07
6.3774086e-05
-1.3996047e-06
6.3430714e-05
-2.4364526e-06
6.3507128e-05
-4.0596116e-06
6.4431123e-05
-6.7105613e-06
6.7210173e-05
-1.1194678e-05
7.3745331e-05
-1.8571447e-05
8.4161881e-05
-2.6698266e-05
7.4530884e-05
6.9878203e-05
6.9092085e-05
7.1900671e-05
6.6594605e-05
1.3598995e-05
6.3508774e-05
1.2833934e-05
6.1762459e-05
1.1527753e-05
6.1555208e-05
8.8139332e-06
6.2042717e-05
6.3698673e-06
6.2723517e-05
4.3812856e-06
6.3345256e-05
2.8903629e-06
6.3823829e-05
1.848156e-06
6.4159612e-05
1.1587009e-06
6.4382902e-05
7.1956227e-07
6.4527613e-05
4.4538006e-07
6.4622046e-05
2.7505732e-07
1.7459803e-07
7.5939154e-05
4.3015052e-06
3.5570056e-12
7.1843827e-05
4.4630173e-06
1.1242031e-11
6.8562928e-05
3.6022643e-06
1.6610165e-11
6.6042519e-05
2.645846e-06
1.517858e-11
6.4057426e-05
1.7715965e-06
8.8667171e-12
6.2281503e-05
1.0725457e-06
2.0826217e-12
6.0320049e-05
5.6185053e-07
-2.4011051e-12
5.7709093e-05
1.7450764e-07
-4.4173048e-12
5.3845828e-05
-1.9634353e-07
-4.9166318e-12
4.7822014e-05
-6.8674351e-07
-4.8141068e-12
3.817101e-05
-1.5436717e-06
-4.6233652e-12
2.2500573e-05
-2.901008e-06
-4.5018418e-12
-4.1976896e-06
-3.8348561e-12
9.8356081e-06
3.763418e-06
9.8699175e-12
2.1612354e-05
1.0572298e-06
1.0734558e-11
3.3118561e-05
2.1586732e-08
7.6514956e-12
4.2618563e-05
-6.8603762e-07
3.8389057e-12
4.9940928e-05
-9.5247598e-07
2.6250856e-13
5.5200315e-05
-8.7808667e-07
-2.7674081e-12
5.875641e-05
-6.6572333e-07
-5.5586917e-12
6.1051024e-05
-4.4645237e-07
-8.0138259e-12
6.2483921e-05
-2.7418904e-07
-1.0248827e-11
6.3361302e-05
-1.5781081e-07
-1.2482879e-11
6.3894798e-05
-8.8104976e-08
-1.5092058e-11
6.4222309e-05
-5.2438268e-08
-1.8444178e-11
-4.7014693e-08
-2.2171896e-11
8.2850616e-05
1.7239838e-06
4.8421024e-12
8.5861313e-05
1.8886328e-06
1.4646287e-11
8.8321489e-05
1.5513673e-06
2.1373208e-11
9.0045142e-05
1.131041e-06
1.9813495e-11
9.0927121e-05
7.3369376e-07
1.1413486e-11
9.0872361e-05
4.1594301e-07
9.710825e-13
8.9727815e-05
1.9147663e-07
-7.0018605e-12
8.7145962e-05
3.4396096e-08
-1.1101024e-11
8.244172e-05
-1.1312943e-07
-1.1952352e-11
7.4308673e-05
-3.0468986e-07
-1.0879096e-11
6.026535e-05
-6.6553637e-07
-8.9378913e-12
3.6208532e-05
-1.3293212e-06
-6.7910487e-12
-2.1640338e-06
-4.5354051e-12
1.8190804e-05
1.8800642e-06
4.3687113e-12
3.4991047e-05
5.68155e-07
1.2853894e-12
5.0801212e-05
-2.235203e-09
-4.2201538e-13
6.3716433e-05
-3.2832114e-07
-2.204397e-12
7.3716544e-05
-4.6282326e-07
-3.7676462e-12
8.1134245e-05
-4.3710126e-07
-5.8010965e-12
8.6414217e-05
-3.3791091e-07
-8.5183101e-12
9.0037131e-05
-2.2967077e-07
-1.1895724e-11
9.2452103e-05
-1.4192871e-07
-1.5884347e-11
9.4029249e-05
-8.1469518e-08
-2.0454146e-11
9.5043947e-05
-4.489054e-08
-2.5616968e-11
9.5685953e-05
-2.6536198e-08
-3.1395411e-11
-2.2673185e-08
-3.7184857e-11
8.3725681e-05
-1.7239817e-06
4.8755463e-12
8.7948067e-05
-1.8886265e-06
1.4624762e-11
9.1471948e-05
-1.551358e-06
2.1233998e-11
9.3957702e-05
-1.1310328e-06
1.9630503e-11
9.5287381e-05
-7.3369013e-07
1.1100159e-11
9.5426521e-05
-4.1594464e-07
2.8133847e-13
9.4313448e-05
-1.9148183e-07
-8.1927259e-12
9.1681008e-05
-3.4402348e-08
-1.267336e-11
8.6859e-05
1.1312303e-07
-1.3647605e-11
7.8526477e-05
3.0468417e-07
-1.2402438e-11
6.4048847e-05
6.6553063e-07
-1.0088004e-11
3.8850366e-05
1.329316e-06
-7.4290666e-12
2.164035e-06
-4.5186471e-12
2.0000989e-05
-1.8800453e-06
-8.3328831e-12
3.7571836e-05
-5.6811122e-07
-1.9806165e-11
5.370428e-05
2.2865122e-09
-2.0725118e-11
6.6831117e-05
3.2834408e-07
-1.7987006e-11
7.6962609e-05
4.6283677e-07
-1.476724e-11
8.4490637e-05
4.3710662e-07
-1.2869671e-11
8.9887187e-05
3.3791063e-07
-1.2942224e-11
9.3630396e-05
2.2966741e-07
-1.4820829e-11
9.6158404e-05
1.4192459e-07
-1.8096309e-11
9.7832616e-05
8.1466225e-08
-2.241641e-11
9.8923793e-05
4.4888368e-08
-2.7518038e-11
9.9618643e-05
2.6534238e-08
-3.3203594e-11
2.2670239e-08
-3.8823441e-11
8.2850617e-05
-4.3015039e-06
4.5359752e-12
8.5861316e-05
-4.4630136e-06
1.3842764e-11
8.8321497e-05
-3.6022589e-06
2.0378688e-11
9.0045153e-05
-2.6458411e-06
1.9129293e-11
9.0927134e-05
-1.7715943e-06
1.1305159e-11
9.0872374e-05
-1.0725466e-06
1.3682913e-12
8.9727826e-05
-5.6185342e-07
-6.3714659e-12
8.714597e-05
-1.7451126e-07
-1.0464453e-11
8.2441726e-05
1.9634009e-07
-1.144723e-11
7.4308675e-05
6.8674052e-07
-1.0515394e-11
6.0265351e-05
1.5436685e-06
-8.6827211e-12
3.6208531e-05
2.9010043e-06
-6.4524058e-12
4.1976887e-06
-3.7952805e-12
1.8190793e-05
-3.7634014e-06
-1.7587014e-11
3.4991043e-05
-1.0572025e-06
-3.5732595e-11
5.0801224e-05
-2.1565924e-08
-3.5459586e-11
6.3716444e-05
6.8604966e-07
-2.8642425e-11
7.3716553e-05
9.5248152e-07
-2.1348966e-11
8.1134252e-05
8.7808794e-07
-1.5990845e-11
8.6414221e-05
6.6572188e-07
-1.3481883e-11
9.0037133e-05
4.464495e-07
-1.3556252e-11
9.2452102e-05
2.7418613e-07
-1.5567823e-11
9.4029246e-05
1.5780893e-07
-1.8997584e-11
9.5043942e-05
8.8104213e-08
-2.3433808e-11
9.5685946e-05
5.2437696e-08
-2.8543794e-11
4.7013012e-08
-3.367105e-11
7.5939156e-05
3.1850196e-12
7.1843832e-05
1.0208568e-11
6.8562939e-05
1.5238239e-11
6.6042535e-05
1.4121648e-11
6.4057445e-05
8.450027e-12
6.2281522e-05
2.1843008e-12
6.0320066e-05
-2.0392693e-12
5.7709106e-05
-3.9509237e-12
5.3845839e-05
-4.3536452e-12
4.7822022e-05
-4.0356292e-12
3.8171015e-05
-3.4515276e-12
2.2500575e-05
-2.6777358e-12
-1.6337073e-12
9.8356089e-06
-1.4881387e-11
2.1612369e-05
-2.8204692e-11
3.311858e-05
-2.4140918e-11
4.261858e-05
-1.7226504e-11
4.9940939e-05
-1.0608596e-11
5.5200319e-05
-5.9484296e-12
5.8756407e-05
-3.5748958e-12
6.1051016e-05
-3.1629615e-12
6.2483907e-05
-4.3438477e-12
6.3361285e-05
-6.8127141e-12
6.389478e-05
-1.0216619e-11
6.4222289e-05
-1.4240043e-11
-1.8279796e-11
7.5939155e-05
4.301505e-06
-2.4065656e-07
7.1843829e-05
4.463017e-06
-3.6767962e-07
6.8562933e-05
3.6022641e-06
-3.2135127e-07
6.6042526e-05
2.6458462e-06
-1.2542446e-07
6.4057433e-05
1.7715972e-06
2.1350497e-07
6.2281509e-05
1.0725466e-06
7.0337889e-07
6.0320054e-05
5.6185144e-07
1.3996014e-06
5.7709096e-05
1.7450844e-07
2.4364458e-06
5.3845829e-05
-1.9634296e-07
4.0596043e-06
4.7822013e-05
-6.867434e-07
6.7105548e-06
3.8171008e-05
-1.5436724e-06
1.1194673e-05
2.2500572e-05
-2.9010098e-06
1.8571442e-05
-4.1976918e-06
2.669826e-05
9.8355983e-06
3.7634377e-06
-1.3599026e-05
2.1612344e-05
1.0572431e-06
-1.2833978e-05
3.3118552e-05
2.1595804e-08
-1.1527796e-05
4.2618555e-05
-6.8603322e-07
-8.8139666e-06
4.9940922e-05
-9.5247484e-07
-6.3698916e-06