/*--------------------------------*- C++ -*----------------------------------*\
| =========                 |                                                 |
| \\      /  F ield         | OpenFOAM: The Open Source CFD Toolbox           |
|  \\    /   O peration     | Version:  2412                                  |
|   \\  /    A nd           | Website:  www.openfoam.com                      |
|    \\/     M anipulation  |                                                 |
\*---------------------------------------------------------------------------*/
FoamFile
{
    version     2.0;
    format      ascii;
    arch        "LSB;label=32;scalar=64";
    class       volScalarField;
    location    "20/bottomWater";
    object      T;
}
// * * * * * * * * * * * * * * * * * * * * * * * * * * * * * * * * * * * * * //

dimensions      [0 0 0 1 0 0 0];

internalField   nonuniform List<scalar> 
1460
(
300
300
300
300
300
300
300
300
300
300
300
300.00001
300.00042
300.00045
300.00024
300.00011
300.00004
300.00002
300.00001
300
300
300
300
300
300
300
300
300
300
300
300
300
300
300
300
300
300
300
300
300
300
300.00001
300.0003
300.00043
300.00031
300.00014
300.00006
300.00002
300.00001
300
300
300
300
300
300
300
300
300
300
300
300
300
300
300
300
300
300
300
300
300
300
300
300.00014
300.00021
300.00015
300.00007
300.00003
300.00001
300
300
300
300
300
300
300
300
300
300
300
300
300
300
300
300
300
300
300
300
300
300
300
300
300.00006
300.00016
300.00017
300.00014
300.00011
300.00009
300.00006
300.00004
300.00002
300.00001
300.00001
300
300
300
300
300
300
300
300
300
300
300
300
300
300
300
300
300
300
300
300.00013
300.01491
300.01834
300.01769
300.01526
300.01206
300.00874
300.00582
300.00358
300.00206
300.00111
300.00057
300.00028
300.00013
300.00006
300.00003
300.00001
300.00001
300
300
300
300
300
300
300
300
300
300
300.00001
300.00061
300.01816
300.02075
300.01277
300.00693
300.00368
300.00193
300.00099
300.00048
300.00021
300.00008
300.00003
300.00001
300
300
300
300
300
300
300
300
300
300
300
300
300
300
300
300
300
300.00032
300.01178
300.01747
300.01459
300.00819
300.00433
300.00219
300.00106
300.0005
300.00022
300.00009
300.00003
300.00001
300
300
300
300
300
300
300
300
300
300
300
300
300
300
300
300
300
300.00015
300.00598
300.00923
300.00797
300.00439
300.00224
300.00109
300.00051
300.00023
300.0001
300.00004
300.00001
300
300
300
300
300
300
300
300
300
300
300
300
300
300
300
300
300
300
300.00007
300.00301
300.00459
300.0038
300.00215
300.00121
300.00069
300.00039
300.00021
300.00011
300.00005
300.00002
300.00001
300
300
300
300
300
300
300
300
300
300
300
300
300
300
300
300
300
300.00003
300.00132
300.03242
300.0416
300.0413
300.03615
300.0285
300.02033
300.01322
300.00791
300.0044
300.0023
300.00114
300.00054
300.00025
300.00011
300.00005
300.00002
300.00001
300
300
300
300
300
300
300
300
300
300
300.00015
300.00932
300.31862
300.44314
300.38624
300.26226
300.18185
300.1169
300.06753
300.03442
300.01533
300.00598
300.00206
300.00063
300.00018
300.00004
300.00001
300
300
300
300
300
300
300
300
300
300
300
300
300
300.00006
300.00462
300.19147
300.31151
300.33071
300.24643
300.15954
300.0985
300.05698
300.03042
300.01476
300.00646
300.00254
300.0009
300.00029
300.00009
300.00002
300.00001
300
300
300
300
300
300
300
300
300
300
300
300
300.00002
300.00227
300.10356
300.17534
300.19034
300.14526
300.09013
300.05314
300.02934
300.01499
300.00698
300.00294
300.00112
300.00038
300.00012
300.00003
300.00001
300
300
300
300
300
300
300
300
300
300
300
300
300
300.00001
300.00115
300.05632
300.09441
300.0975
300.06836
300.0416
300.02411
300.013
300.00641
300.00286
300.00116
300.00043
300.00014
300.00005
300.00001
300
300
300
300
300
300
300
300
300
300
300
300
300
300
300.00002
300.00056
300.02572
300.12003
300.14085
300.12964
300.11028
300.08324
300.05611
300.03423
300.01918
300.01002
300.00495
300.00234
300.00106
300.00047
300.00021
300.00009
300.00004
300.00003
300
300
300
300
300
300
300
300
300
300.00001
300.00105
300.06648
302.56716
304.45749
306.11292
307.18122
307.52081
304.71469
302.54969
301.20822
300.50597
300.18983
300.06437
300.01984
300.00558
300.00144
300.00034
300.00007
300.00001
300
300
300
300
300
300
300
300
300
300
300
300.00043
300.0319
301.50431
302.6806
303.72359
304.47628
304.77417
303.19668
301.88296
300.99164
300.46919
300.20097
300.07837
300.02795
300.00915
300.00276
300.00077
300.0002
300.00005
300.00001
300
300
300
300
300
300
300
300
300
300
300.0002
300.01669
300.87284
301.63205
302.26416
302.69571
302.86115
301.82637
301.02666
300.51704
300.23429
300.09629
300.03611
300.01241
300.00393
300.00115
300.00031
300.00008
300.00002
300
300
300
300
300
300
300
300
300
300
300
300.0001
300.00902
300.50733
300.9837
301.34876
301.57515
301.64089
300.9633
300.49702
300.23016
300.09622
300.03665
300.0128
300.00412
300.00123
300.00034
300.00009
300.00002
300
300
300
300
300
300
300
300
300
300
300
300.00001
300.00009
300.005
300.27363
300.80009
301.09056
301.1858
301.14454
300.60175
300.28361
300.12584
300.05435
300.02341
300.0101
300.00435
300.00186
300.00079
300.00034
300.00015
300.00007
300.00005
300
300
300
300
300
299.99999
300
300
300
300.00004
300.00393
300.25656
312.25427
315.02565
303.28677
301.02908
300.356
300.12334
300.04112
300.01293
300.00379
300.00103
300.00026
300.00006
300.00001
300
300
300
300
300
300
300
300
300
300
300.00001
300.00158
300.12229
307.17208
309.68992
302.51356
300.8637
300.32588
300.12379
300.04558
300.01597
300.00528
300.00164
300.00047
300.00013
300.00003
300.00001
300
300
300
300
300
300
300
300
300
300
300.00079
300.06755
304.44451
305.79607
301.41253
300.456
300.16246
300.05864
300.02062
300.00693
300.0022
300.00066
300.00018
300.00005
300.00001
300
300
300
300
300
300
300
300
300
300
300
300.00041
300.03849
302.74694
303.29661
300.68201
300.19641
300.06411
300.0215
300.00708
300.00224
300.00068
300.00019
300.00005
300.00001
300
300
300
300
300
300
300
300
300
300
300.00001
300.00003
300.00032
300.02426
301.733
302.0964
300.38906
300.13256
300.05634
300.02557
300.0117
300.00527
300.00232
300.001
300.00043
300.0002
300.0001
300.00006
300
300
300
300
300
299.99999
299.99999
300
300
300.00004
300.00393
300.25656
312.25424
315.02565
303.28677
301.02908
300.356
300.12334
300.04112
300.01293
300.00379
300.00103
300.00026
300.00006
300.00001
300
300
300
300
300
300
300
300
300
300
300.00001
300.00158
300.12229
307.17205
309.68995
302.51358
300.86371
300.32588
300.12379
300.04558
300.01597
300.00528
300.00164
300.00047
300.00013
300.00003
300.00001
300
300
300
300
300
300
300
300
300
300
300.00079
300.06755
304.44449
305.79612
301.41256
300.45601
300.16246
300.05865
300.02062
300.00693
300.0022
300.00066
300.00018
300.00005
300.00001
300
300
300
300
300
300
300
300
300
300
300
300.00041
300.03849
302.74693
303.29667
300.68203
300.19642
300.06411
300.0215
300.00708
300.00224
300.00068
300.00019
300.00005
300.00001
300
300
300
300
300
300
300
300
300
300
300.00001
300.00003
300.00032
300.02426
301.733
302.09646
300.38907
300.13256
300.05634
300.02557
300.0117
300.00527
300.00232
300.001
300.00043
300.0002
300.0001
300.00006
300
300
300
300
299.99999
299.99999
299.99999
300
300
300.00001
300.00105
300.06648
302.56715
304.45748
306.1129
307.18121
307.5208
304.71469
302.54969
301.20822
300.50597
300.18983
300.06437
300.01984
300.00558
300.00144
300.00034
300.00007
300.00001
300
300
300
300
300
300
300
300
300
300
300
300.00043
300.0319
301.5043
302.68059
303.72358
304.47626
304.77417
303.19668
301.88296
300.99164
300.46919
300.20097
300.07837
300.02795
300.00915
300.00276
300.00077
300.0002
300.00005
300.00001
300
300
300
300
300
300
300
300
300
300
300.0002
300.01669
300.87283
301.63205
302.26416
302.69571
302.86116
301.82638
301.02667
300.51705
300.2343
300.09629
300.03611
300.01241
300.00393
300.00115
300.00031
300.00008
300.00002
300
300
300
300
300
300
300
300
300
300
300
300.0001
300.00902
300.50733
300.98369
301.34876
301.57515
301.6409
300.96331
300.49703
300.23017
300.09623
300.03665
300.0128
300.00412
300.00123
300.00034
300.00009
300.00002
300
300
300
300
300
300
300
300
300
300
300
300.00001
300.00009
300.005
300.27363
300.80009
301.09056
301.18582
301.14457
300.60177
300.28362
300.12585
300.05435
300.02341
300.0101
300.00435
300.00186
300.00079
300.00034
300.00015
300.00007
300.00005
300
300
300
300
299.99999
299.99999
299.99999
300
300
300
300.00015
300.00932
300.31862
300.44314
300.38623
300.26226
300.18185
300.1169
300.06753
300.03442
300.01533
300.00598
300.00206
300.00063
300.00018
300.00004
300.00001
300
300
300
300
300
300
300
300
300
300
300
300
300
300.00006
300.00462
300.19147
300.31151
300.33071
300.24643
300.15953
300.0985
300.05698
300.03042
300.01476
300.00646
300.00254
300.0009
300.00029
300.00009
300.00002
300
300
300
300
300
300
300
300
300
300
300
300
300
300.00002
300.00227
300.10356
300.17534
300.19034
300.14526
300.09013
300.05314
300.02934
300.01499
300.00698
300.00294
300.00112
300.00038
300.00012
300.00003
300.00001
300
300
300
300
300
300
300
300
300
300
300
300
300
300.00001
300.00115
300.05632
300.09441
300.0975
300.06836
300.0416
300.02411
300.013
300.00641
300.00286
300.00116
300.00043
300.00014
300.00004
300.00001
300
300
300
300
300
300
300
300
300
300
300
300
300
300
300.00002
300.00056
300.02572
300.12002
300.14085
300.12964
300.11028
300.08324
300.05611
300.03424
300.01919
300.01002
300.00495
300.00234
300.00106
300.00047
300.00021
300.00009
300.00004
300.00003
300
300
300
300
299.99999
299.99999
299.99999
300
300
300
300.00001
300.00061
300.01816
300.02075
300.01277
300.00693
300.00368
300.00193
300.00099
300.00048
300.00021
300.00008
300.00003
300.00001
300
300
300
300
300
300
300
300
300
300
300
300
300
300
300
300
300
300.00032
300.01178
300.01747
300.01459
300.00819
300.00433
300.00219
300.00106
300.0005
300.00022
300.00009
300.00003
300.00001
300
300
300
300
300
300
300
300
300
300
300
300
300
300
300
300
300
300.00015
300.00598
300.00923
300.00797
300.00439
300.00224
300.00109
300.00051
300.00023
300.0001
300.00004
300.00001
300
300
300
300
300
300
300
300
300
300
300
300
300
300
300
300
300
300
300.00007
300.00301
300.00459
300.0038
300.00215
300.00121
300.00069
300.00039
300.00021
300.00011
300.00005
300.00002
300.00001
300
300
300
300
300
300
300
300
300
300
300
300
300
300
300
300
300
300.00003
300.00132
300.03242
300.0416
300.0413
300.03615
300.0285
300.02033
300.01322
300.00791
300.0044
300.0023
300.00114
300.00054
300.00025
300.00011
300.00005
300.00002
300.00001
300
300
300
300
299.99999
299.99999
299.99999
300
300
300
300
300.00001
300.00042
300.00045
300.00024
300.00011
300.00004
300.00002
300.00001
300
300
300
300
300
300
300
300
300
300
300
300
300
300
300
300
300
300
300
300
300
300
300.00001
300.0003
300.00043
300.00031
300.00014
300.00006
300.00002
300.00001
300
300
300
300
300
300
300
300
300
300
300
300
300
300
300
300
300
300
300
300
300
300
300
300.00014
300.00021
300.00015
300.00007
300.00003
300.00001
300
300
300
300
300
300
300
300
300
300
300
300
300
300
300
300
300
300
300
300
300
300
300
300
300.00006
300.00016
300.00017
300.00014
300.00011
300.00009
300.00006
300.00004
300.00002
300.00001
300.00001
300
300
300
300
300
300
300
300
300
300
300
300
300
300
300
300
300
300
300
300.00013
300.0149
300.01834
300.01769
300.01527
300.01206
300.00874
300.00582
300.00358
300.00206
300.00111
300.00057
300.00028
300.00013
300.00006
300.00003
300.00001
300.00001
)
;

boundaryField
{
    minX
    {
        type            fixedValue;
        value           uniform 300;
    }
    maxX
    {
        type            inletOutlet;
        inletValue      uniform 300;
        value           nonuniform List<scalar> 
50
(
300
300
300
300
300.00001
300
300
300
300
300.00001
300
300
300
300
300.00003
300
300.00001
300
300
300.00004
300
300.00001
300
300
300.00006
300
300.00001
300
300
300.00006
300
300.00001
300
300
300.00004
300
300
300
300
300.00003
300
300
300
300
300.00001
300
300
300
300
300.00001
)
;
    }
    minY
    {
        type            zeroGradient;
    }
    minZ
    {
        type            zeroGradient;
    }
    maxZ
    {
        type            zeroGradient;
    }
    bottomWater_to_rightSolid
    {
        type            compressible::turbulentTemperatureRadCoupledMixed;
        refValue        nonuniform List<scalar> 
130
(
300.68275
300.49346
300.3327
300.21045
300.1256
300.07109
300.03835
300.01981
300.00987
300.00479
300.00232
300.00119
300.00076
301.3248
300.92622
300.60214
300.36742
300.21201
300.11638
300.06108
300.03082
300.01505
300.0072
300.00346
300.00178
300.00115
302.96004
301.96883
301.21752
300.70945
300.39293
300.2081
300.1059
300.05204
300.02488
300.01172
300.0056
300.0029
300.0019
306.21933
303.82394
302.21229
301.22103
300.64729
300.33088
300.16363
300.07862
300.03695
300.01724
300.00824
300.00433
300.00288
311.21981
306.07982
303.24456
301.69594
300.86531
300.43023
300.20845
300.09867
300.04593
300.02136
300.01026
300.00547
300.0037
311.21991
306.07988
303.24462
301.69595
300.86532
300.43023
300.20845
300.09867
300.04593
300.02136
300.01026
300.00547
300.0037
306.21945
303.82401
302.21235
301.22107
300.64731
300.33089
300.16365
300.07862
300.03695
300.01724
300.00824
300.00433
300.00288
302.96018
301.96892
301.21758
300.70948
300.39295
300.20811
300.10591
300.05205
300.02488
300.01172
300.0056
300.0029
300.0019
301.32491
300.9263
300.60219
300.36745
300.21203
300.11638
300.06109
300.03082
300.01505
300.0072
300.00346
300.00178
300.00115
300.68283
300.49352
300.33274
300.21047
300.12562
300.0711
300.03835
300.01981
300.00987
300.00479
300.00232
300.00119
300.00076
)
;
        refGradient     uniform 0;
        valueFraction   uniform 0.99248593;
        source          uniform 0;
        logInterval     -1;
        writePrecision  8;
        updateHeader    1;
        writeToFile     0;
        useUserTime     1;
        kappaMethod     fluidThermo;
        value           nonuniform List<scalar> 
130
(
300.67771
300.48982
300.33024
300.20889
300.12467
300.07057
300.03806
300.01967
300.00979
300.00475
300.0023
300.00118
300.00075
301.31506
300.91941
300.59771
300.36471
300.21045
300.11552
300.06063
300.03059
300.01493
300.00714
300.00343
300.00177
300.00114
302.93842
301.95445
301.20862
300.70426
300.39005
300.20657
300.10512
300.05166
300.0247
300.01164
300.00556
300.00288
300.00188
306.1771
303.79733
302.19661
301.21226
300.6426
300.32847
300.16244
300.07804
300.03668
300.01711
300.00818
300.0043
300.00285
311.1512
306.03705
303.22117
301.68362
300.859
300.42708
300.20692
300.09794
300.0456
300.0212
300.01018
300.00543
300.00367
311.15131
306.03711
303.22123
301.68363
300.85901
300.42708
300.20693
300.09794
300.0456
300.0212
300.01018
300.00543
300.00367
306.17722
303.7974
302.19667
301.2123
300.64262
300.32848
300.16245
300.07804
300.03668
300.01711
300.00818
300.00429
300.00285
302.93856
301.95454
301.20869
300.7043
300.39007
300.20658
300.10513
300.05167
300.0247
300.01164
300.00556
300.00288
300.00188
301.31516
300.91949
300.59776
300.36474
300.21047
300.11553
300.06064
300.03059
300.01494
300.00714
300.00343
300.00177
300.00114
300.67779
300.48988
300.33028
300.20892
300.12469
300.07057
300.03807
300.01967
300.0098
300.00475
300.0023
300.00118
300.00075
)
;
    }
    bottomWater_to_leftSolid
    {
        type            compressible::turbulentTemperatureRadCoupledMixed;
        refValue        nonuniform List<scalar> 
130
(
300
300
300
300
300.00001
300.00001
300.00003
300.00005
300.00009
300.00015
300.00023
300.00033
300.00042
300
300
300
300
300.00001
300.00002
300.00005
300.00009
300.00017
300.00031
300.0005
300.00075
300.00099
300
300
300
300.00001
300.00002
300.00004
300.00009
300.00019
300.00037
300.0007
300.00123
300.00198
300.00284
300
300
300.00001
300.00001
300.00003
300.00007
300.00015
300.00033
300.00069
300.00138
300.00265
300.0048
300.00796
300
300
300.00001
300.00002
300.00004
300.00009
300.00021
300.00046
300.001
300.00213
300.00444
300.00914
300.01845
300
300
300.00001
300.00002
300.00004
300.00009
300.00021
300.00046
300.001
300.00213
300.00444
300.00914
300.01845
300
300
300.00001
300.00001
300.00003
300.00007
300.00015
300.00033
300.00069
300.00138
300.00265
300.0048
300.00796
300
300
300
300.00001
300.00002
300.00004
300.00009
300.00019
300.00037
300.0007
300.00123
300.00198
300.00284
300
300
300
300
300.00001
300.00002
300.00005
300.00009
300.00017
300.00031
300.0005
300.00075
300.00099
300
300
300
300
300.00001
300.00001
300.00003
300.00005
300.00009
300.00015
300.00023
300.00033
300.00042
)
;
        refGradient     uniform 0;
        valueFraction   uniform 0.99248593;
        source          uniform 0;
        logInterval     -1;
        writePrecision  8;
        updateHeader    1;
        writeToFile     0;
        useUserTime     1;
        kappaMethod     fluidThermo;
        value           nonuniform List<scalar> 
130
(
300
300
300
300
300.00001
300.00001
300.00003
300.00005
300.00009
300.00015
300.00023
300.00033
300.00042
300
300
300
300
300.00001
300.00002
300.00005
300.00009
300.00017
300.00031
300.0005
300.00074
300.00099
300
300
300
300.00001
300.00002
300.00004
300.00009
300.00019
300.00037
300.00069
300.00122
300.00197
300.00301
300
300
300
300.00001
300.00003
300.00007
300.00015
300.00033
300.00069
300.00137
300.00263
300.00481
300.00994
300
300
300.00001
300.00002
300.00004
300.00009
300.00021
300.00046
300.00099
300.00211
300.00441
300.00926
300.03129
300
300
300.00001
300.00002
300.00004
300.00009
300.00021
300.00046
300.00099
300.00211
300.00441
300.00926
300.03129
300
300
300
300.00001
300.00003
300.00007
300.00015
300.00033
300.00069
300.00137
300.00263
300.00481
300.00994
300
300
300
300.00001
300.00002
300.00004
300.00009
300.00019
300.00037
300.00069
300.00122
300.00197
300.00301
300
300
300
300
300.00001
300.00002
300.00005
300.00009
300.00017
300.00031
300.0005
300.00074
300.00099
300
300
300
300
300.00001
300.00001
300.00003
300.00005
300.00009
300.00015
300.00023
300.00033
300.00042
)
;
    }
    bottomWater_to_heater
    {
        type            compressible::turbulentTemperatureRadCoupledMixed;
        refValue        nonuniform List<scalar> 
92
(
301.2397
301.17529
301.05051
300.87722
302.48625
302.35979
302.10739
301.74397
305.79906
305.52427
304.94608
304.05369
475.23667
475.97485
475.97399
475.24346
431.21815
432.02804
432.00073
431.16138
393.82661
394.41069
394.30434
393.57056
363.94271
364.21902
363.9078
363.15302
312.98025
341.7518
312.4715
341.63428
311.29383
340.82826
309.21208
339.50537
475.23667
475.24346
431.21815
431.16138
393.82661
393.57056
363.94271
363.15302
341.7518
339.50537
475.23652
475.23652
475.97474
475.97391
475.24342
475.24342
431.21786
431.21786
432.02786
432.00063
431.16139
431.16139
393.82631
393.82631
394.41055
394.30431
393.57069
393.57069
363.94248
363.94248
364.21897
363.90787
363.15326
363.15326
341.75168
341.75168
341.63433
340.82842
339.50568
339.50568
312.98019
312.47159
311.29403
309.21234
305.79898
305.52432
304.94622
304.0539
302.48619
302.35982
302.10748
301.74411
301.23965
301.17531
301.05058
300.87733
)
;
        refGradient     uniform 0;
        valueFraction   uniform 0.99248593;
        source          uniform 0;
        logInterval     -1;
        writePrecision  8;
        updateHeader    1;
        writeToFile     0;
        useUserTime     1;
        kappaMethod     fluidThermo;
        value           nonuniform List<scalar> 
92
(
301.23049
301.16659
301.04274
300.87075
302.46781
302.34237
302.09186
301.73114
305.75639
305.48382
304.90988
304.02406
473.95338
474.69844
474.7056
473.9831
430.25228
431.06391
431.04245
430.21164
393.13383
393.71826
393.61595
392.88892
363.46962
363.74659
363.43939
362.69078
312.8887
341.44406
312.38596
341.3296
311.21785
340.53035
309.15143
339.2171
474.01191
474.03942
430.28599
430.2485
393.15493
392.91092
363.48284
362.70319
341.45105
339.22423
474.01176
473.95324
474.69833
474.70552
474.03938
473.98306
430.2857
430.25199
431.06374
431.04235
430.24851
430.21165
393.15464
393.13353
393.71813
393.61592
392.91105
392.88905
363.48261
363.46939
363.74654
363.43947
362.70343
362.69102
341.45094
341.44395
341.32965
340.53051
339.22453
339.2174
312.88864
312.38605
311.21804
309.15169
305.75631
305.48386
304.91003
304.02426
302.46775
302.3424
302.09196
301.73128
301.23045
301.16661
301.04281
300.87085
)
;
    }
}


// ************************************************************************* //
