/*--------------------------------*- C++ -*----------------------------------*\
| =========                 |                                                 |
| \\      /  F ield         | OpenFOAM: The Open Source CFD Toolbox           |
|  \\    /   O peration     | Version:  2412                                  |
|   \\  /    A nd           | Website:  www.openfoam.com                      |
|    \\/     M anipulation  |                                                 |
\*---------------------------------------------------------------------------*/
FoamFile
{
    version     2.0;
    format      ascii;
    arch        "LSB;label=32;scalar=64";
    class       volVectorField;
    location    "20/bottomWater";
    object      U;
}
// * * * * * * * * * * * * * * * * * * * * * * * * * * * * * * * * * * * * * //

dimensions      [0 1 -1 0 0 0 0];

internalField   nonuniform List<vector> 
1460
(
(0.00091093735 5.7668493e-05 4.08565e-05)
(0.00088549634 5.8789549e-05 4.5870647e-05)
(0.00079841165 4.6889968e-05 3.8932551e-05)
(0.00073174867 3.3661255e-05 2.877856e-05)
(0.00069088587 2.2301056e-05 1.8645772e-05)
(0.00066847257 1.4087107e-05 9.9156118e-06)
(0.00065982011 8.785616e-06 2.6767859e-06)
(0.0006620182 5.5209947e-06 -3.2646848e-06)
(0.00067332789 3.4010006e-06 -8.046589e-06)
(0.00069320223 1.8770064e-06 -1.1683837e-05)
(0.00072146319 6.2427461e-07 -1.3617597e-05)
(0.00075726095 -4.9870256e-07 -1.2190804e-05)
(0.00079760697 -1.6111472e-06 -4.7403254e-06)
(0.00082936171 -2.1891525e-06 1.3110706e-05)
(0.00084318074 -2.4287293e-06 2.6934889e-05)
(0.00084081456 -2.3965453e-06 3.2738685e-05)
(0.00082494031 -1.9381771e-06 3.3973638e-05)
(0.0007978621 -1.4822504e-06 3.3613412e-05)
(0.00076323522 -1.2453488e-06 3.0397658e-05)
(0.00072714731 -1.1637418e-06 2.4858276e-05)
(0.00069474725 -1.0661513e-06 1.8670237e-05)
(0.00066835569 -8.3925176e-07 1.3078591e-05)
(0.00064816807 -5.1114131e-07 8.621565e-06)
(0.00063338203 -1.8819879e-07 5.3780146e-06)
(0.00062289766 4.4273383e-08 3.1837515e-06)
(0.00061562594 1.7815602e-07 1.7946435e-06)
(0.00061066131 2.3652221e-07 9.7415882e-07)
(0.0006073059 2.4704468e-07 5.2909124e-07)
(0.00060498315 2.2694963e-07 3.1678846e-07)
(0.00060270743 2.7969191e-07 3.2398384e-07)
(0.00097312489 5.3517851e-05 4.4960522e-05)
(0.00099337151 5.4162098e-05 5.5010778e-05)
(0.00097980949 4.438778e-05 4.9252251e-05)
(0.00096201091 3.1645841e-05 3.8868957e-05)
(0.00095022108 1.9767898e-05 2.7333595e-05)
(0.00094482293 1.0997451e-05 1.6392634e-05)
(0.00094618602 5.5304953e-06 6.6709093e-06)
(0.00095527563 2.5157492e-06 -1.7121894e-06)
(0.00097230663 8.7374926e-07 -8.7337563e-06)
(0.00099818856 -1.2095236e-07 -1.4523241e-05)
(0.0010336792 -9.018511e-07 -1.861761e-05)
(0.0010786701 -1.659547e-06 -1.9268953e-05)
(0.0011307233 -2.2746744e-06 -1.3023625e-05)
(0.0011758383 -2.4414508e-06 6.138712e-06)
(0.0012021557 -2.2390831e-06 2.4135791e-05)
(0.0012085375 -1.9244101e-06 3.4961148e-05)
(0.0011986633 -1.3475218e-06 3.9287148e-05)
(0.0011731983 -8.8497185e-07 4.0753561e-05)
(0.0011355013 -6.4526178e-07 3.8711741e-05)
(0.0010917261 -6.0282469e-07 3.3452176e-05)
(0.0010483083 -6.0430054e-07 2.664113e-05)
(0.0010095568 -4.9646186e-07 1.9845265e-05)
(0.00097743434 -2.6618392e-07 1.3995873e-05)
(0.00095225795 -3.1141542e-09 9.4314923e-06)
(0.00093339864 2.1016046e-07 6.1312823e-06)
(0.00091979822 3.3354453e-07 3.8830956e-06)
(0.00091027147 3.7558366e-07 2.4251546e-06)
(0.00090374214 3.6847203e-07 1.5254384e-06)
(0.00089926694 3.5213855e-07 9.9527074e-07)
(0.00089520379 3.7146518e-07 8.2862102e-07)
(0.00097747615 2.1086318e-11 4.4766943e-05)
(0.0010082598 6.155351e-11 5.5222649e-05)
(0.0010079795 8.7203468e-11 4.9892462e-05)
(0.00099970015 7.4442263e-11 3.9770734e-05)
(0.00099294064 3.4875401e-11 2.8244079e-05)
(0.00098927592 -3.2027404e-12 1.7117617e-05)
(0.00099042849 -2.2276687e-11 7.1464229e-06)
(0.00099853828 -2.1646842e-11 -1.4875982e-06)
(0.0010144375 -9.881681e-12 -8.7019869e-06)
(0.0010393109 4.1412534e-12 -1.4627997e-05)
(0.0010739884 1.7451737e-11 -1.8882959e-05)
(0.0011184649 2.7876125e-11 -1.9738869e-05)
(0.0011704188 3.3552366e-11 -1.3765743e-05)
(0.0012161408 3.4132748e-11 5.0558489e-06)
(0.0012437607 3.0050049e-11 2.3033312e-05)
(0.0012515482 2.1105531e-11 3.4247022e-05)
(0.0012431674 6.1252423e-12 3.9057365e-05)
(0.0012190459 -9.1291657e-12 4.0890468e-05)
(0.0011821962 -1.6302096e-11 3.9175212e-05)
(0.0011385749 -8.3701923e-12 3.4179375e-05)
(0.0010945185 1.3971327e-11 2.7558796e-05)
(0.0010544645 3.7226121e-11 2.0854844e-05)
(0.0010206998 4.9077086e-11 1.4971938e-05)
(0.00099390064 4.7073414e-11 1.0285133e-05)
(0.00097364968 5.2775812e-11 6.8153939e-06)
(0.00095893848 4.4474374e-11 4.4003135e-06)
(0.00094858445 3.0496825e-11 2.8042874e-06)
(0.00094147408 1.1636295e-11 1.7975039e-06)
(0.00093661627 -1.426154e-11 1.1850706e-06)
(0.00093226709 -4.2266715e-11 9.6076281e-07)
(0.00097312489 -5.3517821e-05 4.4960521e-05)
(0.00099337154 -5.4162009e-05 5.5010776e-05)
(0.00097980956 -4.4387649e-05 4.9252251e-05)
(0.00096201104 -3.1645722e-05 3.8868961e-05)
(0.00095022124 -1.9767833e-05 2.7333603e-05)
(0.00094482309 -1.0997438e-05 1.6392647e-05)
(0.00094618615 -5.5305079e-06 6.6709269e-06)
(0.00095527574 -2.5157587e-06 -1.7121678e-06)
(0.00097230671 -8.7373864e-07 -8.7337304e-06)
(0.00099818862 1.2098972e-07 -1.4523211e-05)
(0.0010336792 9.0191624e-07 -1.8617579e-05)
(0.0010786702 1.6596373e-06 -1.9268926e-05)
(0.0011307233 2.274784e-06 -1.3023601e-05)
(0.0011758384 2.4415717e-06 6.1387342e-06)
(0.0012021557 2.2392048e-06 2.4135814e-05)
(0.0012085375 1.9245172e-06 3.4961174e-05)
(0.0011986633 1.3475957e-06 3.9287188e-05)
(0.0011731983 8.8500414e-07 4.0753621e-05)
(0.0011355014 6.4526353e-07 3.8711827e-05)
(0.0010917261 6.0282745e-07 3.3452286e-05)
(0.0010483083 6.0434172e-07 2.6641254e-05)
(0.0010095568 4.965571e-07 1.984538e-05)
(0.00097743427 2.6631918e-07 1.3995966e-05)
(0.00095225789 3.2607261e-09 9.4315671e-06)
(0.0009333986 -2.1002714e-07 6.1313347e-06)
(0.00091979817 -3.3343495e-07 3.8831374e-06)
(0.00091027141 -3.7550113e-07 2.4251883e-06)
(0.00090374207 -3.6842195e-07 1.5254626e-06)
(0.00089926684 -3.5213268e-07 9.9528586e-07)
(0.00089520364 -3.7151147e-07 8.2863316e-07)
(0.00091093736 -5.7668484e-05 4.0856501e-05)
(0.00088549638 -5.8789524e-05 4.5870649e-05)
(0.00079841175 -4.6889934e-05 3.8932558e-05)
(0.00073174884 -3.366123e-05 2.8778572e-05)
(0.00069088608 -2.2301049e-05 1.8645787e-05)
(0.00066847277 -1.4087115e-05 9.9156315e-06)
(0.00065982028 -8.7856294e-06 2.6768105e-06)
(0.00066201833 -5.5210069e-06 -3.2646553e-06)
(0.00067332799 -3.4010079e-06 -8.0465545e-06)
(0.0006932023 -1.8770058e-06 -1.1683798e-05)
(0.00072146326 -6.242641e-07 -1.3617555e-05)
(0.00075726102 4.9872294e-07 -1.2190762e-05)
(0.00079760707 1.6111747e-06 -4.7402848e-06)
(0.00082936184 2.1891813e-06 1.3110746e-05)
(0.0008431809 2.4287502e-06 2.6934933e-05)
(0.00084081475 2.3965445e-06 3.2738738e-05)
(0.00082494048 1.9381406e-06 3.3973708e-05)
(0.00079786223 1.4821746e-06 3.36135e-05)
(0.00076323527 1.2452469e-06 3.0397761e-05)
(0.00072714727 1.1636439e-06 2.4858386e-05)
(0.00069474713 1.0660887e-06 1.8670341e-05)
(0.00066835552 8.3923416e-07 1.3078684e-05)
(0.00064816789 5.1115544e-07 8.6216476e-06)
(0.00063338187 1.8822503e-07 5.3780883e-06)
(0.00062289751 -4.4262573e-08 3.1838179e-06)
(0.0006156258 -1.7814969e-07 1.7947007e-06)
(0.00061066117 -2.3651452e-07 9.7420362e-07)
(0.00060730576 -2.4703733e-07 5.2912159e-07)
(0.00060498298 -2.2695064e-07 3.1680555e-07)
(0.00060270721 -2.7971482e-07 3.2399572e-07)
(0.00094603696 6.100834e-05 4.6194581e-05)
(0.00094263768 6.5827505e-05 5.5415419e-05)
(0.00090048407 5.3632176e-05 4.9767632e-05)
(0.00086519044 3.9901891e-05 3.6148276e-05)
(0.00084423154 2.7638829e-05 1.9606826e-05)
(0.00083403435 1.8031895e-05 3.1124987e-06)
(0.00083226883 1.1164011e-05 -1.2756492e-05)
(0.00083859749 6.4776524e-06 -2.8757856e-05)
(0.00085350377 3.2413815e-06 -4.5944464e-05)
(0.00087827632 8.0968559e-07 -6.5039643e-05)
(0.0009155333 -1.1261384e-06 -8.561835e-05)
(0.0009675656 -2.388725e-06 -0.00010403579)
(0.0010359861 -2.665308e-06 -0.00011053162)
(0.0010863888 5.3038055e-07 -7.6712153e-05)
(0.0010978239 2.8146765e-06 -3.7475845e-05)
(0.0010879039 3.9335208e-06 -9.2504397e-07)
(0.0010671587 3.7571537e-06 3.2358904e-05)
(0.0010330209 3.6314172e-06 6.3026284e-05)
(0.00098682871 2.9422814e-06 7.7529984e-05)
(0.00093942025 1.7793132e-06 7.7828805e-05)
(0.00089853961 6.4396456e-07 6.9260056e-05)
(0.00086668513 -7.2495285e-08 5.665421e-05)
(0.00084328589 -3.0650417e-07 4.3506974e-05)
(0.00082675903 -2.5222099e-07 3.1856228e-05)
(0.00081535764 -1.0466616e-07 2.2510307e-05)
(0.00080757968 2.7886939e-08 1.5497971e-05)
(0.00080229728 1.1021392e-07 1.0477567e-05)
(0.00079871317 1.5294459e-07 7.005768e-06)
(0.00079624297 1.7258901e-07 4.6842054e-06)
(0.00079394955 2.7150597e-07 3.2994594e-06)
(0.0010168428 5.7009448e-05 5.1140462e-05)
(0.0010668717 6.001858e-05 6.4491734e-05)
(0.0011105014 4.9125175e-05 5.9475462e-05)
(0.0011428448 3.6245667e-05 4.6275632e-05)
(0.001167185 2.4115855e-05 2.8850371e-05)
(0.0011864743 1.4455928e-05 9.7774839e-06)
(0.0012036506 7.7156561e-06 -9.7816488e-06)
(0.0012217766 3.4297283e-06 -3.0120288e-05)
(0.001244531 8.4166369e-07 -5.2227012e-05)
(0.0012754565 -8.372894e-07 -7.7148163e-05)
(0.001318807 -2.1534725e-06 -0.00010495019)
(0.00137942 -3.1687946e-06 -0.00013257719)
(0.0014617207 -3.1207145e-06 -0.0001487712)
(0.0015339007 -9.7772544e-07 -0.00011918137)
(0.0015684658 1.1908145e-06 -7.6584375e-05)
(0.0015765909 2.4008975e-06 -3.2844578e-05)
(0.0015662282 2.3859179e-06 1.1258894e-05)
(0.0015366623 1.9949263e-06 5.4515541e-05)
(0.0014884317 1.3999405e-06 8.272704e-05)
(0.0014317433 4.8775519e-07 9.4401518e-05)
(0.0013762476 -3.8486009e-07 9.3289029e-05)
(0.0013273261 -8.5848195e-07 8.381201e-05)
(0.0012873596 -8.8825831e-07 7.0135992e-05)
(0.0012566027 -6.5166205e-07 5.5504937e-05)
(0.0012340259 -3.4560855e-07 4.2019751e-05)
(0.0012180135 -9.1277756e-08 3.0712716e-05)
(0.0012069144 7.2993878e-08 2.1841795e-05)
(0.0011993593 1.6397148e-07 1.5214212e-05)
(0.0011942576 2.2353739e-07 1.0453482e-05)
(0.0011899297 3.0916719e-07 7.3201001e-06)
(0.0010220958 2.5547533e-11 5.1619021e-05)
(0.0010843376 7.3015409e-11 6.5390044e-05)
(0.0011430763 1.0095602e-10 6.0652796e-05)
(0.0011872742 8.3755756e-11 4.7685843e-05)
(0.0012189814 3.2053972e-11 3.027823e-05)
(0.0012419636 -2.3251437e-11 1.0982368e-05)
(0.0012603172 -6.0393386e-11 -8.9415677e-06)
(0.0012780848 -7.3200665e-11 -2.9660415e-05)
(0.0012998272 -6.8193304e-11 -5.210014e-05)
(0.001329472 -5.5130842e-11 -7.7331927e-05)
(0.0013715848 -4.3469921e-11 -0.00010562579)
(0.0014310594 -3.6299293e-11 -0.0001340993)
(0.0015124286 -3.5253093e-11 -0.00015170844)
(0.0015851837 -4.2848668e-11 -0.000124304)
(0.001622451 -6.5576322e-11 -8.2930743e-05)
(0.0016342677 -1.0531947e-10 -3.9374031e-05)
(0.0016270904 -1.5833806e-10 5.3978136e-06)
(0.0015998336 -2.1558662e-10 4.9832696e-05)
(0.0015530014 -2.5709126e-10 7.9822375e-05)
(0.0014965025 -2.6152842e-10 9.358172e-05)
(0.0014399377 -2.1743213e-10 9.4493919e-05)
(0.0013889771 -1.562471e-10 8.6588846e-05)
(0.0013464638 -1.0383429e-10 7.3728985e-05)
(0.0013132277 -6.5285818e-11 5.9225362e-05)
(0.0012885849 -4.1213853e-11 4.5393591e-05)
(0.0012710195 -3.0564097e-11 3.3513387e-05)
(0.0012588354 -2.8591491e-11 2.4027148e-05)
(0.0012505534 -3.469749e-11 1.6843423e-05)
(0.001244989 -5.1423005e-11 1.1624024e-05)
(0.0012403319 -7.5087736e-11 8.1390041e-06)
(0.0010168428 -5.7009412e-05 5.114046e-05)
(0.0010668717 -6.0018475e-05 6.4491732e-05)
(0.0011105015 -4.9125023e-05 5.9475461e-05)
(0.0011428449 -3.6245531e-05 4.6275638e-05)
(0.0011671852 -2.4115788e-05 2.8850385e-05)
(0.0011864745 -1.4455938e-05 9.7775061e-06)
(0.0012036508 -7.7157165e-06 -9.7816191e-06)
(0.0012217767 -3.4298044e-06 -3.0120252e-05)
(0.0012445311 -8.4172971e-07 -5.2226968e-05)
(0.0012754566 8.3724694e-07 -7.7148119e-05)
(0.0013188071 2.1534568e-06 -0.00010495015)
(0.00137942 3.1688019e-06 -0.00013257715)
(0.0014617207 3.1207359e-06 -0.00014877117)
(0.0015339007 9.7774922e-07 -0.00011918134)
(0.0015684658 -1.1908078e-06 -7.6584358e-05)
(0.0015765909 -2.400935e-06 -3.2844558e-05)
(0.001566228 -2.3860288e-06 1.1258922e-05)
(0.0015366621 -1.9951311e-06 5.4515571e-05)
(0.0014884316 -1.4002299e-06 8.2727079e-05)
(0.0014317431 -4.8808289e-07 9.440157e-05)
(0.0013762475 3.8456686e-07 9.3289097e-05)
(0.001327326 8.5828172e-07 8.3812092e-05)
(0.0012873596 8.8816443e-07 7.0136072e-05)
(0.0012566027 6.5164539e-07 5.5505015e-05)
(0.0012340258 3.456287e-07 4.2019815e-05)
(0.0012180134 9.1305194e-08 3.0712774e-05)
(0.0012069144 -7.2974197e-08 2.1841848e-05)
(0.0011993592 -1.6397028e-07 1.5214257e-05)
(0.0011942575 -2.2357083e-07 1.0453518e-05)
(0.0011899295 -3.0925036e-07 7.3201294e-06)
(0.00094603696 -6.100833e-05 4.619458e-05)
(0.00094263772 -6.5827476e-05 5.5415416e-05)
(0.00090048419 -5.3632137e-05 4.9767634e-05)
(0.00086519066 -3.9901864e-05 3.6148289e-05)
(0.00084423181 -2.7638828e-05 1.9606851e-05)
(0.00083403462 -1.8031917e-05 3.1125351e-06)
(0.00083226907 -1.1164045e-05 -1.2756447e-05)
(0.00083859768 -6.4776891e-06 -2.8757804e-05)
(0.00085350391 -3.2414167e-06 -4.5944407e-05)
(0.00087827642 -8.0971587e-07 -6.5039582e-05)
(0.00091553338 1.1261179e-06 -8.5618288e-05)
(0.00096756567 2.3887144e-06 -0.00010403573)
(0.0010359862 2.6653029e-06 -0.00011053156)
(0.0010863889 -5.3038553e-07 -7.6712103e-05)
(0.001097824 -2.8146894e-06 -3.7475799e-05)
(0.0010879041 -3.9335569e-06 -9.2499681e-07)
(0.0010671588 -3.7572334e-06 3.2358956e-05)
(0.001033021 -3.6315519e-06 6.3026328e-05)
(0.00098682876 -2.9424669e-06 7.7530027e-05)
(0.00093942024 -1.7795226e-06 7.7828849e-05)
(0.0008985395 -6.4415847e-07 6.9260104e-05)
(0.00086668493 7.2360265e-08 5.6654274e-05)
(0.00084328567 3.064344e-07 4.3507054e-05)
(0.00082675882 2.5218677e-07 3.185632e-05)
(0.00081535744 1.046417e-07 2.2510405e-05)
(0.0008075795 -2.7908405e-08 1.5498066e-05)
(0.0008022971 -1.1023026e-07 1.0477651e-05)
(0.00079871298 -1.5295614e-07 7.0058359e-06)
(0.00079624275 -1.72604e-07 4.6842567e-06)
(0.00079394925 -2.7154276e-07 3.2994984e-06)
(0.00094470459 6.107629e-05 1.3091996e-05)
(0.00093948895 6.6190729e-05 1.9554455e-05)
(0.00089881923 5.3949573e-05 1.8431969e-05)
(0.0008649782 4.0082993e-05 1.1626216e-05)
(0.0008441914 2.7629734e-05 1.2204164e-06)
(0.00083227938 1.7700961e-05 -1.1536817e-05)
(0.00082642042 1.0628402e-05 -2.6516488e-05)
(0.00082604615 5.7024047e-06 -4.4842398e-05)
(0.00083217156 1.9995232e-06 -6.8142075e-05)
(0.00084770325 -1.1903862e-06 -9.7953512e-05)
(0.00087856196 -4.2738815e-06 -0.00013485178)
(0.00093344534 -6.7787051e-06 -0.00017239346)
(0.0010374601 -7.4367519e-06 -0.00018087473)
(0.0011280623 4.311278e-07 -3.9995529e-05)
(0.001155103 5.5323197e-06 2.6312843e-05)
(0.0011567821 7.8977412e-06 7.0236498e-05)
(0.0011434318 9.0189226e-06 0.00010859611)
(0.0010987803 1.0431018e-05 0.00016074617)
(0.0010255668 8.2558894e-06 0.0001696057)
(0.0009573257 4.2405545e-06 0.00015573379)
(0.00090402271 5.2773977e-07 0.00012966776)
(0.00086678241 -1.6997013e-06 0.00010004179)
(0.00084267529 -2.3524632e-06 7.2691579e-05)
(0.00082801812 -2.054071e-06 5.0521941e-05)
(0.00081948884 -1.4394626e-06 3.4067472e-05)
(0.0008146484 -8.6976476e-07 2.2539313e-05)
(0.00081192739 -4.6275992e-07 1.4745309e-05)
(0.0008103963 -2.1003054e-07 9.5869784e-06)
(0.00080952439 -6.4059479e-08 6.2259073e-06)
(0.00080889651 4.3207211e-08 4.2050715e-06)
(0.0010160568 5.7154092e-05 1.4947954e-05)
(0.0010649242 6.0529586e-05 2.3465695e-05)
(0.0011106903 4.9535116e-05 2.3347173e-05)
(0.0011455412 3.6466222e-05 1.6586255e-05)
(0.001170762 2.4094268e-05 5.1331689e-06)
(0.0011886458 1.4096308e-05 -9.8076615e-06)
(0.0012013617 7.1873123e-06 -2.7929648e-05)
(0.0012116815 2.7975434e-06 -5.0478723e-05)
(0.001223446 -6.1823102e-08 -7.9644357e-05)
(0.0012412679 -2.2908518e-06 -0.000117854)
(0.0012727069 -4.6076498e-06 -0.00016719201)
(0.0013294475 -7.1033636e-06 -0.00022339663)
(0.0014400998 -6.9935276e-06 -0.00025275354)
(0.0015548785 -2.750445e-08 -0.00010493716)
(0.0016084149 5.3790004e-06 -2.1611903e-05)
(0.0016394206 7.9121488e-06 4.2686679e-05)
(0.0016504054 9.1770211e-06 0.00010268846)
(0.0016214654 9.5855959e-06 0.00017546578)
(0.0015533081 7.7882899e-06 0.00020488519)
(0.0014767422 3.9707019e-06 0.00020539147)
(0.0014057269 2.0081885e-07 0.00018658321)
(0.0013455649 -2.2031584e-06 0.00015669192)
(0.0012989089 -3.0305604e-06 0.00012330224)
(0.0012654997 -2.7413536e-06 9.2075855e-05)
(0.001243229 -1.9867147e-06 6.6074193e-05)
(0.0012292641 -1.2297084e-06 4.6088697e-05)
(0.0012209328 -6.6404477e-07 3.1534655e-05)
(0.0012161575 -3.0552019e-07 2.1289301e-05)
(0.0012135099 -9.6764588e-08 1.4218943e-05)
(0.0012118266 3.4095986e-08 9.5993794e-06)
(0.0010214066 2.4636326e-11 1.5077699e-05)
(0.0010827444 7.0519687e-11 2.3776762e-05)
(0.0011438456 9.6824638e-11 2.3807744e-05)
(0.00119075 7.8395853e-11 1.7194461e-05)
(0.0012234781 2.5330819e-11 5.8245021e-06)
(0.0012451135 -3.2658096e-11 -9.1275605e-06)
(0.0012589914 -7.0374936e-11 -2.7322615e-05)
(0.0012689278 -8.2722719e-11 -4.9928511e-05)
(0.0012795094 -7.42069e-11 -7.9114029e-05)
(0.0012957762 -6.6020285e-11 -0.00011744473)
(0.0013252624 -5.9771769e-11 -0.00016710428)
(0.0013796471 -5.7067504e-11 -0.00022432681)
(0.0014868436 -5.4794786e-11 -0.00025572141)
(0.0016013241 -5.9079058e-11 -0.00011349412)
(0.0016582414 -8.4346129e-11 -3.3381292e-05)
(0.0016941212 -1.2551787e-10 3.0970283e-05)
(0.0017109889 -1.8632182e-10 9.3633663e-05)
(0.0016870277 -2.641232e-10 0.0001689517)
(0.001622532 -3.2512504e-10 0.00020167286)
(0.0015472359 -3.4527103e-10 0.00020569594)
(0.0014750743 -3.1672658e-10 0.00019008816)
(0.0014119624 -2.5091574e-10 0.00016242289)
(0.0013613891 -1.8714602e-10 0.00012988932)
(0.0013242467 -1.3272924e-10 9.836866e-05)
(0.0012990207 -9.44112e-11 7.1418881e-05)
(0.0012830083 -7.0924186e-11 5.0285878e-05)
(0.0012733993 -5.7738714e-11 3.4660618e-05)
(0.0012678916 -5.4510037e-11 2.3534033e-05)
(0.0012648547 -6.3693279e-11 1.5783913e-05)
(0.0012629563 -8.1321034e-11 1.0661669e-05)
(0.0010160568 -5.7154057e-05 1.4947952e-05)
(0.0010649242 -6.0529484e-05 2.3465689e-05)
(0.0011106904 -4.9534968e-05 2.3347167e-05)
(0.0011455414 -3.6466092e-05 1.6586254e-05)
(0.0011707622 -2.4094208e-05 5.1331766e-06)
(0.001188646 -1.4096329e-05 -9.8076472e-06)
(0.0012013619 -7.1873868e-06 -2.7929629e-05)
(0.0012116816 -2.7976357e-06 -5.0478701e-05)
(0.0012234461 6.173977e-08 -7.9644335e-05)
(0.001241268 2.2907899e-06 -0.00011785398)
(0.001272707 4.6076106e-06 -0.000167192)
(0.0013294475 7.1033401e-06 -0.00022339662)
(0.0014400998 6.9935148e-06 -0.00025275355)
(0.0015548785 2.7491985e-08 -0.00010493718)
(0.0016084148 -5.3790307e-06 -2.1611937e-05)
(0.0016394205 -7.9122243e-06 4.2686627e-05)
(0.0016504052 -9.1771733e-06 0.00010268838)
(0.0016214652 -9.58586e-06 0.0001754656)
(0.0015533079 -7.7886634e-06 0.00020488493)
(0.001476742 -3.9711459e-06 0.00020539119)
(0.0014057268 -2.0125334e-07 0.00018658295)
(0.0013455648 2.2028187e-06 0.00015669173)
(0.0012989089 3.0303441e-06 0.00012330212)
(0.0012654997 2.7412383e-06 9.2075798e-05)
(0.001243229 1.9866593e-06 6.6074177e-05)
(0.0012292641 1.2296797e-06 4.6088706e-05)
(0.0012209328 6.6402409e-07 3.1534676e-05)
(0.0012161574 3.0549358e-07 2.1289327e-05)
(0.0012135098 9.6713875e-08 1.4218971e-05)
(0.0012118264 -3.4189178e-08 9.5994071e-06)
(0.00094470459 -6.107628e-05 1.3091993e-05)
(0.00093948899 -6.61907e-05 1.9554447e-05)
(0.00089881935 -5.3949535e-05 1.8431962e-05)
(0.00086497841 -4.0082968e-05 1.1626217e-05)
(0.00084419167 -2.7629734e-05 1.2204276e-06)
(0.00083227965 -1.7700985e-05 -1.1536797e-05)
(0.00082642066 -1.0628441e-05 -2.6516462e-05)
(0.00082604634 -5.7024499e-06 -4.4842369e-05)
(0.00083217171 -1.9995723e-06 -6.8142042e-05)
(0.00084770335 1.1903448e-06 -9.7953474e-05)
(0.00087856204 4.2738496e-06 -0.00013485174)
(0.00093344539 6.7786779e-06 -0.00017239341)
(0.0010374601 7.4367248e-06 -0.0001808747)
(0.0011280623 -4.3115709e-07 -3.9995523e-05)
(0.001155103 -5.5323516e-06 2.6312815e-05)
(0.0011567822 -7.8977908e-06 7.0236431e-05)
(0.0011434318 -9.0190072e-06 0.00010859599)
(0.0010987803 -1.0431154e-05 0.00016074591)
(0.0010255669 -8.2560847e-06 0.00016960537)
(0.00095732571 -4.2407911e-06 0.00015573346)
(0.00090402266 -5.2796702e-07 0.00012966748)
(0.00086678229 1.6995335e-06 0.00010004161)
(0.00084267514 2.3523658e-06 7.2691492e-05)
(0.00082801796 2.0540142e-06 5.0521931e-05)
(0.00081948867 1.4394203e-06 3.406751e-05)
(0.00081464824 8.6972858e-07 2.2539373e-05)
(0.0008119272 4.6273155e-07 1.4745373e-05)
(0.0008103961 2.100096e-07 9.5870338e-06)
(0.00080952415 6.403789e-08 6.2259507e-06)
(0.0008088962 -4.3249851e-08 4.2051063e-06)
(0.00094224866 6.1268664e-05 9.1753518e-06)
(0.00093097394 6.6507644e-05 1.4042803e-05)
(0.00088565457 5.407441e-05 1.3346089e-05)
(0.00084876244 3.9945148e-05 8.117605e-06)
(0.00082528608 2.734685e-05 -6.7404712e-07)
(0.00081033526 1.7433951e-05 -1.2874345e-05)
(0.00080062091 1.0229449e-05 -2.9429542e-05)
(0.00079466418 4.9236622e-06 -5.2597672e-05)
(0.00079289783 3.7894885e-07 -8.6562801e-05)
(0.00079832932 -4.257293e-06 -0.00013814285)
(0.00082082388 -9.6833631e-06 -0.0002181529)
(0.00087384075 -1.4130617e-05 -0.00033806987)
(0.00099431145 -5.9560551e-06 -0.00048286901)
(0.001041388 3.4779191e-05 -0.00024490088)
(0.00087983059 3.4451686e-05 -0.00010465683)
(0.00085111068 2.9186829e-05 -1.9565186e-05)
(0.00088118826 2.8310373e-05 6.6677461e-05)
(0.00088604938 3.2998458e-05 0.00023573604)
(0.00080678213 2.2448195e-05 0.00025154642)
(0.00077598202 1.0977323e-05 0.00023760528)
(0.00076666749 2.4925224e-06 0.00019506713)
(0.00077041045 -2.0233312e-06 0.00014692296)
(0.00077905514 -3.393086e-06 0.00010369299)
(0.00078787956 -3.0856623e-06 6.9405951e-05)
(0.00079501502 -2.2504835e-06 4.4638033e-05)
(0.00080014613 -1.4579627e-06 2.7969173e-05)
(0.00080360198 -8.8122613e-07 1.7288394e-05)
(0.00080584381 -5.1534548e-07 1.0636003e-05)
(0.00080730193 -3.0095707e-07 6.5422645e-06)
(0.00080862871 -2.3245993e-07 4.1614744e-06)
(0.0010135723 5.7178417e-05 1.0281259e-05)
(0.001055908 6.0752124e-05 1.6396782e-05)
(0.0010963439 4.9604843e-05 1.6416677e-05)
(0.0011274297 3.6307605e-05 1.1244253e-05)
(0.0011491273 2.3805759e-05 1.7206529e-06)
(0.0011627198 1.3807706e-05 -1.2097769e-05)
(0.0011698469 6.7595244e-06 -3.1416978e-05)
(0.0011722552 2.0075649e-06 -5.8811183e-05)
(0.0011722205 -1.6470241e-06 -9.9225124e-05)
(0.0011732757 -5.5096626e-06 -0.00016105318)
(0.0011856802 -1.0544859e-05 -0.00025864671)
(0.0012271824 -1.6410147e-05 -0.00041044207)
(0.0013345786 -1.0969925e-05 -0.00061232077)
(0.0014100942 3.5732948e-05 -0.00037531687)
(0.0012384485 4.3019821e-05 -0.00021288429)
(0.0012048815 3.5474772e-05 -9.9529467e-05)
(0.0012501519 3.0661668e-05 2.4766795e-05)
(0.0012853667 3.3184872e-05 0.00024086222)
(0.0012254333 2.4558405e-05 0.00029473452)
(0.0011990707 1.2462011e-05 0.00030767483)
(0.0011880388 2.9541828e-06 0.00028019719)
(0.0011853889 -2.4743387e-06 0.00023288632)
(0.0011874705 -4.3765599e-06 0.00018028862)
(0.0011915336 -4.1455014e-06 0.00013130961)
(0.0011959041 -3.0953284e-06 9.0913756e-05)
(0.0011998213 -2.0089491e-06 6.0567046e-05)
(0.0012030348 -1.1872135e-06 3.9308887e-05)
(0.0012055265 -6.6382351e-07 2.510139e-05)
(0.0012074128 -3.7882435e-07 1.5838811e-05)
(0.0012093031 -2.6937985e-07 1.0041906e-05)
(0.0010189232 2.2354349e-11 1.0471782e-05)
(0.0010737329 6.5438892e-11 1.6745426e-05)
(0.001129527 9.1421958e-11 1.6871918e-05)
(0.0011726561 7.5776118e-11 1.1800634e-05)
(0.001201804 2.7296204e-11 2.3460677e-06)
(0.0012190912 -2.5812815e-11 -1.1449504e-05)
(0.0012273684 -6.1466043e-11 -3.076784e-05)
(0.0012294448 -7.4077371e-11 -5.8134701e-05)
(0.0012282148 -7.0388793e-11 -9.8447452e-05)
(0.0012276766 -6.4582908e-11 -0.0001602398)
(0.0012376019 -6.3075073e-11 -0.00025797208)
(0.0012759041 -6.3367986e-11 -0.00041090455)
(0.001373927 -4.5285653e-11 -0.00061700376)
(0.0014490285 -4.3163989e-11 -0.00038818461)
(0.0012828054 -4.6911981e-11 -0.00022988372)
(0.0012540828 -6.3834643e-11 -0.00011643113)
(0.0013011301 -1.1690965e-10 1.1450767e-05)
(0.0013411757 -2.5350894e-10 0.00023031092)
(0.0012865057 -3.1096764e-10 0.00029034597)
(0.001261985 -3.0628563e-10 0.00030961798)
(0.0012501086 -2.5368054e-10 0.00028746517)
(0.0012449828 -1.9224597e-10 0.00024317489)
(0.0012440689 -1.4303478e-10 0.00019132674)
(0.0012455777 -1.0704329e-10 0.00014135597)
(0.0012481838 -8.2406003e-11 9.9055908e-05)
(0.0012510739 -6.4701696e-11 6.6635203e-05)
(0.0012537923 -5.1050371e-11 4.3572332e-05)
(0.0012561076 -4.4003138e-11 2.7978485e-05)
(0.0012579708 -4.7945319e-11 1.7721406e-05)
(0.001259906 -6.152609e-11 1.1236419e-05)
(0.0010135723 -5.7178385e-05 1.0281255e-05)
(0.0010559081 -6.0752028e-05 1.6396772e-05)
(0.001096344 -4.9604702e-05 1.6416666e-05)
(0.0011274298 -3.6307477e-05 1.1244248e-05)
(0.0011491275 -2.3805695e-05 1.7206577e-06)
(0.00116272 -1.3807716e-05 -1.2097755e-05)
(0.0011698471 -6.7595842e-06 -3.141696e-05)
(0.0011722553 -2.0076411e-06 -5.8811164e-05)
(0.0011722206 1.6469568e-06 -9.922511e-05)
(0.0011732758 5.5096133e-06 -0.00016105317)
(0.0011856802 1.0544821e-05 -0.0002586467)
(0.0012271824 1.6410113e-05 -0.00041044206)
(0.0013345785 1.0969909e-05 -0.00061232077)
(0.0014100942 -3.5732957e-05 -0.00037531688)
(0.0012384484 -4.3019826e-05 -0.00021288431)
(0.0012048813 -3.5474788e-05 -9.9529527e-05)
(0.0012501516 -3.0661732e-05 2.476667e-05)
(0.0012853663 -3.3185088e-05 0.00024086188)
(0.0012254331 -2.4558702e-05 0.00029473404)
(0.0011990706 -1.2462335e-05 0.00030767423)
(0.0011880388 -2.954475e-06 0.00028019663)
(0.001185389 2.4741227e-06 0.00023288588)
(0.0011874706 4.3764275e-06 0.00018028832)
(0.0011915337 4.1454303e-06 0.00013130944)
(0.0011959041 3.0952908e-06 9.0913679e-05)
(0.0011998213 2.0089277e-06 6.0567026e-05)
(0.0012030348 1.1872006e-06 3.9308898e-05)
(0.0012055265 6.6380978e-07 2.5101417e-05)
(0.0012074127 3.7879213e-07 1.5838845e-05)
(0.001209303 2.6931149e-07 1.0041946e-05)
(0.00094224866 -6.1268655e-05 9.175347e-06)
(0.00093097397 -6.6507616e-05 1.404279e-05)
(0.00088565468 -5.4074373e-05 1.3346073e-05)
(0.00084876264 -3.9945122e-05 8.1175971e-06)
(0.00082528633 -2.7346849e-05 -6.7404246e-07)
(0.00081033552 -1.7433973e-05 -1.2874329e-05)
(0.00080062114 -1.0229485e-05 -2.942952e-05)
(0.00079466437 -4.9237031e-06 -5.2597647e-05)
(0.00079289798 -3.7898945e-07 -8.6562772e-05)
(0.00079832943 4.2572572e-06 -0.00013814282)
(0.00082082396 9.6833277e-06 -0.00021815286)
(0.0008738408 1.4130573e-05 -0.00033806983)
(0.00099431148 5.9560097e-06 -0.00048286898)
(0.001041388 -3.4779229e-05 -0.00024490087)
(0.00087983058 -3.4451715e-05 -0.00010465687)
(0.00085111062 -2.9186852e-05 -1.9565283e-05)
(0.00088118804 -2.8310403e-05 6.6677285e-05)
(0.00088604914 -3.2998531e-05 0.00023573559)
(0.00080678211 -2.2448313e-05 0.0002515458)
(0.00077598213 -1.0977473e-05 0.00023760459)
(0.00076666761 -2.4926729e-06 0.00019506654)
(0.0007704105 2.0232158e-06 0.00014692253)
(0.00077905512 3.3930115e-06 0.00010369274)
(0.00078787948 3.0856092e-06 6.9405854e-05)
(0.0007950149 2.2504357e-06 4.4638033e-05)
(0.00080014597 1.4579193e-06 2.7969223e-05)
(0.00080360179 8.8119275e-07 1.7288461e-05)
(0.0008058436 5.1532199e-07 1.0636067e-05)
(0.00080730168 3.0093384e-07 6.5423181e-06)
(0.00080862838 2.3241887e-07 4.1615213e-06)
(0.00094146625 6.1326187e-05 5.1457545e-07)
(0.00092791227 6.6589474e-05 5.0636471e-07)
(0.0008796036 5.4126187e-05 -6.1083837e-07)
(0.00083927405 3.992563e-05 -2.9779214e-06)
(0.0008113499 2.7228951e-05 -6.7286803e-06)
(0.00078923376 1.7146415e-05 -1.2325337e-05)
(0.00076709114 9.6609543e-06 -2.1122209e-05)
(0.00073970581 3.7558903e-06 -3.5570974e-05)
(0.00070113926 -2.1004261e-06 -6.0256734e-05)
(0.00064230035 -9.5821289e-06 -0.0001041292)
(0.00055306936 -2.2217939e-05 -0.00018506898)
(0.0003939624 -3.9526804e-05 -0.00032847643)
(0.00018269558 -4.7701547e-05 -0.00046574216)
(0.00010257913 4.4565765e-05 0.00025635298)
(0.00016118019 1.1764708e-05 0.00022524627)
(0.00036122585 6.5133948e-07 0.00019071721)
(0.00047673679 -9.2318951e-06 0.00013981512)
(0.000582263 -1.2467785e-05 9.646504e-05)
(0.00066163677 -1.124837e-05 6.4151356e-05)
(0.00071613112 -8.3739487e-06 4.1518898e-05)
(0.00075168927 -5.5365917e-06 2.6383488e-05)
(0.00077406883 -3.3730934e-06 1.6597331e-05)
(0.00078782125 -1.9421358e-06 1.0398382e-05)
(0.00079615644 -1.0945065e-06 6.497982e-06)
(0.00080126316 -6.4653927e-07 4.0318632e-06)
(0.00080553956 -6.1287413e-07 2.5384175e-06)
(0.001012748 5.7225388e-05 6.53092e-07)
(0.0010526287 6.0872941e-05 7.7327373e-07)
(0.0010897817 4.971982e-05 -3.2978902e-07)
(0.0011169389 3.6345923e-05 -2.8758366e-06)
(0.0011334491 2.3741453e-05 -7.0553392e-06)
(0.0011388403 1.3614396e-05 -1.3411721e-05)
(0.0011318451 6.3892559e-06 -2.3426517e-05)
(0.0011097398 1.235298e-06 -3.994557e-05)
(0.0010665723 -3.3949098e-06 -6.834849e-05)
(0.00099077151 -9.7297877e-06 -0.0001195202)
(0.00086530828 -2.1290283e-05 -0.00021669426)
(0.00062878384 -4.2307195e-05 -0.00039843212)
(0.00030056394 -6.9176799e-05 -0.00060363206)
(0.00019398212 6.0496237e-05 0.00034869012)
(0.00028939022 1.8336981e-05 0.00031813575)
(0.00055930689 9.4711928e-10 0.00028256203)
(0.00072255117 -1.0204568e-05 0.00022414717)
(0.00086336767 -1.4556569e-05 0.00016720453)
(0.00097325315 -1.3759672e-05 0.00011968111)
(0.001052386 -1.0641559e-05 8.2757071e-05)
(0.0011069977 -7.2398135e-06 5.5637331e-05)
(0.0011436043 -4.4820502e-06 3.6621415e-05)
(0.0011676243 -2.5801624e-06 2.3744963e-05)
(0.0011831223 -1.4270665e-06 1.5213864e-05)
(0.0011930486 -8.4566725e-07 9.6058549e-06)
(0.0012010205 -7.1556449e-07 6.0310811e-06)
(0.0010180925 1.9032737e-11 6.5031665e-07)
(0.0010704551 5.6854365e-11 7.74164e-07)
(0.0011229955 8.0998788e-11 -3.2012056e-07)
(0.0011621992 6.8523752e-11 -2.8508424e-06)
(0.0011861295 2.5676014e-11 -7.0195137e-06)
(0.0011951961 -2.2853726e-11 -1.3367105e-05)
(0.0011893534 -5.6456033e-11 -2.3362681e-05)
(0.001166919 -6.9287002e-11 -3.9836238e-05)