/*--------------------------------*- C++ -*----------------------------------*\
| =========                 |                                                 |
| \\      /  F ield         | OpenFOAM: The Open Source CFD Toolbox           |
|  \\    /   O peration     | Version:  2412                                  |
|   \\  /    A nd           | Website:  www.openfoam.com                      |
|    \\/     M anipulation  |                                                 |
\*---------------------------------------------------------------------------*/
FoamFile
{
    version     2.0;
    format      ascii;
    arch        "LSB;label=32;scalar=64";
    class       volVectorField;
    location    "2.6";
    object      flux;
}
// * * * * * * * * * * * * * * * * * * * * * * * * * * * * * * * * * * * * * //

dimensions      [0 1 -1 1 0 0 0];

internalField   nonuniform List<vector> 
5712
(
(-0.310283 0.505133 0.285207)
(-0.378964 0.277522 0.866952)
(-0.709733 0.880585 0.216188)
(-1.10769 0.576162 0.948895)
(-1.07125 0.847668 0.118514)
(-2.09018 0.720228 1.00595)
(-0.741582 1.25107 0.202585)
(-2.23087 1.54801 1.59568)
(-0.76524 1.90327 0.331337)
(-1.78924 2.40756 2.00423)
(-0.940656 1.00765 0.339322)
(-1.5459 0.884635 1.42052)
(-0.719984 0.620584 0.361964)
(-0.951144 0.427248 1.26183)
(-0.387193 0.409235 0.356599)
(-0.392658 0.232951 1.08341)
(-0.501944 0.84261 0.167722)
(-0.566449 0.763496 0.0905529)
(-0.690244 0.760607 0.50547)
(-0.625022 0.755137 0.237739)
(-0.48081 0.967546 0.156493)
(-0.724025 0.931169 0.0716481)
(-0.717563 1.11588 0.545683)
(-0.718874 0.962869 0.21929)
(-0.202499 0.297905 0.217806)
(-0.146113 0.209655 0.159874)
(-0.274709 0.155013 0.643325)
(-0.195932 0.10725 0.468649)
(-0.45886 0.434344 0.145958)
(-0.29592 0.281316 0.114234)
(-0.850054 0.240563 0.647202)
(-0.591026 0.155871 0.488312)
(-0.708246 0.852947 0.327596)
(-0.716583 0.904976 0.118846)
(-0.717064 0.767368 0.247177)
(-0.721386 0.629099 0.0891569)
(-0.162905 0.621955 0.112536)
(-0.147034 0.484038 0.303035)
(-1.65178 0.525361 1.55894)
(-2.04324 0.501301 0.476604)
(-0.878149 0.703377 0.46732)
(-1.17271 0.690297 0.216275)
(-2.13286 1.42798 1.8949)
(-2.62476 1.57184 0.594417)
(-0.988232 1.02562 0.437015)
(-1.21599 1.08324 0.205838)
(-1.23537 0.736033 1.03038)
(-1.6158 0.579308 0.343605)
(-0.983512 0.75348 0.524755)
(-1.36355 0.529504 0.23936)
(-0.564232 0.320025 0.837151)
(-0.715576 0.275877 0.266358)
(-0.114608 0.237686 0.189965)
(-0.0361993 0.348884 0.103125)
(-0.149308 0.118114 0.3396)
(-0.0516248 0.15937 0.136982)
(-0.25626 0.315324 0.168085)
(-0.105232 0.466399 0.106737)
(-0.445946 0.197794 0.35675)
(-0.163383 0.269143 0.134154)
(-0.291084 0.322388 0.226112)
(-0.0966417 0.559662 0.143787)
(-0.29599 0.245471 0.223375)
(-0.0836935 0.400339 0.0933191)
(-0.583164 0.0770313 0.399947)
(-0.16963 0.269416 0.144122)
(-0.765133 0.01364 0.157571)
(-0.239573 0.193104 0.0580899)
(-0.989717 0.725905 0.48732)
(-0.564362 0.873682 0.365426)
(-0.83807 0.759323 0.2962)
(-0.578834 0.863346 0.264895)
(-1.0184 0.91799 0.549152)
(-0.65571 0.936837 0.480787)
(-0.808541 0.933008 0.298036)
(-0.655232 0.91224 0.317892)
(-0.646735 0.674176 0.273243)
(-0.465859 0.814934 0.2334)
(-0.707928 0.675789 0.354255)
(-0.446406 0.804361 0.302004)
(-0.814795 0.759679 0.221078)
(-0.602051 0.855781 0.189739)
(-0.842264 0.744912 0.128774)
(-0.618673 0.849386 0.11042)
(-0.792784 0.938404 0.221452)
(-0.672063 0.897764 0.220866)
(-0.823784 0.937597 0.127096)
(-0.686365 0.889498 0.12715)
(-0.668858 0.632397 0.21097)
(-0.495581 0.815789 0.164666)
(-0.721739 0.576657 0.123607)
(-0.515021 0.811789 0.0867565)
(-0.711525 0.690547 0.233856)
(-0.290912 0.735144 0.131478)
(-0.404076 0.870023 0.233848)
(-0.459553 1.2106 0.259033)
(-0.764033 0.722349 0.309148)
(-0.334429 0.845133 0.235623)
(-0.3986 0.864517 0.333387)
(-0.478199 1.31796 0.441833)
(-0.714723 0.653903 0.171545)
(-0.272202 0.65288 0.073233)
(-0.424881 0.865957 0.150631)
(-0.454739 1.15199 0.156069)
(-0.739526 0.628727 0.0974198)
(-0.274348 0.600368 0.0339341)
(-0.447778 0.864978 0.0691307)
(-0.459843 1.12329 0.0599205)
(-0.110711 0.17155 0.215028)
(-0.124138 0.215443 0.437092)
(-0.0388316 0.466614 0.157629)
(-0.0761569 0.755482 0.495144)
(-0.319462 0.206614 0.232453)
(-0.374301 0.230366 0.443299)
(-0.130434 0.578953 0.18805)
(-0.246208 0.850745 0.527745)
(-0.51899 0.247355 0.307924)
(-0.615952 0.257345 0.441386)
(-0.231416 0.709922 0.261462)
(-0.413275 0.963998 0.538363)
(-0.694169 0.989084 0.346388)
(-0.367313 1.10672 0.421051)
(-0.69689 0.825315 0.263163)
(-0.830029 0.749087 0.263397)
(-0.414238 1.00664 0.324356)
(-0.270854 1.12894 0.277668)
(-0.433135 0.970451 0.302087)
(-0.487497 0.827146 0.414051)
(-0.842898 0.693776 0.481707)
(-0.528328 1.13429 0.70811)
(-0.392895 1.03488 0.374819)
(-0.512248 0.948038 0.299135)
(-0.564178 0.789395 0.282905)
(-0.542237 0.800775 0.358795)
(-0.673117 1.48102 0.574364)
(-0.123027 0.0624918 0.545271)
(-0.126491 0.0822367 0.528149)
(-0.0757004 0.165986 0.637664)
(-0.0809459 0.338233 0.642044)
(-0.364947 0.08884 0.532882)
(-0.350307 0.122755 0.534096)
(-0.232738 0.22164 0.640255)
(-0.237075 0.397632 0.6372)
(-0.547493 0.134518 0.492575)
(-0.505055 0.12997 0.511721)
(-0.343675 0.298621 0.614983)
(-0.346601 0.476724 0.621274)
(-0.385931 1.1061 0.349823)
(-0.432397 1.11342 0.371367)
(-0.610168 0.912763 0.337834)
(-0.647348 0.881675 0.356662)
(-0.671913 0.761934 0.409329)
(-0.632954 0.684973 0.408958)
(-0.793265 0.552788 0.477526)
(-0.73051 0.493648 0.464155)
(-0.540361 0.420691 0.601952)
(-0.539379 0.621448 0.608613)
(-0.517061 0.977537 0.319461)
(-0.566656 0.890914 0.350255)
(-0.665661 0.897525 0.358548)
(-0.616055 0.849463 0.381217)
(-0.623566 0.751913 0.398256)
(-0.5289 0.70111 0.428263)
(-0.554783 0.640864 0.457538)
(-0.450656 0.571133 0.500503)
(-0.610432 0.502139 0.601743)
(-0.489613 0.684108 0.65248)
(-0.565465 0.918661 0.372966)
(-0.311499 0.980548 0.254343)
(-0.443142 0.949027 0.302105)
(-0.435147 1.04387 0.305682)
(-0.624319 0.932005 0.420305)
(-0.731817 0.864012 0.480314)
(-0.637548 0.943365 0.341844)
(-0.834401 0.906908 0.453989)
(-0.372518 0.824068 0.275865)
(-0.370988 0.834868 0.281597)
(-0.51095 0.813408 0.350591)
(-0.241003 0.810606 0.251325)
(-0.426669 0.964332 0.126681)
(-0.676587 1.06869 0.220759)
(-0.439883 0.955906 0.0518458)
(-0.720212 1.05692 0.0821427)
(-0.646281 0.953965 0.211673)
(-1.02109 0.94359 0.336849)
(-0.66671 0.941429 0.0830972)
(-1.04231 0.935068 0.126248)
(-0.35925 0.816263 0.1054)
(-0.591542 0.828463 0.192703)
(-0.370191 0.825761 0.0391772)
(-0.639085 0.833914 0.0700496)
(-0.441422 0.702601 0.261557)
(-0.33289 0.695731 0.223693)
(-0.561501 0.480532 0.266711)
(-0.257221 0.572948 0.166493)
(-0.480035 0.708453 0.367935)
(-0.189376 0.685268 0.262032)
(-0.531869 0.493673 0.417811)
(-0.13898 0.591074 0.278334)
(-0.456603 0.683576 0.121373)
(-0.472637 0.686039 0.142591)
(-0.586979 0.475027 0.151601)
(-0.304821 0.574241 0.0857958)
(-0.410563 0.689615 0.0941251)
(-0.54324 0.678396 0.103181)
(-0.538231 0.470619 0.105132)
(-0.38655 0.560736 0.0798397)
(-0.119223 0.0718802 0.458029)
(-0.111714 0.0593975 0.300969)
(-0.0976549 0.0442988 0.0981276)
(-0.0768631 0.0404759 0.496184)
(-0.0756327 0.0352666 0.311575)
(-0.0667631 0.0348288 0.107594)
(-0.324418 0.107203 0.451481)
(-0.282923 0.0775165 0.294458)
(-0.249813 0.0613341 0.0997862)
(-0.210141 0.0939923 0.496115)
(-0.177869 0.0848724 0.310839)
(-0.151864 0.0743448 0.105124)
(-0.426635 0.115273 0.432009)
(-0.366317 0.113688 0.277409)
(-0.337934 0.122014 0.0928653)
(-0.302224 0.169832 0.488426)
(-0.246857 0.149646 0.306343)
(-0.225752 0.138318 0.105217)
(-0.391519 1.07427 0.264588)
(-0.322855 0.969049 0.150143)
(-0.309326 0.893416 0.038714)
(-0.606969 0.889924 0.310813)
(-0.459721 0.844298 0.212001)
(-0.377995 0.80402 0.0688226)
(-0.54147 0.605588 0.354996)
(-0.403465 0.585974 0.250131)
(-0.317328 0.57606 0.084299)
(-0.599702 0.42583 0.391451)
(-0.476786 0.408358 0.254283)
(-0.406247 0.401721 0.0831562)
(-0.457134 0.275882 0.473699)
(-0.315367 0.207133 0.296946)
(-0.238589 0.171218 0.104988)
(-0.732003 0.848983 0.292917)
(-0.603241 0.792721 0.15989)
(-0.541173 0.750539 0.0521314)
(-0.53327 0.842773 0.27904)
(-0.428534 0.794892 0.179931)
(-0.359895 0.766644 0.0621932)
(-0.466347 0.625008 0.311925)
(-0.355939 0.56314 0.205096)
(-0.284124 0.528744 0.0698424)
(-0.412599 0.447166 0.370236)
(-0.313109 0.399541 0.237252)
(-0.252397 0.378339 0.0807948)
(-0.439049 0.292799 0.449107)
(-0.266718 0.219813 0.260967)
(-0.16925 0.181673 0.0901208)
(-0.452951 1.12091 -0.0197263)
(-0.740433 1.16623 0.0395687)
(-0.382975 1.19069 0.0177902)
(-0.55049 1.09698 0.105359)
(-0.365592 1.0926 0.0699673)
(-0.755124 1.09592 0.0710832)
(-0.305352 1.30102 0.180722)
(-0.618311 1.12424 0.158821)
(-0.0082887 0.716228 0.0239514)
(-0.0694037 0.790471 0.0390193)
(0.0090015 0.713012 0.0253841)
(-0.0405977 0.703852 0.0409386)
(-0.142783 0.950602 0.0134452)
(-0.268214 0.838544 0.0377554)
(-0.0894868 0.928237 0.0249604)
(-0.1613 0.734362 0.0553837)
(-0.0747661 1.02259 0.075745)
(-0.158877 1.06958 0.0453332)
(-0.43748 0.877885 0.15291)
(-0.654286 0.989049 0.108029)
(-0.347543 1.15373 0.0701646)
(-0.256047 1.00981 0.115439)
(-0.460143 1.13896 0.116801)
(-0.402153 1.18077 0.0339564)
(-0.614462 1.20438 0.232247)
(-0.657263 1.28906 0.0742281)
(0.0210483 0.97828 -0.162197)
(0.215544 1.00256 -0.0222685)
(-0.333135 0.851751 0.0283038)
(-0.234705 0.838634 0.0293836)
(-0.257634 0.972789 0.00245209)
(-0.148655 0.938168 0.00910467)
(-0.063906 0.659695 0.414001)
(-0.0409879 0.371405 0.184856)
(-0.0508473 0.615011 0.110058)
(-0.0309159 0.411334 0.0663565)
(-0.156764 0.640166 0.408032)
(-0.0517407 0.363325 0.187719)
(-0.0773501 0.59166 0.120025)
(-0.00946497 0.397826 0.0783946)
(-0.398478 0.585506 0.395752)
(-0.122163 0.335917 0.206463)
(-0.297286 0.549395 0.16239)
(-0.092963 0.377896 0.117137)
(-0.336606 0.539005 0.12417)
(-0.101778 0.39276 0.0823774)
(-0.381107 0.517106 0.0706142)
(-0.126575 0.392139 0.064419)
(-0.487696 0.9007 0.523387)
(-0.485206 0.715352 0.458006)
(-0.380459 0.878801 0.229821)
(-0.482666 0.717317 0.293737)
(-0.73233 1.00578 0.58215)
(-0.662805 0.904466 0.543897)
(-0.600584 1.00448 0.283457)
(-0.632056 0.886242 0.340228)
(-0.28602 0.810246 0.211096)
(-0.378829 0.565076 0.254791)
(-0.333545 0.845655 0.447575)
(-0.349071 0.54837 0.370471)
(-0.356698 0.892985 0.146604)
(-0.481345 0.717801 0.191877)
(-0.375254 0.915349 0.0850492)
(-0.486841 0.715288 0.111963)
(-0.573853 1.02547 0.189765)
(-0.621575 0.878441 0.22192)
(-0.594953 1.04112 0.11009)
(-0.627061 0.873296 0.12751)
(-0.253439 0.786161 0.1207)
(-0.385481 0.570744 0.168289)
(-0.24601 0.779302 0.0684416)
(-0.391289 0.569966 0.102604)
(-0.0402612 0.480396 0.189877)
(-0.0666667 0.327374 0.137721)
(-0.310916 0.426942 0.216215)
(-0.183298 0.264631 0.149193)
(-0.0397467 0.444947 0.325412)
(-0.0579929 0.292175 0.199005)
(-0.272239 0.400644 0.290694)
(-0.155807 0.241411 0.196439)
(-0.0393658 0.490492 0.113553)
(-0.0599661 0.347649 0.0941442)
(-0.329058 0.43823 0.150124)
(-0.201601 0.277666 0.102438)
(-0.0516154 0.4929 0.064506)
(-0.06478 0.361292 0.0595723)
(-0.333217 0.440896 0.095015)
(-0.212801 0.285461 0.0630754)
(0.00584347 0.105277 0.485989)
(0.0112394 0.0564519 0.331314)
(-0.0200748 0.19283 0.242972)
(-0.0148076 0.104219 0.25804)
(0.0305114 0.108928 0.481986)
(0.0510208 0.0654872 0.329699)
(-0.034166 0.195187 0.240741)
(-0.0252594 0.115576 0.253325)
(-0.0535905 0.118885 0.48761)
(-0.0128565 0.0881701 0.315618)
(-0.110089 0.192971 0.245991)
(-0.0994797 0.134303 0.235633)
(0.30667 0.543138 0.527666)
(0.156286 0.907988 0.50608)
(0.177115 0.349667 0.495877)
(0.111944 0.315063 0.384903)
(-0.0099592 0.217967 0.227692)
(0.282669 0.93033 0.308726)
(0.415435 0.600319 0.375565)
(0.195716 0.334714 0.401223)
(0.192696 0.296551 0.380728)
(-0.00919685 0.167176 0.274147)
(-0.370878 0.896885 0.437975)
(-0.275353 0.651144 0.39586)
(-0.232238 0.476835 0.331451)
(-0.24419 0.346346 0.271642)
(-0.152078 0.204135 0.182603)
(0.0201756 0.040515 0.290507)
(0.0159076 0.040042 0.294107)
(-0.00921724 0.0693591 0.295545)
(-0.0147054 0.0658181 0.364573)
(0.0561677 0.050765 0.288033)
(0.0641384 0.0395374 0.283298)
(-0.0265939 0.0855947 0.288261)
(-0.0370173 0.0785074 0.355794)
(0.0451545 0.0722828 0.272548)
(0.0717266 0.0646193 0.264974)
(-0.0666886 0.105323 0.2731)
(-0.0833489 0.0944903 0.339141)
(0.126072 0.947343 0.347218)
(0.0687041 0.913413 0.328427)
(0.324102 0.60639 0.327274)
(0.233095 0.560117 0.282777)
(0.170495 0.380125 0.248986)
(0.123984 0.370696 0.251418)
(0.15014 0.289914 0.244606)
(0.125951 0.282336 0.258101)
(-0.0235932 0.152847 0.238434)
(-0.0590376 0.138169 0.318582)
(-0.195256 0.826093 0.254275)
(-0.134418 0.715443 0.288378)
(0.0191197 0.604677 0.215211)
(0.0910771 0.526209 0.245512)
(0.0224042 0.45212 0.194889)
(0.0771033 0.417417 0.224057)
(-0.025424 0.317497 0.195072)
(0.0199585 0.310398 0.236359)
(-0.0480256 0.188806 0.182385)
(-0.0674174 0.217485 0.292362)
(-0.164422 0.570751 0.189503)
(-0.182496 0.457395 0.15205)
(-0.391862 0.574964 0.129592)
(-0.249581 0.430459 0.0684109)
(-0.34377 0.725755 0.288264)
(-0.337141 0.54188 0.219267)
(-0.518424 0.734397 0.232905)
(-0.406862 0.530951 0.146494)
(-0.306722 0.469213 0.100739)
(-0.191252 0.383778 0.0580516)
(-0.107185 0.464717 0.149201)
(-0.135561 0.410257 0.135163)
(-0.463891 0.592464 0.169229)
(-0.196495 0.409566 0.0730925)
(-0.49723 0.596352 0.0791328)
(-0.180732 0.413112 0.0435002)
(-0.5957 0.768356 0.218372)
(-0.391303 0.543562 0.124397)
(-0.633473 0.765109 0.0900864)
(-0.374818 0.546594 0.0620088)
(-0.368675 0.471835 0.138984)
(-0.140843 0.359615 0.0597371)
(-0.400318 0.478649 0.0709422)
(-0.122154 0.373732 0.0357485)
(-0.241322 0.332263 0.0878239)
(-0.201811 0.309848 0.105927)
(-0.195059 0.210563 0.110949)
(-0.338733 0.2932 0.188452)
(-0.124145 0.337345 0.132365)
(-0.164029 0.325509 0.162721)
(-0.132807 0.214442 0.134762)
(-0.286624 0.289803 0.245747)
(-0.264959 0.330908 0.103853)
(-0.190564 0.300795 0.0770983)
(-0.234261 0.204142 0.0808456)
(-0.387934 0.306814 0.134284)
(-0.316652 0.348018 0.0476012)
(-0.182112 0.302925 0.0196628)
(-0.272192 0.212957 0.0188753)
(-0.385966 0.3032 0.0348975)
(0.023028 0.102499 0.234103)
(0.0317647 0.0824031 0.107352)
(0.0377646 0.0647042 0.0308353)
(-0.00948938 0.390057 0.254634)
(0.00584692 0.190744 0.0678231)
(0.00840413 0.146091 0.0178762)
(0.0849342 0.0937045 0.226499)
(0.10633 0.0883284 0.111029)
(0.11596 0.075348 0.0345776)
(-0.0148671 0.406262 0.252136)
(0.0250664 0.22097 0.0695726)
(0.0311745 0.178182 0.0191988)
(0.102164 0.115177 0.204321)
(0.15153 0.123081 0.100751)
(0.172913 0.123775 0.0259307)
(-0.0455803 0.424012 0.239)
(0.0441215 0.270641 0.0641537)
(0.0630174 0.237392 0.0144519)
(0.0402935 0.830468 0.221631)
(0.0627366 0.759735 0.120605)
(0.057049 0.707938 0.0315669)
(0.185424 0.534556 0.189357)
(0.201407 0.507558 0.101214)
(0.188084 0.488503 0.0280633)
(0.144744 0.389245 0.188841)
(0.173439 0.377705 0.0945166)
(0.169072 0.37099 0.026846)
(0.152059 0.343656 0.189328)
(0.197524 0.327729 0.0893566)
(0.206443 0.320859 0.0205947)
(-0.0295849 0.483555 0.225649)
(0.0643054 0.351699 0.0563008)
(0.0626112 0.31561 0.0095212)
(-0.157281 0.61602 0.246318)
(-0.0751779 0.558592 0.129142)
(-0.0418505 0.519329 0.03981)
(0.0608674 0.471824 0.215267)
(0.112582 0.435137 0.117221)
(0.129244 0.413233 0.0385518)
(0.0687043 0.417289 0.197511)
(0.126593 0.379775 0.103405)
(0.141492 0.351865 0.0339072)
(0.0390774 0.40176 0.193368)
(0.110998 0.361435 0.0788854)
(0.12645 0.339501 0.0212231)
(-0.0832639 0.621505 0.233474)
(0.0435407 0.437182 0.0576215)
(0.0530463 0.399973 0.0182297)
(-0.00323523 0.195885 0.0724087)
(0.00031287 0.116884 0.0279046)
(0.0016646 0.0869907 0.0131637)
(0.00355566 0.0842606 0.000241384)
(0.00443975 0.221065 0.0293323)
(0.00441997 0.126881 0.0119491)
(0.00518763 0.0907954 0.00613611)
(0.00539801 0.0864269 0.00115704)
(-0.00885337 0.189718 0.07496)
(0.00034058 0.114864 0.0299535)
(0.00445581 0.086631 0.0156959)
(0.00938977 0.0852638 0.00288207)
(0.0101759 0.219317 0.0355901)
(0.0101595 0.127176 0.0161097)
(0.0113303 0.0916628 0.0102923)
(0.0123216 0.0869094 0.00481918)
(-0.0179795 0.178749 0.0862135)
(-0.00218136 0.111874 0.0358922)
(0.00486865 0.087094 0.0205668)
(0.0144247 0.0836954 0.00632288)
(0.00143014 0.212995 0.0615109)
(0.00844736 0.128256 0.0319354)
(0.0103258 0.0938817 0.0183388)
(0.0141864 0.0850096 0.00860966)
(0.00175489 0.223993 0.0455899)
(0.00553479 0.133916 0.0287312)
(0.00430277 0.0949545 0.0144279)
(0.00478983 0.0906601 0.00484992)
(-0.00692516 0.230609 0.0476716)
(-0.000396703 0.139879 0.032839)
(0.00219405 0.0992027 0.0196338)
(0.00507478 0.0944564 0.011106)
(-0.045085 0.19085 0.0724568)
(-0.0133726 0.118897 0.0346279)
(-0.00433586 0.0903417 0.018081)
(0.00857821 0.0846976 0.00185732)
(-0.0678946 0.150127 0.0693183)
(-0.02133 0.102137 0.0319877)
(-0.0117 0.0833572 0.018672)
(0.0119735 0.0797475 -0.00175231)
(-0.038206 0.163301 0.0911292)
(-0.010151 0.106347 0.0384584)
(-0.00114165 0.085587 0.0222859)
(0.0140609 0.0773744 0.00485424)
(-0.055451 0.132799 0.0820426)
(-0.0170482 0.0939284 0.0339881)
(-0.0100134 0.0793713 0.0205045)
(0.0120446 0.0757234 -0.00294892)
(-0.0416126 0.207126 0.0551113)
(-0.0128826 0.128023 0.0303692)
(-0.00429497 0.0942006 0.016077)
(0.00723574 0.0893419 0.00212921)
(-0.0748016 0.160805 0.0539858)
(-0.0236474 0.108548 0.0283572)
(-0.0124518 0.0863544 0.0173858)
(0.0147846 0.0824325 0.00281791)
(-0.0441541 0.216399 0.0411025)
(-0.0150973 0.13446 0.026538)
(-0.0043061 0.0976653 0.0170082)
(0.00952023 0.0915671 0.0099909)
(-0.0783886 0.166841 0.0376423)
(-0.025019 0.113262 0.0237942)
(-0.0131427 0.0890172 0.0165253)
(0.0162031 0.0834364 0.0095908)
(-0.00328714 0.145005 0.0930981)
(-0.000194174 0.0999679 0.0340548)
(0.000694317 0.0808548 0.01598)
(0.00322145 0.0793669 -0.00366554)
(-0.00294916 0.0900691 0.0981471)
(-0.00010782 0.0795606 0.0332602)
(0.00016771 0.0728226 0.0174093)
(0.00337345 0.0731235 -0.0110147)
(-0.00904029 0.139928 0.092906)
(-0.000770476 0.0981198 0.0345738)
(0.00195609 0.0805942 0.017353)
(0.00851874 0.0792996 -0.00232534)
(-0.00532363 0.089102 0.0942553)
(0.000675966 0.0791959 0.0321213)
(0.00103863 0.0726542 0.0173655)
(0.00919973 0.0735178 -0.01024)
(-0.0310596 0.132059 0.0936986)
(-0.00778714 0.0952424 0.0356074)
(-0.00101861 0.0803235 0.0200562)
(0.0131638 0.0786416 -0.000209502)
(-0.0245305 0.091629 0.0845025)
(-0.00501183 0.0802567 0.0291178)
(-0.000885472 0.0726983 0.0172509)
(0.014655 0.0749821 -0.0074805)
(-0.0165807 0.123171 0.087061)
(-0.00163511 0.0906743 0.0343597)
(0.00272238 0.0782461 0.0221913)
(0.0143205 0.0782136 0.00560651)
(-0.0112358 0.0920517 0.0931316)
(-0.000449559 0.080225 0.0330031)
(0.000596822 0.0737552 0.0222921)
(0.0142002 0.0749792 -0.00738931)
(-0.0473929 0.109969 0.0680901)
(-0.0132589 0.0857861 0.026753)
(-0.00701176 0.0744972 0.0175245)
(0.0163739 0.0729236 0.00169146)
(0.00131582 0.028437 0.0818513)
(0.00124509 0.0600566 0.0244752)
(0.000980934 0.0571199 0.0128332)
(0.00263851 0.0178676 -0.0103033)
(0.00531261 -0.0453245 0.0323408)
(0.00238232 0.0490629 0.0087041)
(0.00145538 0.0491288 0.00391032)
(0.00160445 0.0171853 -0.00250265)
(0.000355129 0.0354413 0.0806601)
(0.00237847 0.0626474 0.0248283)
(0.00194531 0.0581712 0.0132941)
(0.00697524 0.0189108 -0.00923402)
(0.0128119 -0.0344255 0.0328869)
(0.00613498 0.0521246 0.00916726)
(0.00365521 0.050005 0.00436803)
(0.00426406 0.0174862 -0.00192915)
(-0.00476724 0.0466204 0.0755117)
(0.00162912 0.0665054 0.0242032)
(0.00213666 0.0592094 0.013943)
(0.0109232 0.0188301 -0.00724388)
(0.0168251 -0.0176957 0.0315524)
(0.00875792 0.056981 0.00925963)
(0.00548024 0.051102 0.00493589)
(0.00655306 0.0175715 -0.0010941)
(-0.0066461 0.0617198 0.0635167)
(0.00207442 0.0711676 0.0207826)
(0.00270911 0.0605874 0.0134545)
(0.0144956 0.0200302 -0.00504717)
(0.0164925 0.000991422 0.0277703)
(0.010198 0.0628007 0.00821618)
(0.0062788 0.0528231 0.00531434)
(0.00779535 0.018206 -1.28954e-05)
(-0.0162997 0.082277 0.055686)
(0.000117948 0.0773111 0.0194618)
(-0.000103221 0.0631408 0.0132537)
(0.0142777 0.0224077 -0.00206338)
(0.00756357 0.0180414 0.0249056)
(0.00905346 0.0680738 0.00833218)
(0.00501656 0.0545004 0.00606986)
(0.00729906 0.0187272 0.00155713)
(-0.0493038 0.0957954 0.0439424)
(-0.0060036 0.0843625 0.0189923)
(-0.00409659 0.0648407 0.0113538)
(0.0137237 0.0208311 0.000662852)
(-0.0153972 0.0118006 0.0228182)
(0.00291142 0.0735966 0.0116568)
(0.00189872 0.0580167 0.00731198)
(0.00544295 0.0195094 0.0039511)
(-0.0333046 0.0941751 0.046889)
(-0.00201525 0.0812738 0.0172148)
(-0.0023855 0.063329 0.0112221)
(0.0138638 0.0209421 -0.000687494)
(-0.00673069 0.0148184 0.0226128)
(0.00604247 0.0715403 0.00933046)
(0.00341197 0.0561143 0.0064988)
(0.00645484 0.0189932 0.00287037)
(-0.0627857 0.0944936 0.0390017)
(-0.0115434 0.08665 0.0204428)
(-0.00662874 0.0665009 0.0124529)
(0.0147821 0.0195934 0.00308078)
(-0.0212446 0.00656365 0.0232157)
(-0.000475306 0.0755484 0.0138763)
(0.000265268 0.0596104 0.00865045)
(0.00488936 0.0195847 0.00545561)
(-0.0722648 0.0939074 0.0303353)
(-0.0175761 0.0897483 0.0198011)
(-0.00966888 0.0694354 0.0134767)
(0.0146362 0.020297 0.00819226)
(-0.0268772 0.0132627 0.0215194)
(-0.00482237 0.0787212 0.0150251)
(-0.00183772 0.0618269 0.0102964)
(0.00414714 0.0201839 0.00775269)
(0.00144484 0.0830088 0.000601948)
(0.000696758 0.0651184 0.000505566)
(0.000376201 0.0462424 0.000339792)
(0.000228229 0.0275219 0.000225999)
(0.000168865 0.00912676 0.000172798)
(0.00196363 0.0831556 0.000355329)
(0.00105312 0.0651799 0.000262412)
(0.00059672 0.0462944 0.000173087)
(0.000370466 0.027552 0.000115586)
(0.000276156 0.00913632 8.90316e-05)
(0.00309995 0.0844865 0.0015168)
(0.00148213 0.0656488 0.00106549)
(0.000796589 0.0464878 0.000675928)
(0.000484753 0.0276339 0.000441211)
(0.00036143 0.00915921 0.000334891)
(0.00518146 0.0843861 0.00163604)
(0.00286482 0.0657961 0.00105003)
(0.00164993 0.0466073 0.000642869)
(0.00103644 0.0277002 0.000414458)
(0.000777355 0.00918004 0.000313438)
(0.00440139 0.0854006 0.00366468)
(0.00213143 0.0662263 0.00243843)
(0.00116674 0.0467611 0.00151326)
(0.000719032 0.0277587 0.000984409)
(0.000539649 0.00919536 0.00074763)
(0.00743497 0.0847841 0.00733043)
(0.00407001 0.066664 0.00452176)
(0.00236675 0.0470787 0.00275864)
(0.00149951 0.0279298 0.0017815)
(0.00112957 0.00924887 0.0013482)
(0.00252484 0.0876748 0.00755509)
(0.00133851 0.0678364 0.00477266)
(0.000779606 0.0477451 0.00294795)
(0.000496218 0.0282696 0.00191499)
(0.000374481 0.00935287 0.00145443)
(0.00144317 0.0892689 0.00823284)
(0.00073066 0.0689448 0.00503542)
(0.000414068 0.0484169 0.00307392)
(0.000261426 0.028618 0.00198929)
(0.000196412 0.00946007 0.00151083)
(0.003886 0.0877015 0.00488749)
(0.00177247 0.0674 0.00326667)
(0.000974674 0.047378 0.00204737)
(0.000605763 0.0280623 0.00133614)
(0.000453041 0.00928723 0.00101189)
(0.000916589 0.0902755 0.00386002)
(0.000267301 0.0677757 0.00256932)
(0.000115378 0.0474446 0.00161246)
(6.3773e-05 0.0280761 0.00105582)
(4.56556e-05 0.00928949 0.000800961)
(0.00568183 0.0862135 0.00506818)
(0.00291315 0.0668502 0.00325979)
(0.00166643 0.0470489 0.00200913)
(0.0010513 0.0278912 0.00130817)
(0.000791375 0.00923398 0.00099243)
(0.00159879 0.0896688 0.00394511)
(0.0006522 0.0674281 0.00230719)
(0.000343744 0.0472436 0.00139673)
(0.000209265 0.0279723 0.000906985)
(0.000154504 0.00925713 0.000685384)
(0.00141261 0.0888432 0.00549118)
(0.000387017 0.0680539 0.00382775)
(0.000155175 0.0477782 0.00242456)
(8.33946e-05 0.028272 0.00158842)
(5.93902e-05 0.00935226 0.00120794)
(0.000954576 0.0913408 0.00533417)
(0.000299042 0.0684211 0.00354147)
(0.000137729 0.0478328 0.00221881)
(8.01302e-05 0.0282789 0.00145071)
(5.87768e-05 0.00935249 0.00110215)
(0.00136493 0.0899082 0.00734008)
(0.000355222 0.0692132 0.00459902)
(0.000135211 0.0485063 0.00282092)
(7.11688e-05 0.0286522 0.0018279)
(4.89865e-05 0.00946966 0.00138783)
(0.000702573 0.0925919 0.00705033)
(0.00010751 0.0695466 0.00443519)
(1.71184e-05 0.0485411 0.00272452)
(1.63937e-06 0.0286507 0.00176599)
(-1.72068e-06 0.00946786 0.00133909)
(0.00117746 0.0829602 0.00022386)
(0.000526311 0.0650858 0.00039871)
(0.000272095 0.0461903 0.000281835)
(0.000160588 0.0274895 0.000189148)
(0.000117412 0.00911636 0.000145132)
(0.00108745 0.0843342 -3.20092e-05)
(0.000493874 0.0651452 0.000148682)
(0.00025716 0.0461644 0.00011085)
(0.000152015 0.0274705 7.5955e-05)
(0.000111185 0.00911019 5.92451e-05)
(0.00270294 0.0839582 0.000768535)
(0.00119204 0.0655145 0.000706289)
(0.000618338 0.0463783 0.000465762)
(0.000366704 0.0275721 0.000307885)
(0.00026976 0.00913973 0.000235887)
(0.00252367 0.0852442 8.57165e-05)
(0.00112099 0.0655299 0.000219526)
(0.000585874 0.0463301 0.000153592)
(0.000347754 0.0275426 0.00010353)
(0.000254752 0.00913058 8.07876e-05)
(0.00352344 0.0854861 0.00132778)
(0.00145795 0.0660913 0.001092)
(0.000750209 0.0466232 0.000702051)
(0.000443833 0.0276798 0.000463456)
(0.000326828 0.00917027 0.0003564)
(0.00303307 0.0871344 0.000773254)
(0.00137721 0.066082 0.000573228)
(0.000737229 0.0465576 0.000352462)
(0.000442169 0.027642 0.000227054)
(0.000327497 0.00915866 0.000174546)
(0.00408088 0.0877562 0.00423775)
(0.00205974 0.0667248 0.00269159)
(0.00116957 0.0468937 0.00164087)
(0.000732492 0.0278021 0.00107044)
(0.000551674 0.00920534 0.00081738)
(0.00200897 0.0890417 0.00211253)
(0.00100568 0.0665996 0.00133797)
(0.000560287 0.0467994 0.000806744)
(0.000342512 0.0277532 0.000523878)
(0.000257493 0.00919008 0.000400988)
(0.00234965 0.08916 0.00543304)
(0.00123999 0.0671255 0.00296813)
(0.000718423 0.0470845 0.00174998)
(0.000456142 0.0278927 0.0011252)
(0.00034414 0.00923231 0.000850754)
(-0.0203553 0.326494 0.0932179)
(-0.0243649 0.504167 0.161687)
(-0.0560106 0.344937 0.0876726)
(-0.0690954 0.519333 0.156755)
(-0.0856155 0.375599 0.0813078)
(-0.11036 0.544128 0.145662)
(-0.104216 0.412239 0.0789729)
(-0.14616 0.586629 0.139854)
(-0.104679 0.453386 0.0866976)
(-0.146594 0.65925 0.160612)
(-0.0943771 0.421686 0.0502953)
(-0.123682 0.520552 0.0748496)
(-0.0888021 0.431877 0.0706393)
(-0.106549 0.555941 0.112591)
(-0.105678 0.420192 0.0329108)
(-0.142473 0.515158 0.0445801)
(-0.108673 0.415608 0.0124532)
(-0.14807 0.514209 0.0175945)
(-0.0191177 0.261477 0.275876)
(-0.00417539 0.0467522 0.0663184)
(-0.000906637 0.0102672 0.0151811)
(-0.000191931 0.00230355 0.00335628)
(-4.64812e-05 0.000405473 0.000838594)
(-0.0083826 0.311021 0.0733927)
(-0.00297245 0.0857849 0.0194315)
(-0.000333535 0.0208562 0.00519653)
(-9.32858e-05 0.00472292 0.00116177)
(-3.6813e-05 0.000824122 0.000258274)
(-0.0617255 0.268075 0.274137)
(-0.0135812 0.046225 0.0649764)
(-0.00296623 0.00996246 0.0147625)
(-0.000632763 0.00221444 0.00323954)
(-0.000154355 0.000387544 0.000805646)
(-0.021796 0.318029 0.0758044)
(-0.00464063 0.0864185 0.022047)
(-0.000940286 0.0207366 0.00541115)
(-0.000183281 0.00463441 0.00125224)
(-3.92541e-05 0.000805766 0.000312915)
(-0.108855 0.28012 0.265173)
(-0.024091 0.0464956 0.0617616)
(-0.00529227 0.00976895 0.0138774)
(-0.00113916 0.00214242 0.00302127)
(-0.000280322 0.000372377 0.000747029)
(-0.0379874 0.331505 0.073589)
(-0.00898129 0.0881073 0.0213402)
(-0.0019757 0.0207554 0.005198)
(-0.000428687 0.00458295 0.0011907)
(-0.000103177 0.000791045 0.000294708)
(-0.156495 0.294762 0.249647)
(-0.0348292 0.0466215 0.0569902)
(-0.00772592 0.00954806 0.0126852)
(-0.00168207 0.00207326 0.00275064)
(-0.000419065 0.000359256 0.000679446)
(-0.0532296 0.348883 0.0708828)
(-0.0137131 0.0902537 0.0200978)
(-0.00322379 0.0209297 0.00479706)
(-0.000735733 0.00458704 0.00108112)
(-0.000185754 0.000789319 0.000263786)
(-0.218814 0.30739 0.219825)
(-0.05009 0.0467082 0.0494011)
(-0.0113483 0.00950165 0.0109818)
(-0.00251599 0.00207337 0.00238992)
(-0.000637705 0.000361482 0.000594207)
(-0.0707412 0.365227 0.0662031)
(-0.0205943 0.0921709 0.017911)
(-0.00513432 0.0213387 0.00417737)
(-0.00121086 0.00470098 0.000929545)
(-0.000314035 0.000813458 0.000224693)
(-0.296453 0.301088 0.124157)
(-0.074067 0.0543459 0.0297723)
(-0.0177115 0.0122616 0.00684996)
(-0.00408655 0.00284175 0.0015246)
(-0.00106789 0.000512976 0.000385494)
(-0.0818209 0.33933 0.0336484)
(-0.025319 0.096441 0.00854092)
(-0.00652595 0.0240972 0.00185184)
(-0.00156806 0.00561121 0.00038113)
(-0.000413616 0.00100765 8.66326e-05)
(-0.269475 0.305197 0.172913)
(-0.0652444 0.0513333 0.0403104)
(-0.0152266 0.0110383 0.00911143)
(-0.00344527 0.00248084 0.00200339)
(-0.000886467 0.00043965 0.00050257)
(-0.0793683 0.350436 0.0470346)
(-0.0247572 0.0949518 0.0122979)
(-0.00636872 0.0228295 0.00280788)
(-0.0015264 0.00515876 0.000617084)
(-0.000399184 0.000907893 0.000148359)
(-0.30942 0.299081 0.0779131)
(-0.0783637 0.05636 0.0191606)
(-0.0189733 0.0130818 0.00447149)
(-0.00442611 0.00309356 0.00100475)
(-0.00116673 0.000565776 0.00025544)
(-0.0834075 0.33632 0.0214527)
(-0.0251157 0.0974295 0.00556599)
(-0.00637652 0.0248635 0.00118461)
(-0.00151529 0.00590199 0.00023148)
(-0.000398566 0.00107521 5.0005e-05)
(-0.319028 0.297585 0.0285649)
(-0.0805739 0.0556431 0.00710555)
(-0.0195956 0.0129726 0.00167045)
(-0.00459689 0.00309293 0.000377788)
(-0.00121803 0.000569414 9.65289e-05)
(-0.0832759 0.334589 0.0103799)
(-0.0251599 0.0968158 0.00243452)
(-0.00638448 0.02488 0.000484135)
(-0.0014085 0.00595249 0.000131543)
(-0.000392827 0.00109042 1.82909e-05)
(-0.0104576 1.39991 -0.048025)
(-0.257234 1.94528 0.0252771)
(-0.252951 1.74225 0.164494)
(-0.143735 1.31748 -0.140245)
(0.145357 0.737982 0.038554)
(0.200077 0.774229 0.0411194)
(0.403514 1.17591 0.102945)
(0.530395 1.17799 0.125533)
(0.228014 0.792094 0.0847474)
(0.461785 0.844845 0.136962)
(0.0893328 1.26157 0.112997)
(0.280053 1.6775 0.170798)
(0.226649 1.86282 0.107645)
(0.37596 2.52524 0.140677)
(0.412055 0.950285 0.0514789)
(0.568159 1.0425 0.0751018)
(0.49725 0.769162 0.0562553)
(0.565403 0.749164 0.0655027)
(0.283977 0.533582 0.0393463)
(0.321196 0.548107 0.0407671)
(-0.753187 0.166899 0.11422)
(-0.564557 0.119925 0.0904845)
(-0.181827 0.0350418 -0.0157682)
(-0.14296 0.0280743 -0.0382589)