/*--------------------------------*- C++ -*----------------------------------*\
| =========                 |                                                 |
| \\      /  F ield         | OpenFOAM: The Open Source CFD Toolbox           |
|  \\    /   O peration     | Version:  2412                                  |
|   \\  /    A nd           | Website:  www.openfoam.com                      |
|    \\/     M anipulation  |                                                 |
\*---------------------------------------------------------------------------*/
FoamFile
{
    version     2.0;
    format      ascii;
    arch        "LSB;label=32;scalar=64";
    class       volScalarField;
    location    "2.6";
    object      gradTz;
}
// * * * * * * * * * * * * * * * * * * * * * * * * * * * * * * * * * * * * * //

dimensions      [0 -1 0 1 0 0 0];

internalField   nonuniform List<scalar> 
5712
(
7130.16
21673.8
5404.71
23722.4
2962.85
25148.8
5064.62
39891.9
8283.42
50105.7
8483.05
35513.1
9049.11
31545.8
8914.97
27085.2
4193.06
2263.82
12636.7
5943.48
3912.34
1791.2
13642.1
5482.26
5445.15
3996.86
16083.1
11716.2
3648.95
2855.84
16180.1
12207.8
8189.9
2971.14
6179.43
2228.92
2813.39
7575.87
38973.4
11915.1
11683
5406.87
47372.4
14860.4
10925.4
5145.94
25759.5
8590.11
13118.9
5983.99
20928.8
6658.94
4749.12
2578.11
8490
3424.54
4202.12
2668.43
8918.76
3353.86
5652.8
3594.67
5584.38
2332.98
9998.68
3603.06
3939.28
1452.25
12183
9135.64
7404.99
6622.36
13728.8
12019.7
7450.91
7947.31
6831.07
5835
8856.38
7550.09
5526.95
4743.49
3219.35
2760.51
5536.31
5521.65
3177.4
3178.74
5274.25
4116.65
3090.16
2168.91
5846.4
3286.94
5846.19
6475.83
7728.69
5890.58
8334.67
11045.8
4288.64
1830.83
3765.77
3901.72
2435.49
848.353
1728.27
1498.01
5375.69
10927.3
3940.73
12378.6
5811.32
11082.5
4701.26
13193.6
7698.09
11034.7
6536.54
13459.1
8659.69
10526.3
6579.07
6584.92
8108.89
6941.71
7552.18
10351.3
12042.7
17702.8
9370.46
7478.37
7072.64
8969.86
14359.1
13631.8
13203.7
15941.6
16051.1
13322.1
13352.4
16006.4
15930
12314.4
12793
15374.6
15531.9
8745.58
9284.17
8445.85
8916.55
10233.2
10223.9
11938.2
11603.9
15048.8
15215.3
7986.53
8756.39
8963.69
9530.43
9956.39
10706.6
11438.4
12512.6
15043.6
16312
9324.15
6358.57
7552.63
7642.05
10507.6
12007.8
8546.09
11349.7
6896.63
7039.91
8764.78
6283.11
3167.02
5518.96
1296.14
2053.57
5291.84
8421.23
2077.43
3156.19
2635
4817.57
979.429
1751.24
6538.93
5592.31
6667.77
4162.32
9198.38
6550.79
10445.3
6958.35
3034.33
3564.77
3790.04
2144.89
2353.13
2579.53
2628.31
1995.99
11450.7
7524.23
2453.19
12404.6
7789.37
2689.84
11287
7361.46
2494.66
12402.9
7770.97
2628.1
10800.2
6935.24
2321.63
12210.6
7658.56
2630.43
6614.71
3753.59
967.849
7770.33
5300.03
1720.56
8874.91
6253.26
2107.48
9786.28
6357.07
2078.91
11842.5
7423.64
2624.7
7322.93
3997.25
1303.28
6976.01
4498.29
1554.83
7798.12
5127.4
1746.06
9255.9
5931.3
2019.87
11227.7
6524.17
2253.02
-493.157
989.217
444.755
2633.98
1749.18
1777.08
4518.06
3970.53
598.784
975.483
634.602
1023.47
336.13
943.886
624.009
1384.59
1893.63
1133.33
3822.75
2700.73
1754.11
2885.98
2920.02
848.91
5806.18
1855.7
-4054.92
-556.712
707.594
734.591
61.3023
227.617
10350
4621.39
2751.44
1658.91
10200.8
4692.98
3000.64
1959.86
9893.8
5161.58
4059.74
2928.42
3104.25
2059.44
1765.35
1610.47
13084.7
11450.1
5745.52
7343.42
14553.7
13597.4
7086.42
8505.71
5277.4
6369.77
11189.4
9261.77
3665.11
4796.91
2126.23
2799.06
4744.12
5548
2752.24
3187.74
3017.49
4207.21
1711.04
2565.11
4746.92
3443.02
5405.37
3729.82
8135.3
4975.12
7267.35
4910.96
2838.82
2353.61
3753.1
2560.95
1612.65
1489.31
2375.38
1576.88
12149.7
8282.84
6074.31
6451
12049.6
8242.47
6018.53
6333.12
12190.2
7890.45
6149.79
5890.83
13191.7
12652
12396.9
9622.57
5692.31
7718.15
9389.12
10030.6
9518.2
6853.67
10949.4
9896.5
8286.27
6791.05
4565.08
7262.68
7352.69
7388.62
9114.33
7200.82
7082.46
7206.52
8894.85
6813.71
6624.34
6827.5
8478.54
8680.44
8210.67
8181.85
7069.44
6224.66
6285.45
6115.14
6452.52
5960.86
7964.55
6356.87
7209.46
5380.27
6137.8
4872.22
5601.42
4876.8
5908.97
4559.63
7309.04
4737.58
3801.24
3239.81
1710.27
7206.59
5481.68
5822.63
3662.34
2518.47
1451.29
3730.02
3379.08
4230.73
1827.31
1978.32
1087.51
5459.29
3109.92
2252.16
1550.22
3474.6
1493.43
1773.55
893.713
2195.6
2648.17
2773.74
4711.3
3309.13
4068.03
3369.05
6143.67
2596.31
1927.46
2021.14
3357.09
1190.03
491.569
471.884
872.437
5852.58
2683.8
770.882
6365.85
1695.58
446.905
5662.46
2775.73
864.44
6303.39
1739.32
479.97
5108.02
2518.78
648.266
5975
1603.84
361.299
5540.76
3015.13
789.173
4733.94
2530.34
701.583
4721.02
2362.91
671.149
4733.2
2233.92
514.869
5641.24
1407.52
238.03
6157.96
3228.54
995.249
5381.68
2930.53
963.795
4937.78
2585.13
847.679
4834.2
1972.13
530.577
5836.84
1440.54
455.742
1810.22
697.614
329.092
6.03461
733.307
298.728
153.403
28.9259
1874
748.837
392.398
72.0518
889.751
402.743
257.308
120.48
2155.34
897.306
514.17
158.072
1537.77
798.385
458.471
215.242
1139.75
718.28
360.698
121.248
1191.79
820.975
490.846
277.65
1811.42
865.696
452.025
46.4329
1732.96
799.692
466.8
-43.8077
2278.23
961.46
557.146
121.356
2051.07
849.703
512.612
-73.723
1377.78
759.23
401.926
53.2303
1349.64
708.929
434.646
70.4478
1027.56
663.451
425.205
249.773
941.058
594.854
413.133
239.77
2327.45
851.369
399.5
-91.6384
2453.68
831.505
435.233
-275.368
2322.65
864.345
433.826
-58.1334
2356.38
803.031
434.137
-256.001
2342.46
890.184
501.405
-5.23755
2112.56
727.946
431.272
-187.012
2176.53
858.993
554.784
140.163
2328.29
825.077
557.301
-184.733
1702.25
668.825
438.112
42.2864
2046.28
611.88
320.83
-257.581
808.521
217.603
97.7581
-62.5662
2016.5
620.707
332.352
-230.851
822.173
229.182
109.201
-48.2288
1887.79
605.08
348.576
-181.097
788.81
231.491
123.397
-27.3525
1587.92
519.565
336.362
-126.179
694.259
205.405
132.858
-0.322385
1392.15
486.545
331.343
-51.5844
622.64
208.305
151.747
38.9281
1098.56
474.808
283.844
16.5713
570.455
291.421
182.8
98.7774
1172.22
430.369
280.552
-17.1873
565.321
233.261
162.47
71.7593
975.042
511.07
311.323
77.0196
580.392
346.906
216.261
136.39
758.383
495.027
336.917
204.806
537.985
375.627
257.41
193.817
15.0487
12.6392
8.49479
5.64997
4.31994
8.88322
6.56031
4.32717
2.88966
2.22579
37.9199
26.6373
16.8982
11.0303
8.37227
40.9011
26.2508
16.0717
10.3615
7.83594
91.6169
60.9608
37.8315
24.6102
18.6908
183.261
113.044
68.9659
44.5375
33.7049
188.877
119.317
73.6987
47.8748
36.3608
205.821
125.885
76.8481
49.7324
37.7708
122.187
81.6666
51.1842
33.4036
25.2972
96.5005
64.2329
40.3116
26.3956
20.024
126.705
81.4948
50.2284
32.7043
24.8107
98.6278
57.6797
34.9183
22.6746
17.1346
137.28
95.6937
60.6141
39.7106
30.1985
133.354
88.5368
55.4702
36.2678
27.5537
183.502
114.975
70.5229
45.6974
34.6957
176.258
110.88
68.1129
44.1496
33.4773
5.59651
9.96774
7.04588
4.72869
3.62829
-0.80023
3.71705
2.77124
1.89888
1.48113
19.2134
17.6572
11.6441
7.69713
5.89718
2.14291
5.48816
3.83981
2.58824
2.01969
33.1945
27.2999
17.5513
11.5864
8.91001
19.3314
14.3307
8.81156
5.67634
4.36364
105.944
67.2897
41.0219
26.761
20.4345
52.8133
33.4493
20.1686
13.097
10.0247
135.826
74.2033
43.7494
28.1301
21.2688
2330.45
4042.17
2191.82
3918.86
2032.7
3641.56
1974.32
3496.36
2167.44
4015.31
1257.38
1871.24
1765.98
2814.78
822.769
1114.5
311.33
439.861
6896.89
1657.96
379.528
83.9069
20.9649
1834.82
485.788
129.913
29.0443
6.45685
6853.43
1624.41
369.063
80.9884
20.1411
1895.11
551.175
135.279
31.3061
7.82286
6629.34
1544.04
346.934
75.5318
18.6757
1839.73
533.505
129.95
29.7675
7.36771
6241.17
1424.76
317.13
68.7659
16.9862
1772.07
502.444
119.926
27.0279
6.59465
5495.62
1235.03
274.545
59.7479
14.8552
1655.08
447.776
104.434
23.2386
5.61732
3103.93
744.307
171.249
38.1149
9.63735
841.21
213.523
46.2961
9.52826
2.16581
4322.83
1007.76
227.786
50.0848
12.5642
1175.87
307.447
70.1971
15.4271
3.70897
1947.83
479.016
111.787
25.1188
6.386
536.317
139.15
29.6154
5.78701
1.25013
714.123
177.639
41.7612
9.4447
2.41322
259.498
60.8629
12.1034
3.28859
0.457272
-1200.62
631.927
4112.34
-3506.13
963.85
1027.99
2573.62
3138.33
2118.69
3424.04
2824.92
4269.95
2691.14
3516.93
1286.97
1877.54
1406.38
1637.57
983.656
1019.18
2855.49
2262.11
-394.206
-956.473
-1038.17
-1387.04
-745.337
11820.8
3023.54
3987.62
3250.47
324.827
-80.8011
3272.95
-1048.75
-483.946
-873.752
-305.095
5839.35
2982.77
1303.05
724.893
3271.59
1479.35
193.335
355.544
-1174.1
-1170.81
829.158
701.228
9251.16
4579.97
4456.82
2573
3432.06
3131.35
-67.7974
-1148.41
254.3
2019.84
1808.74
1617.58
1546.1
1216.21
1826.01
1496.32
1234.07
928.285
375.126
-353.684
-294.329
-216.071
-129.274
-42.6421
-854.794
-715.087
-536.71
-332.219
-112.407
-927.755
-775.65
-581.051
-358.709
-121.199
-1240.84
-1039.06
-780.093
-482.686
-163.304
-659.371
-543.725
-400.323
-243.053
-81.3729
8906.66
8344.74
7316.11
7074.83
6836.04
2880.73
2419.25
2267.8
1969.83
926.464
3296.17
2684.01
2314.89
1892
906.793
2548.14
2042.25
1731.12
1334.55
519.37
282.723
205.727
228.615
193.187
105.372
2.8536
73.076
110.517
101.011
40.9626
2741.6
2223.7
1762.29
1247.21
482.903
-669.583
-360.456
-184.267
-83.9278
-26.9998
-388.7
-278.544
-169.472
-81.2612
-21.9001
-638.004
-416.082
-246.233
-125.915
-38.9816
-283.596
-240.636
-175.544
-102.333
-32.502
4090.76
4103.7
3662.5
3729.39
3881.98
2491.26
1993.34
1703.98
1340.2
544.801
1210.83
1078.19
901.63
636.325
236.014
645.51
554.048
453.838
317.241
116.834
2754.49
2217.63
1714.29
1158.41
426.725
1335.53
1134.79
897.834
591.77
196.452
167.916
144.115
124.051
91.9493
34.0662
326.606
288.155
238.104
163.766
58.2679
-1019.84
-825.045
-598.451
-360.092
-119.956
-1031.96
-847.42
-621.38
-375.834
-125.413
740.441
631.974
502.079
336.355
120.825
625.26
532.964
423.815
284.014
101.547
6179.13
5074.69
4597.47
4578.94
3946.19
3611.25
2895.66
2364.08
1786.43
758.255
3581.74
3085.1
2657.21
2241.03
977.916
2068.28
1727.39
1412.23
1047.61
479.796
2959.24
2430.36
1881.16
1247.39
443.22
2641.85
1924.29
1613.22
1220.17
230.354
-53.7875
-31.6413
-1.91619
15.6785
8.02401
-1019.92
-844.663
-624.163
-379.675
-127.109
244.771
227.994
205.835
153.134
54.4477
-28054.8
-43968
-21213.6
-37384.7
-22616.2
-52638
-29768
-63986.5
-15847.7
-10595.8
-17642.3
-9456.33
-14816.7
-9716.36
-17804.4
-8429.18
-23030.6
-16156.4
-31973.5
-23017.5
-18116.4
-13233.6
-27543.6
-20599.8
-13930.1
-14110.5
-9727.09
-9334.69
-11785.4
-12513.9
-42136.5
-12954.4
-13428.5
-6391.39
-49634.2
-15754
-12198.3
-5863.73
-29427.1
-9702.34
-14926.9
-6968.58
-24678.8
-7536.45
-11016.9
-4681.48
-15130.4
-5685.2
-9581.08
-4277.74
-14002.3
-4990.29
-9977.53
-4810.66
-8551.56
-3262.06
-12135.4
-4308.54
-4760.13
-1761.83
-9942.74
-7132.25
-8121.32
-6034.39
-8653.49
-7370.98
-7237.45
-6339.39
-8102.15
-5900.33
-9342.7
-7311.26
-6105.58
-4469.99
-3632.41
-2571.66
-5534.46
-4651.3
-3174.36
-2539.35
-6152.03
-4211.92
-3697.12
-2253.98
-7225.1
-3822.89
-6150.79
-6631.9
-9366.91
-6571.83
-8716.76
-11259.4
-5160.24
-2165.62
-3982.03
-4007.87
-3016.74
-1077.76
-1896.79
-1577.37
-9649.85
-12287.9
-5512.84
-13835.4
-9561.89
-11990.4
-6019.99
-14312.3
-10586.5
-11589.2
-7483.91
-14027.1
-5903.84
-3633.9
-7565.4
-8779.75
-9015.13
-5455.42
-7534.45
-11283.4
-12881.3
-18226
-4881.17
-5545.27
-6751.65
-9198.09
-14590.8
-12987.8
-10703.7
-16082.1
-13339.9
-12617.1
-10994.4
-16100.1
-13448.8
-11540.3
-10222.2
-15223.4
-13365.6
-8061.83
-7572.28
-7979.4
-7213.55
-9146.36
-8126.79
-10493.9
-9277.88
-14625.5
-13420.8
-6665.42
-7315.8
-7375.87
-7187.27
-8417.94
-8166.2
-10196.1
-10102.7
-14602
-14343.2
-7846.26
-5345.47
-6575.55
-6736.93
-8257.69
-10430.3
-6948.2
-9875.99
-6422.87
-6502.97
-7972.03
-5624.48
-2495.98
-4823.84
-704.809
-1469.82
-4111.75
-7326.56
-1090.35
-2258.24
-2318.57
-4410.9
-680.526
-1400.6
-6369.84
-5325.93
-6640.77
-4062.88
-8839.55
-6138.44
-10351.7
-6691.92
-2921.85
-3368.28
-3758.31
-2070.61
-2224.21
-2391.95
-2576
-1908.75
-7806.74
-3017.29
-8299.71
-2888.58
-7995.96
-2994.72
-8710.12
-3209.21
-7648.3
-2818.86
-9435.85
-3730.71
-4250.2
-996.255
-5030.08
-1802.61
-5801.67
-2262.96
-7018.2
-2662.07
-9402.39
-3646.25
-5197.42
-834.752
-4420.11
-1476.81
-5067.82
-1865.16
-6588.6
-2443.25
-8516.43
-2782.26
-6091.02
-5942.88
-3870.4
-3777.12
-9642.34
-7664.69
-7416.05
-5880.55
-5351.53
-5005.5
-2043.61
-1697.12
-5003.87
-4895.62
-1735.78
-1667.55
-2378.64
-5676.31
-3631.01
-6857.8
-4731.08
-1939.16
-2996.88
-618.219
-6423.68
-2158.7
4084.54
1336.73
-133.813
76.774
1125.32
1327.31
-2689.57
-1532.18
-1057.85
-451.176
-2673.6
-1681.11
-1134.47
-423.138
-2933.6
-2018.94
-1207.61
-252.094
-960.276
365.047
414.518
1078.08
-5020.43
-4958.99
-3668.85
-4213.23
-7159.23
-6922.73
-5812.15
-5841.1
-2515.96
-3248.82
-4119.65
-3973.64
-2460.33
-2820.8
-1140.15
-1202.57
-4108.45
-4015.61
-2266.52
-2020.47
-1257.75
-2018.75
-240.193
-690.205
-1649.23
-1050.89
-2652.41
-1642.01
-2822.61
-2199.08
-3315.74
-2533.77
-649.427
-215.286
-1601.67
-667.037
274.396
562.818
-410.939
250.93
-3092.24
-3227
-2698.5
-4349.98
-3181.96
-3376.97
-2846.01
-4458.66
-3754.07
-3497.87
-3230.54
-4367.1
-2166.22
-2550.05
-2832.92
-2853.56
-2753.67
-4296.22
-3495.39
-3417.48
-4329.46
-4819.81
-4385.38
-3404.3
-2988.86
-2886.87
-2371.62
-4365.53
-5586.24
-7556.36
-13070.8
-4160.96
-4736.55
-7105.61
-12160.7
-4188.95
-5128.86
-6524.61
-10889.9
-7441.34
-6440.82
-6066.4
-5360.77
-4391.56
-4887.22
-4770.56
-5837.2
-5617.94
-9758.61
-5043.18
-5874.3
-3742.67
-4850.61
-3204.36
-4486.04
-3558.38
-5295.72
-3448.25
-7812.21
-2311.54
-2470.98
-1226.81
-260.367
-4630.36
-4098.71
-3845.27
-2207.09
-645.534
-113.107
-1679.18
-2219.18
-2515.11
-597.848
-456.735
19.8517
-3867.65
-1885.84
-916.91
-476.919
-1808.96
-362.26
-207.598
162.612
-664.524
-1664.05
-1662.88
-4269.6
-1760.12
-3326.9
-2441.47
-6172.18
-1137.46
-998.388
-727.858
-2669.22
296.981
470.689
880.155
-52.3753
-4708.44
-1545.87
-9631.78
-1379.94
-4057.32
-1669
-9102.39
-1369.53
-3616.55
-1076.35
-7592.84
-740.934
-3487.63
-754.208
-3117.26
-741.702
-3628.18
-1094.28
-3554.74
-598.963
-6809.93
-630.291
-4279.81
-537.572
-3874.71
-585.782
-3991.18
-794.966
-4209.28
-447.761
-6727.42
-699.545
-710.842
-204.843
-59.9199
188.064
-220.966
-52.6158
-18.4918
54.6393
-683.973
-164.868
-49.7853
185.74
-92.8617
36.6951
14.1101
66.323
-739.458
-132.159
-15.7059
271.528
192.309
288.275
338.02
448.27
725.818
551.478
557.867
566.099
1055.21
767.351
623.275
460.07
-302.91
99.8794
244.77
516.24
-304.477
145.487
192.743
574.615
-856.059
-127.038
25.6604
433.797
-683.83
-12.1839
42.552
580.728
203.074
327.816
377.554
533.667
90.075
303.482
303.303
505.41
625.656
516.228
446.822
395.972
505.223
454.412
373.318
376.378
-1172.41
-348.278
-143.23
325.867
-1608.4
-430.097
-275.504
527.214
-1144
-315.917
-143.322
322.594
-1559.13
-406.527
-269.671
507.957
-1138.5
-276.915
-165.8
310.198
-1405.95
-352.026
-261.68
444.446
-782.297
-94.0898
-84.0005
343.614
-1327.06
-266.887
-269.847
559.304
-584.991
-21.9807
8.38431
499.14
-1593.82
-335.419
-218.948
456.5
-699.395
-123.591
-54.1372
127.987
-1431.67
-284.419
-199.938
438.614
-649.148
-107.83
-50.4963
123.153
-1161.44
-193.113
-179.5
388.952
-540.374
-73.8214
-42.9693
116.866
-903.023
-123.645
-153.951
333.574
-454.658
-54.7622
-42.852
103.979
-607.664
-34.24
-72.8115
320.525
-252.906
6.34243
-9.37542
107.144
-226.948
122.601
154.146
393.657
151.216
198.957
168.751
212.624
-517.799
-14.7509
12.1355
334.273
-30.5642
97.2996
69.843
149.419
115.64
282.111
266.906
411.442
279.315
289.232
245.488
253.62
439.101
408.859
320.122
328.736
396.04
350.792
269.735
241.149
56.2826
20.2619
9.61142
5.67924
4.20805
24.1997
9.38752
4.58542
2.71176
1.99537
79.0669
33.7577
17.8503
11.0177
8.28705
58.5876
28.9598
16.4573
10.4198
7.89422
144.277
68.1551
37.9928
23.7996
17.9489
215.364
118.114
69.0319
43.97
33.3631
224.38
125.941
73.8033
46.9333
35.5201
219.033
128.22
76.7892
49.2665
37.3492
183.764
91.8246
51.9246
32.6795
24.7805
149.907
72.2887
40.5239
25.3848
19.22
178.967
86.7962
49.0228
30.7602
23.2473
114.104
58.0526
33.2471
20.9068
15.8701
208.554
108.108
61.7519
38.9303
29.4399
185.544
97.3998
56.0048
35.3838
26.8164
204.854
118.406
70.6328
45.2462
34.2864
198.358
114.763
68.3548
43.7475
33.1668
60.7504
18.2394
8.1458
4.72409
3.47738
28.2461
7.1761
3.01297
1.68919
1.21399
70.0286
24.9527
12.3481
7.4378
5.52144
30.4246
8.7606
4.0181
2.34321
1.69598
86.9199
33.5976
17.4712
10.6479
7.89342
40.3653
16.4428
8.97857
5.63146
4.18355
146.479
68.023
38.1753
23.7626
17.7947
70.2618
32.7349
18.5818
11.619
8.67399
126.304
69.6517
40.9173
25.9593
19.6735
-2763.8
-4172.1
-2637.7
-4082.55
-2428.32
-3796.27
-2292.06
-3613.25
-2303.16
-3944.41
-1297.74
-1856.66
-1831.03
-2779.78
-826.374
-1090.34
-288.818
-403.224
-7688.04
-1822.38
-412.831
-90.5077
-22.4436
-2025.97
-533.676
-141.727
-31.4304
-6.92689
-7546.5
-1768.85
-398.553
-86.862
-21.4638
-2101.3
-606.419
-147.489
-33.8544
-8.39739
-7136.72
-1652.56
-369.609
-80.1289
-19.7256
-2032.24
-583.191
-140.831
-32.0234
-7.87535
-6546.62
-1493.38
-332.108
-71.9069
-17.7239
-1922.32
-540.909
-128.408
-28.7962
-6.99577
-5632.34
-1269.55
-282.671
-61.5428
-15.2947
-1742.28
-471.709
-109.935
-24.4171
-5.89117
-3119.66
-750.177
-173.042
-38.5879
-9.77043
-857.113
-219.747
-48.0522
-9.95614
-2.27754
-4369.73
-1022.17
-231.628
-51.0068
-12.8054
-1211.91
-319.115
-73.1161
-16.0857
-3.86965
-1950.52
-481.072
-112.587
-25.361
-6.46091
-538.544
-141.597
-30.5445
-6.0565
-1.33008
-711.392
-178.057
-42.1095
-9.57634
-2.45934
-253.721
-61.1223
-12.5283
-3.45864
-0.516855
761.41
-1436.15
-5261.07
1851.82
-6508.79
-2851.99
-6376.84
-2882.09
-10757.4
-5849.64
-12610.4
-6888.04
-127.663
-519.147
-805.098
-928.195
-816.283
-444.571
-203.073
-786.724
-1193.75
-1318.43
-1073.33
-403.563
-100.98
-98.955
-378.561
-355.443
-487.324
-469.186
-344.277
-351.714
-224.926
-260.113
-384.501
-289.453
476.929
1768.83
3441.83
2742.86
2492.29
1208.21
752.702
2264.3
3752.79
4146.32
3528.93
1626.61
-115.157
-97.3779
-73.8179
-46.0137
-15.6268
-468.943
-397.242
-301.698
-188.351
-64.0206
-727.17
-615.913
-467.734
-291.999
-99.2519
-838.002
-709.447
-538.517
-336.073
-114.213
-736.535
-623.057
-472.506
-294.63
-100.077
-401.451
-339.479
-256.858
-159.589
-54.0537
-183.101
-154.757
-117.266
-73.0789
-24.8161
-710.353
-601.465
-456.627
-285.01
-96.8672
-1077.65
-912.286
-692.529
-432.256
-146.92
-1189.52
-1006.4
-763.639
-476.548
-161.968
-967.648
-818.039
-620.34
-387.005
-131.523
-364.375
-308.289
-233.64
-145.499
-49.3699
-91.1427
-77.1299
-58.5127
-36.4935
-12.3966
-89.3665
-75.6782
-57.4515
-35.8519
-12.1827
-342.054
-289.859
-220.215
-137.51
-46.7431
-321.225
-272.263
-206.887
-129.208
-43.9246
-440.271
-373.033
-283.364
-176.925
-60.1377
-423.9
-359.171
-272.842
-170.361
-57.9086
-311.026
-263.502
-200.113
-124.902
-42.4427
-317.607
-268.951
-204.183
-127.428
-43.3022
-203.026
-171.733
-130.1
-80.9819
-27.4668
-234.457
-198.086
-150.02
-93.438
-31.7155
-346.077
-291.607
-219.923
-136.34
-46.131
-260.315
-219.251
-165.432
-102.683
-34.7819
425.202
357.035
271.601
171.41
58.8661
1571.32
1314.93
998.664
630.668
216.848
3025.15
2516.3
1920.85
1231.31
429.205
2398.94
2018.14
1562.13
1022.88
375.895
2192.95
1848.49
1432.43
932.507
327.492
1094.34
938.464
731.185
470.403
160.695
672.004
563.896
427.18
267.887
91.5574
2016.56
1689.41
1280.36
804.835
275.742
3325.26
2778.33
2110.32
1335.45
460.654
3660.44
3058.34
2332.29
1487.67
518.705
3112.19
2601.86
1990.97
1276.13
445.157
1448.09
1221.57
941.192
604.955
210.737
298.967
686.344
963.845
1074.81
949.165
585.882
438.349
1013.97
1402.38
1494.39
1203.75
489.646
231.71
204.03
499.835
453.673
587.631
551.142
410.141
402.885
274.364
247.11
510.712
318.185
-315.028
-1536.34
-3023.13
-2192.09
-1810.28
-445.265
-689.332
-2160.69
-3510.34
-3710.73
-2888.55
-853.279
270.495
229.599
174.742
109.276
37.1773
620.662
526.475
400.416
250.272
85.1243
871.371
738.916
561.836
351.099
119.407
971.455
823.567
626.056
391.173
133.028
857.866
727.212
552.729
345.299
117.412
530.765
450.786
342.837
214.025
72.7051
396.542
336.529
256.089
160.137
54.4799
916.654
777.297
591.03
369.362
125.624
1267.27
1074.16
816.468
510.148
173.495
1349.76
1143.52
868.903
542.847
184.616
1086.73
920.254
699.067
436.727
148.535
443.037
375.876
285.747
178.435
60.6438
209.656
177.969
135.452
84.7056
28.8173
184.609
156.701
119.258
74.5746
25.3697
452.063
383.528
291.737
182.357
62.0239
410.327
348.127
264.811
165.527
56.2997
531.36
450.702
342.76
214.215
72.8525
498.348
422.677
321.428
200.875
68.3152
370.947
314.711
239.369
149.598
50.8728
364.215
308.841
234.81
146.72
49.8925
248.379
210.892
160.445
100.242
34.0746
223.347
189.338
143.901
89.8832
30.5575
462.055
391.959
297.88
185.932
63.1702
287.529
243.642
185.048
115.501
39.2511
-277.278
-229.91
-173.571
-109.445
-37.6596
-1359.55
-1133.62
-859.5
-543.132
-186.977
-2641.77
-2185.9
-1665.77
-1070.4
-374.208
-1882.04
-1560.86
-1198.81
-787.486
-295.261
-1545.53
-1270.09
-966.67
-624.602
-218.497
-367.092
-285.195
-201.406
-117.045
-34.9463
-614.65
-515.209
-390.142
-244.752
-83.6927
-1923.46
-1611.09
-1221.41
-768.407
-263.445
-3104.96
-2590.34
-1966.62
-1245.47
-430.069
-3258.7
-2709.48
-2060.36
-1314.26
-459.219
-2516.46
-2079.52
-1579.17
-1010.22
-352.844
-725.703
-585.035
-436.46
-277.074
-96.4389
-1921.33
-1394.79
791.131
1292.95
1359.02
1883.09
1233.54
-9921.35
-1524.61
-2997.6
-1320.45
690.819
-4050.13
1009.79
2429.24
863.477
-4871.49
-1963.66
-502.298
-241.684
-2915.25
-713.671
236.899
200.372
1916.29
1868.82
-450.91
-249.398
-8273.16
-3810.28
-3514.93
-1790.37
-2902.4
-2157.36
731.411
1893.61
369.509
-1035.6
-876.249
-800.22
-936.374
-962.161
-974.749
-714.097
-582.181
-477.759
-209.579
720.162
613.228
465.208
288.491
97.4941
1165.03
984.64
747.049
466.555
158.664
1225.35
1035.96
785.515
489.974
166.544
1697.09
1434.39
1087.82
678.909
230.836
1113.19
941.693
713.749
444.776
151.183
-7231.56
-7050.59
-6491.95
-6880.02
-7480.26
-1066.57
-697.584
-833.554
-988.432
-510.787
-2287.05
-1756.33
-1563.35
-1408.89
-745.416
-896.474
-634.727
-631.061
-594.192
-211.162
612.748
505.961
372.574
225.37
76.0025
-3373.4
-2724.86
-2151.23
-1517.56
-585.309
903.491
756.261
566.219
348.691
117.22
2114.67
1735.56
1309.32
833.926
292.467
779.408
658.102
495.498
305.484
102.439
-3174.73
-3292.5
-3048.66
-3434.98
-4047.1
-1463.49
-1030.41
-908.809
-811.672
-357.289
-402.58
-323.334
-277.932
-220.184
-88.0576
-179.257
-131.612
-113.01
-94.6285
-39.1529
-2444.05
-1962.59
-1531.98
-1056.99
-396.966
-598.458
-466.163
-355.108
-232.899
-68.5278
234.213
210.699
156.712
89.1942
28.7774
196.998
177.057
132.374
76.6664
25.4454
1713.6
1437.47
1085.22
676.905
230.605
1681.3
1417.72
1071.91
667.04
226.544
-378.906
-306.325
-240.032
-165.093
-61.0362
-198.785
-153.605
-121.915
-88.5549
-33.7056
-5263.76
-4269.38
-3966.41
-4223.43
-3945.16
-2883.05
-2244.61
-1842.05
-1447.26
-642.375
-2635.14
-2237.32
-1957.03
-1778.84
-798.409
-1325.04
-1061.43
-877.568
-700.502
-365.226
-2463.74
-1994.13
-1537.26
-1026.7
-366.017
-1707.42
-1053.68
-904.406
-753.944
-44.6168
676.64
583.394
440.252
268.216
90.6873
1707.5
1442.99
1092.36
679.804
230.786
355.01
315.555
234.597
136.738
47.6307
-94.9509
-196.338
-231.522
-279.482
-407.779
-570.324
-19688.2
-16201.3
-15262.7
-18279.1
-13864.4
-10617.9
-12775
-9708.07
-17303
-13748.6
-14541.1
-12367.9
-12494.9
-9485.91
-11827.7
-16590.9
-14536.6
-12955.7
-14711.6
-12331.4
-9564.23
-11010.4
-8275.55
-16030
-13509.1
-14438.2
-12644.1
-12483.3
-10422.8
-12102.2
-12940.5
-11857.1
-10405.8
-11323.8
-10324.7
-8537.36
-9261.56
-7948.08
-13340.4
-12186.5
-12662.3
-11754.2
-11554.1
-10020.4
-11238.6
-8902.38
-8539.94
-7415.95
-7708.63
-7910.63
-7414.04
-7081.94
-7076.84
-9632.37
-10665.5
-9324.49
-10225.4
-8900.51
-8110.9
-9689.89
-5735.49
-5648.33
-4777.36
-4851.7
-5578.54
-5652.22
-4723.85
-4895.8
-6749.77
-8230.3
-6633.82
-7663.48
-6525.06
-6325.04
-7283.96
-2097.1
-2084.27
-1719.91
-1735.53
-2100.27
-2204.82
-1696.08
-1690.23
-2766.57
-3461.46
-2701.07
-3045.39
-2681.2
-2655.04
-2897.82
-7454.06
-7511.2
-10446.5
-11503.1
-7541.83
-7153.57
-9727.15
-8113.39
-7133.75
-4672.76
-7274.51
-4594.74
-7377.4
-7397.92
-4691.57
-7098.35
-6950.19
-9642.89
-10411.6
-6724.56
-5937.93
-8781.71
-7217.41
-5051.53
-1995.84
-5011.18
-2233.4
-4286.31
-4079.89
-2583.98
-5981.21
-5887.65
-8136.07
-8572.75
-5932.95
-5490.86
-7636.66
-6873.49
-2705.38
-1932.17
-2689.13
-2547.19
-2641.97
-2899.7
-3246.64
-4419.32
-4446.39
-5983.11
-6113.94
-4595.06
-4556.44
-5897.12
-5817.5
-2792.57
-1801.72
-3018.19
-2789.06
-3319.55
-3883.12
-3756.3
-2747.02
-2772.12
-3815.97
-3847.24
-2723.79
-2747.41
-3798.32
-3760.87
-1560.18
-1333.42
-1775.55
-2209.73
-2278.02
-2781.2
-2957.28
-925.333
-937.302
-1349.97
-1356.17
-936.877
-989.225
-1337.9
-1300.91
-271.112
-549.246
-446.326
-995.408
-778.311
-1009.01
-1234.94
7046.34
21226.7
5394.98
23734.3
2958.75
25153.6
5062.54
39890.4
8279.94
50101.3
8475.49
35510.6
9035.94
31542.2
8795.89
26451.3
4191.22
2263.45
12638
5943.73
3911.06
1790.79
13641.2
5481.89
5378.41
3947.45
15782.4
11497.6
3640.3
2852.06
16194.1
12224.5
8194.97
2969.51
6180.57
2228.71
2813.26
7583.11
38976.2
11915.3
11683.6
5406.75
47371.9
14859.9
10925.3
5145.6
25766.2
8591.35
13120.5
5984.32
20938.3
6660.54
4711.76
2545.2
8319.18
3350.05
4205.41
2668.35
8933.98
3357.37
5654.95
3595.03
5589.29
2334.5
10004.3
3604.9
3940.64
1452.75
12182.9
9135.63
7405.06
6622.38
13728.9
12019.7
7450.77
7947.26
6831.53
5835.14
8856.38
7550.15
5527.12
4743.51
3219.19
2760.41
5536.21
5521.61
3177.22
3178.66
5274.82
4116.79
3090.18
2168.87
5847.46
3287.38
5846.41
6475.93
7729.33
5890.77
8334.85
11045.8
4289.64
1831.23
3765.97
3901.84
2435.73
848.469
1728.28
1498.04
5383
10952.3
3924.72
12401.6
5816.27
11075
4703.23
13186.1
7698.72
11031.8
6536.29
13456.3
8659.7
10526.5
6579.14
6585.72
8108.71
6941.74
7552.04
10350.8
12041.7
17701.3
9370.56
7478.36
7072.61
8969.87
14358.9
13652.9
13212.9
15967.9
16030.9
13315.9
13349.5
16000
15932.5
12311.8
12791.4
15372.4
15532
8745.51
9284
8445.57
8916.22
10232.5
10223.3
11936.6
11602.9
15047.8
15215.1
7986.44
8756.23
8963.45
9530.15
9955.98
10706.2
11437.9
12512.1
15043.3
16311.8
9324.02
6358.49
7552.56
7641.99
10507.6
12007.7
8546.04
11349.6
6896.6
7039.91
8764.63
6283.06
3167.01
5518.93
1296.11
2053.54
5291.81
8421.18
2077.4
3156.17
2635.02
4817.57
979.4
1751.22
6538.95
5592.33
6667.8
4162.32
9198.28
6550.78
10445.3
6958.32
3034.36
3564.78
3790.07
2144.89
2353.12
2579.53
2628.31
1995.98
11448
7516.12
2454.81
12390.8
7776.83
2684.54
11283.7
7359.16
2493.38
12403.1
7769.94
2627.22
10798.9
6934.2
2321.17
12210.6
7658.03
2630.07
6614.53
3753.45
967.797
7770.02
5299.79
1720.47
8874.41
6252.89
2107.33
9785.63
6356.58
2078.71
11842.3
7423.3
2624.49
7322.77
3997.13
1303.23
6975.77
4498.09
1554.75
7797.8
5127.15
1745.95
9255.58
5931.04
2019.75
11227.4
6523.88
2252.86
-495.055
988.569
440.099
2633.07
1747.8
1776.48
4515.26
3969.72
588.775
971.771
622.662
1015.64
338.611
945.932
626.705
1386.39
1896.56
1134.86
3823.14
2700.96
1755.91
2889.03
2919.59
849.11
5805.76
1855.53
-4053.68
-555.45
707.888
735.304
63.3789
229.191
10334.5
4616.6
2745.43
1652.98
10199.5
4694.62
3000.36
1961.76
9892.98
5161.91
4060.32
2929.68
3105.34
2060.53
1766.68
1611.39
13084.8
11450.2
5745.33
7343.38
14554
13597.6
7086.19
8505.64
5277.45
6369.74
11189.1
9261.54
3665.06
4796.95
2126.46
2799.22
4743.94
5547.96
2752.21
3187.76
3017.76
4207.33
1711.52
2565.37
4747.06
3443.33
5405.34
3729.83
8134.78
4974.87
7266.98
4910.62
2839.27
2354.09
3753.27
2561.13
1613.28
1489.81
2375.67
1577.15
12150.7
8297.96
6079.48
6461.53
12047.5
8238.52
6017.04
6326.07
12188.2
7888.19
6148.33
5887.75
13191.9
12652.4
12396.4
9621.41
5691.41
7718.25
9389.06
10029.9
9516.65
6851.87
10949.5
9896.49
8285.93
6790.49
4564.5
7273.81
7357.76
7394.47
9108.34
7197.5
7078.91
7199.22
8891.33
6811.8
6622.93
6824.44
8477.09
8680.45
8210.57
8181.73
7069.26
6224.24
6285.09
6114.25
6451.84
5959.42
7963.86
6356.87
7209.37
5380.23
6137.68
4872.02
5601.23
4876.42
5908.69
4558.97
7308.7
4737.61
3801.22
3239.81
1710.26
7206.66
5481.65
5822.63
3662.31
2518.42
1451.25
3729.91
3379.01
4230.74
1827.32
1978.38
1087.54
5459.28
3109.91
2252.17
1550.23
3474.63
1493.44
1773.65
893.759
2195.53
2648.13
2773.67
4711.27
3308.93
4067.92
3368.8
6143.56
2596.35
1927.47
2021.2
3357.13
1190.15
491.627
472.018
872.515
5851.69
2682.5
772.182
6365.7
1698.95
447.591
5659.97
2777.32
865.229
6302.1
1741.06
480.826
5107.27
2519.2
648.539
5974.48
1604.16
361.514
5540.64
3015.04
789.138
4733.8
2530.28
701.56
4720.82
2362.91
671.161
4732.78
2233.9
514.853
5641.01
1407.6
238.073
6157.86
3228.46
995.217
5381.58
2930.46
963.763
4937.66
2585.07
847.651
4834.03
1972.02
530.514
5836.74
1440.55
455.765
1804.18
693.626
325.234
3.14073
726.821
295.098
150.601
27.1779
1874.85
749.176
392.659
72.2305
890.622
403.12
257.611
120.671
2155.5
897.388
514.282
158.189
1538.14
798.573
458.67
215.357
1140.08
718.457
360.856
121.329
1192.22
821.212
490.991
277.714
1811.57
865.791
452.12
46.5102
1732.99
799.741
466.863
-43.7416
2278.13
961.446
557.207
121.46
2050.9
849.665
512.648
-73.6444
1378.01
759.366
402.024
53.2917
1349.78
709.028
434.727
70.5109
1027.85
663.619
425.311
249.832
941.253
594.988
413.224
239.83
2329.34
851.2
397.878
-93.8844
2458.73
832.832
435.044
-276.951
2321.9
864.04
433.718
-58.1432
2353.12
801.921
433.669
-255.847
2341.77
889.934
501.351
-5.15699
2111.1
727.423
431.1
-186.911
2176.08
858.844
554.805
140.284
2327.46
824.779
557.244
-184.636
1701.98
668.741
438.142
42.4005
2054.1
614.573
321.961
-259.001
813.491
219.159
98.3015
-63.0474
2012.85
619.566
331.933
-230.655
821.751
229.114
109.231
-48.1978
1886.13
604.544
348.455
-180.971
788.27
231.335
123.387
-27.2911
1587.18
519.314
336.32
-126.114
693.941
205.302
132.848
-0.279478
1391.81
486.43
331.341
-51.5285
622.472
208.25
151.749
38.9653
1098.54
474.822
283.88
16.6232
570.429
291.431
182.829
98.819
1172.09
430.331
280.565
-17.1379
565.23
233.239
162.484
71.7982
975.106
511.134
311.381
77.0736
580.431
346.953
216.307
136.435
758.517
495.133
336.991
204.861
538.081
375.709
257.469
193.863
14.0833
12.0488
8.1071
5.37404
4.09242
8.30621
6.18504
4.06404
2.68988