/*--------------------------------*- C++ -*----------------------------------*\
| =========                 |                                                 |
| \\      /  F ield         | OpenFOAM: The Open Source CFD Toolbox           |
|  \\    /   O peration     | Version:  2412                                  |
|   \\  /    A nd           | Website:  www.openfoam.com                      |
|    \\/     M anipulation  |                                                 |
\*---------------------------------------------------------------------------*/
FoamFile
{
    version     2.0;
    format      ascii;
    arch        "LSB;label=32;scalar=64";
    class       volScalarField;
    location    "2.6";
    object      gradTy;
}
// * * * * * * * * * * * * * * * * * * * * * * * * * * * * * * * * * * * * * //

dimensions      [0 -1 0 1 0 0 0];

internalField   nonuniform List<scalar> 
5712
(
12628.3
6938.05
22014.6
14404
21191.7
18005.7
31276.8
38700.2
47581.6
60188.9
25191.2
22115.9
15514.6
10681.2
10230.9
5823.78
21065.3
19087.4
19015.2
18878.4
24188.7
23279.2
27897.1
24071.7
7447.63
5241.36
3875.32
2681.26
10858.6
7032.91
6014.07
3896.79
21323.7
22624.4
19184.2
15727.5
15548.9
12100.9
13134
12532.5
17584.4
17257.4
35699.6
39296
25640.4
27081
18400.8
14482.7
18837
13237.6
8000.62
6896.93
5942.14
8722.11
2952.86
3984.24
7883.11
11660
4944.84
6728.57
8059.69
13991.5
6136.78
10008.5
1925.78
6735.41
341.001
4827.6
18147.6
21842.1
18983.1
21583.7
22949.7
23420.9
23325.2
22806
16854.4
20373.4
16894.7
20109
18992
21394.5
18622.8
21234.6
23460.1
22444.1
23439.9
22237.5
15809.9
20394.7
14416.4
20294.7
17263.7
18378.6
21750.6
30265.1
18058.7
21128.3
21612.9
32948.9
16347.6
16322
21648.9
28799.7
15718.2
15009.2
21624.4
28082.1
4288.75
5386.08
11665.4
18887.1
5165.34
5759.14
14473.8
21268.6
6183.87
6433.62
17748
24100
24727.1
27668
20632.9
18727.2
25166
28223.5
24261.3
20678.6
17344.4
28357.2
25872
23701
19734.9
20019.4
37025.4
1562.3
2055.92
4149.66
8455.82
2221
3068.88
5541
9940.8
3362.96
3249.24
7465.53
11918.1
27652.6
27835.4
22819.1
22041.9
19048.3
17124.3
13819.7
12341.2
10517.3
15536.2
24438.4
22272.8
22438.1
21236.6
18797.8
17527.7
16021.6
14278.3
12553.5
17102.7
22966.5
24513.7
23725.7
26096.8
23300.1
21600.3
23584.1
22672.7
20601.7
20871.7
20335.2
20265.2
24108.3
26717.1
23897.6
26423
23849.1
23589.7
23535.7
23376.7
20406.6
20711.6
20644
20847.9
17565
17393.3
12013.3
14323.7
17711.3
17131.7
12341.8
14776.9
17089.4
17151
11875.7
14356
17240.4
16959.9
11765.5
14018.4
1797
1484.94
1107.47
1011.9
881.665
870.72
2680.08
1937.91
1533.35
2349.81
2121.81
1858.62
2881.83
2842.19
3050.36
4245.8
3741.15
3457.95
26856.7
24226.2
22335.4
22248.1
21107.4
20100.5
15139.7
14649.4
14401.5
10645.8
10209
10043
6897.05
5178.33
4280.45
21224.6
19818
18763.5
21069.3
19872.3
19166.1
15625.2
14078.5
13218.6
11179.2
9988.52
9458.48
7319.97
5495.32
4541.83
28022.8
29155.9
29767.2
27424.6
27315
27398.1
32525.4
28106.1
17905.7
19761.8
17825.3
17596.3
23765.1
20963.6
23205.9
18359.1
25564.7
26739.6
21947.1
24726.2
28843.2
25245.2
28474
29519.3
30109.5
32226.5
24457
25064
21293.8
20965.8
24319.7
23454.2
16492.4
9285.11
15375.3
10283.4
16004.1
9083.13
14791.5
9945.64
14637.7
8397.92
13734.9
9447.4
13475.1
9819
12927.6
9803.46
22517.5
17883.8
21970
17932.9
25144.4
22611.6
25112
22156.1
20256.2
14126.9
21141.4
13709.3
22324.6
17945
22883.7
17882.2
25636.9
21961
26027.9
21832.4
19654
14268.6
19482.5
14249.1
12009.9
8184.35
10673.6
6615.78
11123.7
7304.36
10016.1
6035.27
12262.3
8691.21
10955.8
6941.65
12322.5
9032.31
11022.4
7136.52
2631.92
1411.3
4820.75
2605.48
2723.19
1637.18
4879.66
2889.4
2972.12
2204.25
4824.29
3357.58
13578.4
22699.7
8741.68
7876.58
5449.17
23258.3
15008
8367.84
7413.77
4179.4
22422.1
16278.6
11920.9
8658.64
5103.36
1012.87
1001.05
1733.98
1645.45
1269.13
988.435
2139.87
1962.68
1807.07
1615.48
2633.07
2362.26
23683.6
22835.3
15159.8
14002.9
9503.13
9267.41
7247.85
7058.41
3821.17
3454.23
20652.3
17886.1
15116.9
13155.2
11303
10435.4
7937.42
7759.95
4720.15
5437.12
14268.8
11434.9
14374.1
10761.5
18143.9
13547
18359.9
13273.8
11730.3
9594.44
11617.9
10256.4
14811.6
10239.2
14908.8
10327.8
19208.9
13589
19127.7
13664.9
11795.9
8990.37
11966.2
9343.3
8306.58
7746.19
5264.08
7329.99
8433.63
8137.72
5361.05
7245.08
8272.71
7519.88
5103.56
7670.36
8700.45
7573.11
5323.92
7580
2562.47
2060.08
1617.61
9751.42
4768.6
3652.27
2342.61
2208.21
1883.7
10156.6
5524.25
4454.55
2879.42
3077.04
3094.38
10600.3
6766.03
5934.8
20761.7
18993.4
17698.5
13363.9
12688.9
12212.6
9731.12
9442.63
9274.74
8591.4
8193.22
8021.48
12088.9
8792.48
7890.26
15400.5
13964.8
12983.2
11795.6
10878.4
10330.8
10432.2
9494.36
8796.62
10044
9035.88
8487.52
15537.6
10929.5
9999.33
4897.13
2922.1
2174.77
2106.52
5526.62
3172.01
2269.88
2160.67
4742.95
2871.6
2165.78
2131.59
5482.93
3179.39
2291.57
2172.73
4468.72
2796.86
2177.35
2092.39
5324.88
3206.4
2347.04
2125.24
5599.82
3347.9
2373.86
2266.5
5765.22
3496.99
2480.07
2361.41
4771.26
2972.43
2258.54
2117.44
3753.17
2553.43
2083.93
1993.69
4082.54
2658.67
2139.68
1934.36
3319.97
2348.21
1984.28
1893.08
5178.14
3200.58
2355.02
2233.55
4020.12
2713.71
2158.86
2060.81
5409.96
3361.49
2441.63
2289.18
4171.03
2831.56
2225.43
2085.91
3625.11
2499.2
2021.37
1984.17
2251.73
1989.02
1820.57
1828.09
3498.19
2453
2014.86
1982.49
2227.55
1979.9
1816.36
1837.95
3301.47
2381.06
2008.09
1966.04
2290.72
2006.42
1817.46
1874.55
3079.27
2266.86
1956.15
1955.34
2301.29
2005.62
1843.88
1874.48
2749.23
2144.65
1862.43
1823.09
710.925
1501.42
1428
446.691
-1133.11
1226.57
1228.22
429.632
886.032
1566.18
1454.28
472.769
-860.637
1303.11
1250.12
437.156
1165.51
1662.63
1480.24
470.753
-442.392
1424.52
1277.55
439.287
1542.99
1779.19
1514.69
500.756
24.7855
1570.02
1320.58
455.15
2056.92
1932.78
1578.52
560.193
451.034
1701.84
1362.51
468.18
2394.89
2109.06
1621.02
520.776
295.015
1839.92
1450.42
487.736
2354.38
2031.84
1583.22
523.552
370.459
1788.51
1402.86
474.83
2362.34
2166.25
1662.52
489.834
164.091
1888.71
1490.26
489.617
2347.69
2243.71
1735.89
507.424
331.568
1968.03
1545.67
504.598
2075.22
1627.96
1156.06
688.047
228.169
2078.89
1629.5
1157.36
688.801
228.408
2112.16
1641.22
1162.19
690.847
228.98
2109.65
1644.9
1165.18
692.506
229.501
2135.01
1655.66
1169.03
693.967
229.884
2119.6
1666.6
1176.97
698.246
231.222
2191.87
1695.91
1193.63
706.739
233.822
2231.72
1723.62
1210.42
715.451
236.502
2192.54
1685
1184.45
701.557
232.181
2256.89
1694.39
1186.12
701.902
232.237
2155.34
1671.26
1176.22
697.279
230.85
2241.72
1685.7
1181.09
699.306
231.428
2221.08
1701.35
1194.46
706.799
233.806
2283.52
1710.53
1195.82
706.973
233.812
2247.71
1730.33
1212.66
716.305
236.742
2314.8
1738.67
1213.53
716.268
236.696
2074
1627.15
1154.76
687.237
227.909
2108.36
1628.63
1154.11
686.763
227.755
2098.96
1637.86
1159.46
689.302
228.493
2131.1
1638.25
1158.25
688.565
228.264
2137.15
1652.28
1165.58
691.995
229.257
2178.36
1652.05
1163.94
691.05
228.966
2193.9
1668.12
1172.34
695.052
230.134
2226.04
1664.99
1169.99
693.83
229.752
2229
1678.14
1177.11
697.317
230.808
8162.35
12604.2
8623.42
12983.3
9389.97
13603.2
10306
14665.7
11334.7
16481.3
10542.1
13013.8
10796.9
13898.5
10504.8
12879
10390.2
12855.2
6536.91
1168.81
256.681
57.5887
10.1368
7775.53
2144.62
521.404
118.073
20.6031
6701.88
1155.62
249.062
55.3611
9.68859
7950.73
2160.46
518.416
115.86
20.1442
7003.01
1162.39
244.224
53.5604
9.30942
8287.63
2202.68
518.886
114.574
19.7761
7369.04
1165.54
238.701
51.8316
8.98139
8722.07
2256.34
523.244
114.676
19.733
7684.75
1167.71
237.541
51.8343
9.03704
9130.66
2304.27
533.468
117.525
20.3364
7527.2
1358.65
306.539
71.0437
12.8244
8483.24
2411.02
602.429
140.28
25.1911
7629.92
1283.33
275.957
62.0211
10.9912
8760.91
2373.79
570.739
128.969
22.6973
7477.04
1409
327.045
77.339
14.1444
8408.01
2435.74
621.587
147.55
26.8804
7439.63
1391.08
324.316
77.3232
14.2354
8364.72
2420.39
622.001
148.812
27.2604
34997.9
48632.1
43556.4
32937
18449.6
19355.7
29397.8
29449.8
19802.3
21121.1
31539.2
41937.5
46570.5
63131
23757.1
26062.6
19229.1
18729.1
13339.6
13702.7
4172.48
2998.12
876.046
701.858
832.191
721.033
863.736
4203.62
4335.08
2812.62
3761.86
3428.76
1643.24
2267.89
1999.1
1378.91
1554.98
1311.16
3654.1
2222.4
1470.79
1356.37
1638.51
1428.23
1136.38
1146.04
1087.7
982.627
1243.91
1168.46
3734.8
2449.6
2595.24
1852.91
1579.43
2163.19
1171.54
957.749
1293.51
8859.75
9371.87
9798.09
12291.4
21834.6
6793.32
7888.71
8752.16
10432.1
12362.1
2313.99
3328.06
4116.63
4665.87
4952.16
1864.37
2703.28
3363.6
3821.43
4057.16
2204.54
3182.41
3942.26
4463.15
4729.46
1915.01
2775.46
3450.47
3915.96
4154.42
2284.37
3290.59
4071.75
4610.49
4888.23
9338.09
10183.9
10292.5
11872.9
19798.2
9319.62
9846.7
9959.82
10960.5
13289.4
6545.42
7777.5
8455.29
9391.94
10383
8243.53
8960.25
9108.96
9621.62
10660.4
7619.16
8460.72
8603.78
8978.98
9640.74
4127.53
5516.07
6453.15
7120.81
7516.8
5435.45
6772.89
7553.47
8226.16
8751.79
4881.16
6236.72
7036.48
7613.53
7982.6
3538.97
4876.76
5823.73
6465.01
6808.64
3931.17
5296.83
6216.56
6840.14
7185.16
3384.16
4699.91
5640.06
6267.33
6594.08
8320.23
9416.53
9803.45
11590.1
19459.2
5393.67
6827.31
7765.84
8749.86
9589.76
3754.73
5137.77
6121.89
6825.81
7230.45
3492.62
4840.22
5826.11
6532.78
6932.13
4134.17
5561.22
6572.39
7371.09
7888.43
3666.92
5057.86
6080.76
6847.2
7293.8
2965.59
4191.12
5124.23
5793.32
6157.31
2991.91
4229.69
5163.87
5818.26
6168.29
2850.37
4048.52
4946.83
5553.12
5863.77
2587.55
3702.41
4553.28
5133.43
5431.3
3226.9
4517.68
5463.85
6109.88
6451.71
3046.71
4298.38
5233.71
5879.32
6221.28
8241.62
9080.9
9545.07
11706
20123.7
5780.51
7097.69
8074.17
9412.56
10750
6537.22
8128.59
8906.93
10495.2
12210.9
4635.29
6128.11
7203.33
8222.71
8921
4023.82
5475.38
6534.92
7392.13
7913.49
5345.51
6829.69
7787.82
8882.19
9627.82
3053.11
4305.63
5252.15
5925.32
6290.78
2522.66
3612.03
4448.45
5024.92
5323.92
3346.33
4668.73
5649.5
6352.54
6743.73
18703.1
12163.1
19833.4
14950.2
24001.4
33861.9
25571.6
35273.6
20744.9
20360.7
18300
19031.2
21942.3
21843.8
26879.7
23120.7
14328.4
12518
6411.62
5049.46
16716.3
13269
8893.7
5934.43
21508.5
23700.3
19771.7
17646.9
20533.8
13733.1
12970.2
12528.6
17595
17259.8
35569.3
39296.9
25204
26966.3
18817.5
14597.7
19315.5
13330.8
8398.35
6971.82
13097
15644.4
5306.7
6401.59
14057.4
17505.8
7149
8997.35
12298.5
17803
7698.65
11765
2184.64
7358.57
358.335
4949.46
18445.7
20318
18702.7
20754.1
21384.4
21342
22336.2
21656.8
17290.7
20011.7
18529.5
19443.4
18802.8
20967.2
18556.6
21094.9
22956.4
21855.4
23295.8
22047.5
15922.9
20199.9
14425.9
20228.3
17807.9
19448.5
21867.2
30666.4
18999.4
23159.7
21867.8
33800.3
16593.7
16805.1
21687.9
28975.2
15782.1
15138.4
21631
28132.3
17477
19954
22936.4
32301.9
16696.9
18055.8
23688.2
32071.6
14607.9
15117.8
23866.9
30787.9
18646.1
20637.5
18945.5
19279.8
28187.9
20248.6
17620
19976.1
17896.5
32053.4
20491.5
19429.9
17942
20438.5
38651.3
12715.9
12244.4
10521.4
13125.2
12388.8
12048.4
10744.2
13607.2
11402.8
10443.6
10622.7
13696.7
19906.7
19448.1
17155.8
16469.2
18237.6
16862.6
14370.7
12854.6
11790.3
15631.1
19801.8
18644.3
18796.2
18424
17078.1
16008.1
15983.5
13875.7
12709.6
16198.1
20972
22660.5
22583.7
24954.1
20994.6
19826.1
22316.8
21661.1
19901.4
20098.7
19158.5
19032.7
23553.6
26184.4
23730.6
26263.9
23243.8
23134.5
23355.8
23241.7
20047.7
20316.6
20533.5
20731.2
17263.9
16959.1
11936.7
14115.5
17326.6
16511.9
12332.5
14475.7
16913.1
16907.6
11810.6
14225.8
17181
16882.4
11740
13972.6
11903.5
12881.9
4578.81
4705.62
11599.8
11721.4
5250.59
5468.11
9384.16
9170.43
5725.42
5579.89
19043
18173.5
17017.5
16867.2
15153.4
14723.9
11076.1
10213
7224.05
5636.92
18605.8
17883.3
19236.2
18348.6
14574.1
13349.4
10863.5
9763.55
6581.72
5142.14
23431.2
23482.6
27544.2
24759.1
24757.1
23993
32260.3
26603.5
19094.5
15004.1
20382.7
16050.7
19970.3
15066.1
21237.3
16025.5
22025.6
20439.3
19434.2
18947
20682.1
21894.7
27162.9
29125.1
29293.6
31976.5
22765
24530.9
20189.3
20653.1
22559.9
22930.2
12567.3
9994.74
13541.7
10369.6
12236.8
9716.4
13198.3
10044.3
11653.3
8948.2
12474.5
9454.02
12739.3
9746.83
12708.8
9768.21
18490.9
16576.4
20056.9
17035.5
21902.6
20352.9
23511.5
20871.6
18332.5
13740.5
17158.2
13425.8
21387
17436.8
22602.8
17711.9
24837.2
21290.8
25791.1
21614.4
18736.2
14001.4
19218.3
14151.5
11525.2
8474.94
10791.1
7028.55
10868.6
8197.76
10579.3
6931.35
11919
8769.8
10953
7133.17
12200.6
9038.42
11017.3
7207.1
10998.3
11551.5
9261.76
8924.12
10519.5
11206.6
8919.75
8587.1
9885.67
10410.7
8083.19
7678.46
16467.2
20458.2
14514.7
10209.2
7795.05
19928.4
17604.4
16085.6
10448.4
7345.89
19955
16480.1
13402.5
10727.7
6946.1
13425.8
16360.5
9656.06
11276.7
12633
14773.5
9021.21
10337.6
11233.9
12498.9
7604.88
8042.32
19366.2
18191.7
15931
15094.6
14740.5
15464.9
10872.3
11852.2
7209.09
7366.33
18050.1
15653.8
14942
13100.5
12771.7
12166
10273.8
10459.5
6606.25
7681.52
13835.9
11457.3
14094.7
10843.5
16643.8
12677.5
17508.5
12864.3
11922
10029.2
12049.3
11041.4
14624.9
10272.6
14842.3
10332.7
18771.6
13402.8
18993.4
13610.4
11824.6
9156.11
11943.5
9375.3
8729.93
8358.46
5750.43
8146.41
9378.1
9354.47
6383.52
8781.55
8426.71
7776.94
5322.3
8088.21
8754.67
7657.22
5415.78
7715.2
21923.7
23140.8
27923.8
23061.9
18982.7
20105.1
26155.2
21717.3
15455.8
16332
22606.6
19128.7
17093.1
16277.7
15048.7
14900.5
16433.5
16775.1
14236.9
14002.3
21320.6
18486.4
13576.3
13162.8
12180.1
12250.3
12714.9
12697.8
13698.7
13327.9
22580.2
18710.5
6299
3893.64
2777.75
2574.87
6511.29
3989.15
2820.42
2601.55
6022.11
3778.48
2714.37
2564.41
6325.59
3895.1
2766.97
2558.11
5560.85
3602.53
2645.8
2451.98
5951.1
3781.19
2745.18
2437.34
5959.13
3712.12
2662.11
2498.15
5881.65
3622.06
2575.43
2442.35
5343.97
3436.18
2573.27
2379.22
4257.69
2953.21
2336.1
2205.76
5044.18
3334.65
2544.18
2242.04
4150.25
2955.01
2330.18
2153.43
5479.92
3467.96
2546.07
2399.1
4292.59
2938.36
2318.64
2208.22
5499.36
3451.37
2510.55
2349.02
4260.54
2904.98
2281.95
2136.66
5845.82
3700.24
2700.83
2479.93
5107.42
3400.34
2577.72
2337.41
5521.87
3591.35
2651.67
2449.54
4794.43
3312.62
2538.13
2331.21
5043.66
3419.49
2584.76
2387.69
4366.47
3178.09
2463.01
2328.14
4529.1
3159.37
2434.96
2297.58
4044.53
3041.2
2393.55
2251.18
3980.9
2937.88
2298.63
2099.16
3809.72
3012.81
2138.34
613.373
1514.13
2751.01
1944.91
619.844
3630.44
2978.03
2130.17
637.691
1501.78
2724.1
1933.14
620.789
3364.99
2899.27
2079.36
614.636
1447.8
2667.47
1891.15
605.018
3339.12
2829.85
2055.3
641.032
1600.89
2614
1855.91
603.258
3357.53
2746.86
2031.28
690.316
1683.73
2525.33
1803.87
595.213
2826.73
2496.25
1937.5
639.985
536.145
2210.9
1703.15
570.172
3146.37
2625.36
1983.1
653.115
937.792
2366.05
1748.93
579.534
2565.66
2380.39
1864.67
571.114
232.981
2090.84
1643.18
541.718
2396.8
2311.04
1804.06
535.353
339.361
2030.6
1595.87
522.029
2456.41
1859.94
1287.09
753.944
248.157
2434.61
1852.56
1284.62
753
247.897
2476.36
1856.94
1283.19
751.586
247.396
2431.36
1844.73
1278.68
749.691
246.856
2472.17
1852.18
1278.56
748.864
246.523
2381.14
1827.78
1268.35
744.288
245.198
2361.11
1796.54
1251.09
735.806
242.658
2295.22
1762.92
1233.04
726.934
240
2424
1825.48
1263.85
741.537
244.317
2490.86
1834.96
1265.17
741.661
244.303
2455.58
1845.55
1273.18
745.875
245.581
2536.64
1847.67
1270.82
744.277
245.063
2377.19
1802.32
1252.42
736.126
242.721
2435.64
1811.56
1254.01
736.422
242.765
2300.21
1764.52
1232.52
726.408
239.823
2366.3
1774.27
1234.38
726.895
239.943
2491.17
1870.37
1290.15
755.038
248.451
2569.39
1880.05
1292.23
755.712
248.627
2505.66
1869.91
1287.68
753.383
247.899
2582.87
1879.97
1290.19
754.305
248.158
2528.51
1868.47
1284.05
751.095
247.148
2613.4
1878.84
1286.85
752.2
247.466
2563.66
1863.61
1279.06
748.3
246.257
2634.18
1871.13
1281.74
749.496
246.6
2568.88
1856.07
1274.79
746.152
245.604
10615
14196
10583.1
14173.9
10626.6
14184.3
11006.7
14788.1
11529.1
16105.5
10533.8
12922
10846.1
13758
10483.5
12816.6
10381.4
12834.2
7591.76
1313.42
282.724
62.6724
10.954
8787.64
2388.32
573.309
128.52
22.2748
7592.61
1277.48
271.206
59.7307
10.3955
8777.71
2366.91
563.202
124.952
21.6131
7627.36
1249.83
260.632
56.89
9.8578
8825.32
2350.06
552.412
121.6
20.9326
7732.6
1217.4
249.005
54.0335
9.35612
8985.16
2342.44
544.698
119.442
20.5455
7828.43
1190.71
242.811
53.0774
9.26077
9170.65
2342.09
545.025
120.358
20.8464
7530.08
1360.37
307.483
71.3832
12.8998
8460.18
2411.76
604.057
140.922
25.3362
7673.12
1292.06
278.54
62.7375
11.132
8752.55
2385.99
575.919
130.468
22.9937
7468.63
1408.25
327.222
77.462
14.1772
8386.13
2433.17
621.734
147.752
26.9379
7435.38
1390.52
324.298
77.3456
14.243
8356.44
2419.13
621.92
148.847
27.2739
34562.6
48498.5
43259.4
31650
23720.7
28098.4
23562.2
28135.8
26427.1
40943.3
28473.8
44520.1
250.355
267.583
305.99
367.15
451.785
560.898
264.944
281.956
319.624
378.872
460.648
566.489
238.407
232.426
255.982
249.983
295.668
289.947
360.778
357.418
451.405
454.835
570.492
587.635
694.372
867.709
1109.28
1471.9
1828.49
2114.91
699.219
865.363
1071.89
1312.96
1535.44
1683.65
670.43
983.887
1236.78
1414.09
1505.42
716.361
1050.85
1320.44
1509.29
1606.51
818.782
1200.18
1506.99
1721.59
1831.98
981.642
1437.12
1802.45
2057.47
2188.52
1206.39
1762.77
2207.2
2516.73
2675.69
1494.75
2177.72
2720.27
3097.45
3291.31
709.363
1040.75
1307.97
1495.24
1591.68
754.673
1106.7
1390.23
1588.75
1690.91
855.009
1252.74
1572.42
1795.92
1910.87
1012.57
1481.56
1857.37
2119.66
2254.47
1229.4
1795.1
2246.6
2561.18
2722.91
1508.63
2196.03
2741.8
3121.86
3317.72
638.479
937.135
1178.2
1347.28
1434.39
622.471
913.691
1148.82
1313.76
1398.73
685.388
1005.62
1263.87
1444.84
1538.03
669.349
982.177
1234.53
1411.41
1502.49
791.293
1160.19
1457.15
1664.93
1771.82
776.034
1137.97
1429.43
1633.42
1738.36
964.785
1412.84
1772.41
2023.44
2152.41
955.877
1399.98
1756.5
2005.41
2133.28
1205.57
1761.93
2206.39
2515.77
2674.52
1214.72
1775.25
2222.92
2534.36
2694.06
1520.4
2215.1
2766.49
3149.14
3345.43
1565.74
2280.2
2846.31
3238.32
3439.03
1844.4
2674.63
3329.38
3784.88
4020.25
2291.59
3296.55
4081.41
4632.08
4921.49
2897.59
4105.6
5036.68
5711.2
6082.89
3764.86
5180.53
6254.94
7113.88
7645.65
4551.22
6048.62
7188.31
8241.26
9016.82
5150.15
6653.32
7811.51
9036.99
10046.1
1855.86
2688.79
3345.85
3804.54
4042.67
2284.76
3286.41
4070.48
4623
4914.86
2807.27
3994.29
4915.7
5580.13
5943.73
3399.96
4765.34
5817.76
6611.19
7072.33
3927.63
5419.4
6567.76
7484.54
8058.42
4269.87
5828.46
7031.67
8037.43
8700.08
253.522
277.199
322.554
391.386
484.41
602.456
268.158
291.688
336.211
402.725
492.008
605.088
241.519
235.501
265.502
259.412
312.232
306.427
385.472
382.233
485.369
489.185
615.992
636.098
743.819
922.036
1162.17
1511.77
1851.36
2121.64
743.591
912.399
1116.52
1348.76
1558.09
1691.26
678.928
996.429
1252.67
1432.36
1524.94
742.24
1089.14
1368.99
1565.18
1666.25
863.405
1266.32
1591.01
1818.49
1935.63
1047.06
1534.39
1926.43
2200.84
2342.12
1294.72
1894.77
2376.29
2713.07
2886.52
1607.76
2347.8
2939.68
3353.69
3567.37
718.004
1053.53
1324.19
1513.92
1611.63
780.887
1145.54
1439.55
1645.6
1751.72
899.731
1319.12
1656.87
1893.43
2015.24
1077
1577.48
1979.77
2261.34
2406.35
1314.34
1922.12
2409.41
2750.35
2926.12
1613.59
2353.97
2945.56
3359.84
3574.1
646.834
949.462
1193.8
1365.2
1453.52
630.724
925.863
1164.21
1331.43
1417.6
710.986
1043.45
1311.78
1499.95
1596.89
694.697
1019.62
1281.91
1465.89
1560.66
835.888
1226.23
1540.95
1761.5
1875.07
820.39
1203.62
1512.68
1729.31
1840.86
1031.42
1511.89
1898.59
2169.3
2308.65
1022.83
1499.48
1883.23
2151.89
2290.17
1297.56
1899.51
2382.76
2720.68
2894.64
1307.85
1914.77
2402.06
2742.77
2918.11
1644.31
2401.97
3008.08
3431.77
3650.22
1698.05
2480.59
3106.47
3543.74
3769.04
1979.78
2880.51
3597.72
4100.87
4362.26
2442.08
3529.42
4389.96
5000.2
5322.84
3047.55
4345.14
5363.1
6109.38
6522.54
3884.21
5383.34
6544.79
7481.59
8061.15
4625.42
6183.76
7389.84
8507.27
9327.24
5174.12
6699.96
7883.6
9135.81
10164.7
1977.22
2873.1
3585.79
4086.82
4348.04
2414.57
3486.23
4334.02
4936.31
5255.82
2932.21
4190.56
5179.39
5898.36
6293.05
3502.43
4930.97
6045.78
6891.98
7384.32
3994.12
5530.04
6723.56
7680.23
8278.89
4292.68
5867.2
7087.07
8108.05
8780.48
4156.85
2999.2
941.107
757.896
912.539
787.941
939.255
3922.88
3839.07
2740.01
3231.58
1699.8
2215.97
1468.44
1637.18
1399.03
3545.35
2247.85
1549.75
1439.81
1706.9
1500.34
1203.51
1228.88
1199.24
1085.23
1338.4
1260.34
3693.79
2464.37
2585.36
1893.45
1638.18
2194.23
1246.96
1043.54
1374.53
8856.41
9415.76
9891.15
12475.3
22208.5
6812.34
7942.74
8846.31
10578.3
12554.6
2495.05
3610.2
4492.88
5116.91
5445.19
2018.08
2937.76
3670.22
4183.43
4449.53
2427.49
3528.59
4402.76
5014.38
5331.64
2098.86
3056.75
3819.52
4352.97
4628.96
2494.54
3618.16
4508.74
5134.49
5461.11
9104.16
10604.5
11427.7
13913.9
23606
8974.97
10577.8
11672.4
13911.7
17849.5
6628.51
8364.66
9627.13
11196.1
12704.2
8026.62
9988.48
11116.5
12832.5
15111.3
4384.71
6100.48
7409.56
8423.48
9046.6
5553.98
7385.86
8727.84
9957.32
10893.8
3839.42
5447.53
6693.02
7602.51
8113.06
4246.43
5955.75
7265.63
8250.69
8830.73
3672.81
5240.93
6460.53
7337.45
7817.52
8266.8
9734.21
10553.2
12890.6
21900.6
5572.97
7301.37
8591.34
9936.63
11042.1
4024.71
5657.61
6919.28
7875.08
8438.23
3753.93
5307.21
6514.89
7418.77
7939.39
4375.29
6036.7
7313.42
8361.53
9042.03
3891.56
5457.11
6668.6
7604.39
8155.42
3159.17
4507.15
5562.49
6334.58
6758.77
3233.23
4628.93
5723.11
6513.07
6942.79
3170.99
4570.69
5670.68
6447.47
6858.71
2876.16
4159.25
5171.9
5884.72
6259.1
3517.35
5027.36
6206.22
7055.05
7519.02
3318.33
4755.57
5881.86
6690.64
7129.19
8249.04
9242.4
9862.54
12259.9
21235.5
5854.9
7267.32
8351.56
9810.52
11246.3
6626.5
8446.47
9486.77
11390.8
13368.1
4774.9
6395.99
7615.46
8776.14
9564.31
4211.51
5815.65
7042.19
8053.65
8670.7
5509.89
7218.45
8438.71
9807.7
10737
3273.17
4670.28
5763.59
6561.7
7000.86
2764.27
3994.91
4966.78
5653.54
6015.63
3591.92
5093.46
6263.37
7132.1
7623.53
9602.81
8927.88
7858.32
6500.41
4705.15
1832.54
18794.8
20011
21481.5
22097.5
20304.3
20598.5
20715.8
21295.9
16338.8
18607.1
18511.3
18598.6
24660.5
17175.4
26649
17752.7
19032.9
20225.5
20449.7
19564.1
20785.2
19851.8
21018.1
16864.8
24638.4
19012.4
23995.1
25540.8
20887.7
30761.2
16586.5
17691.9
18475.7
18340.8
18506.1
20208.6
18578.6
20364.7
19057.4
23873
21394.9
23541.2
26709.3
23439
29637.9
15451.7
16479.8
16820.4
16478.5
17582.6
19837.5
17301.5
19657.6
17366
22039.6
19363.2
20963.8
23586.8
20761.7
26748.6
14321.3
15376
15519.6
15119.5
16756
19423.7
16037.9
18312.8
15433.7
17998.1
17460.7
16866.1
20658.8
17682.8
21637.9
13228.6
14259.4
14473
14063.5
15416
17605.5
14994.6
16960.6
13364.5
14575.1
15306.1
14167.2
18236.8
14996.9
18968.1
21820.5
21973
22642.7
23618.2
22598.8
23324.3
21750.9
22597
18815.1
12019.1
19967.9
11869.4
20069.3
16658.5
17094.4
20923.3
21381.5
21098.9
21582.1
22027.5
22834.5
20634.4
21643.5
16808.7
12027
17593
11750.4
17427.4
15722.3
15874.4
18465.6
18948
18954.9
18992.2
19737.8
20419.6
18975
20319.2
15597.5
12803.3
16499.9
12193.1
16988.3
14261.3
16515.9
16112
16748.8
16972.4
16728.2
17756.7
18465.5
17516.4
18988
13881.1
13956.4
14860.6
13104.8
15505.3
13069.8
17526.4
14553.7
15335.5
15524
15194.7
16495
17773.9
16096.3
17468
13021.9
15537.5
14419.5
15397
15792.8
14473.3
20092.8
13156.2
14041.7
14408.4
14039.6
15691.3
17442.2
14999
16600.9
12735.8
16830.8
14593.7
17478.3
16591.2
15306.8
22441.6
12349.3
6657.48
21998.3
14363
21187.3
17991.1
31271.2
38689.3
47576.3
60172.4
25196.8
22106.1
15520.3
10660.6
9884.25
5503.4
21060.5
19084.7
19009.7
18876
24185
23277
27892.4
24069.6
7275.36
5151.64
3754.04
2626.68
10850.6
7026.54
6014.88
3901.17
21318.7
22618.4
19181.5
15725.4
15545.5
12101.8
13132.4
12531.9
17583.2
17256.7
35697.5
39294.9
25639
27080
18400.4
14482.8
18836.4
13237.4
8000.58
6896.92
5839.23
8552.37
2887.21
3878.34
7887.24
11670.4
4954.12
6741.23
8062.16
13996.6
6140.42
10013.1
1926.3
6737.08
340.999
4828.15
18146.3
21841.3
18982.1
21583.1
22948.4
23420.1
23324
22805.3
16854.2
20373.2
16893.9
20108.7
18991.3
21394.1
18622.3
21234.3
23459.2
22443.5
23439.1
22236.9
15809.7
20394.6
14416.2
20294.7
17264.2
18380.5
21751
30266
18059.2
21130.8
21613.5
32950.2
16348
16323.1
21649.3
28800.4
15718.5
15010
21624.8
28082.7
4233.52
5343.47
11498.6
18737.6
5174.13
5768.78
14487.8
21286.7
6187.48
6437.25
17754.2
24105.5
24725.9
27667
20631.4
18727.6
25168.8
28222.5
24260.1
20676.7
17344.8
28359.9
25871.2
23700.1
19734.3
20020.1
37027.1
1537.35
2026.08
4096.6
8384.32
2230.02
3074.01
5552.39
9951.44
3366.14
3251.59
7470.33
11922.2
27651.8
27834.7
22818.1
22041.2
19047.2
17123.6
13820.5
12341.9
10519.6
15538.2
24437.8
22272.4
22437.5
21236.2
18797.6
17527.6
16022.2
14278.8
12554.5
17103.5
22966.1
24513.4
23725.3
26096.5
23299.6
21600
23583.7
22672.5
20601.6
20871.6
20335
20265.1
24108
26717
23897.4
26422.8
23848.8
23589.5
23535.4
23376.5
20406.5
20711.5
20644
20847.8
17565.2
17393.4
12013.6
14323.9
17711.6
17131.9
12342.3
14777.2
17089.5
17151
11875.8
14356.1
17240.4
16959.9
11765.6
14018.5
1762.19
1457.52
1088.59
1000.14
872.743
863.97
2682.33
1939.67
1535.8
2354.7
2126.04
1862.8
2883.09
2843.27
3051.44
4247.69
3742.78
3459.74
26856.2
24225.8
22335.1
22247.7
21107.2
20100.4
15139.3
14649.2
14401.5
10646.2
10209.3
10043.5
6897.99
5179.08
4281.21
21224.2
19817.8
18763.3
21069.1
19872.2
19166.1
15625.2
14078.5
13218.7
11179.5
9988.79
9458.8
7320.36
5495.65
4542.19
28027.1
29157.9
29771
27426.1
27312.8
27397.2
32522.2
28105
17765
19727.9
17649.3
17554.3
23787.2
20957.5
23232.3
18352.5
25570.2
26745.9
21949.5
24728.8
28843
25245
28474.5
29519.2
30108.7
32225.7
24458.8
25064.4
21294.6
20966
24320.4
23454.7
16475.8
9265.92
15355.8
10267.7
16001.2
9083.92
14788.8
9945.63
14636.7
8397.93
13734.2
9447.26
13475.3
9818.99
12927.9
9803.63
22518.2
17883.8
21970.5
17932.9
25143.9
22611.2
25111.4
22155.6
20256.7
14127
21141.8
13709.4
22324.7
17944.9
22883.6
17882
25636.3
21960.6
26027.3
21832
19654.3
14268.7
19482.7
14249.1
12010.3
8184.4
10673.7
6615.86
11124.1
7304.46
10016.3
6035.37
12262.6
8691.29
10955.9
6941.71
12322.7
9032.45
11022.5
7136.59
2619.28
1397.45
4806.17
2587.27
2725.7
1639.57
4880.86
2890.76
2972.98
2205.01
4824.66
3358.12
13578.3
22699.1
8741.82
7876.96
5449.42
23257.6
15007.6
8367.64
7413.9
4179.77
22421.6
16278.4
11920.9
8658.83
5103.52
994.464
981.49
1710.79
1634.99
1270.18
989.036
2140.95
1962.91
1807.62
1615.87
2633.58
2362.42
23682.9
22834.7
15159.2
14002.2
9502.55
9266.51
7247.72
7058.09
3821.47
3454.35
20651.8
17885.7
15116.6
13154.9
11302.8
10435.2
7937.51
7759.94
4720.3
5437.13
14268.6
11434.7
14374
10761.4
18143.5
13546.8
18359.6
13273.6
11730.3
9594.42
11617.9
10256.4
14811.5
10239.1
14908.6
10327.7
19208.6
13588.9
19127.5
13664.7
11795.8
8990.34
11966.2
9343.26
8306.63
7746.22
5264.12
7330.06
8433.71
8137.76
5361.14
7245.2
8272.73
7519.89
5103.58
7670.4
8700.45
7573.1
5323.94
7580.03
2527.4
2029.76
1593.31
9696.2
4728.51
3616.38
2341.61
2207.98
1884.35
10163.6
5530.31
4459.82
2879.87
3077.42
3094.7
10602.9
6768.41
5937.11
20761.1
18992.8
17698
13363.1
12688.2
12211.9
9729.98
9441.64
9273.95
8591.03
8192.78
8021.11
12090.3
8793.87
7891.71
15400.1
13964.5
12983
11795.3
10878.1
10330.5
10432
9494.14
8796.43
10044.1
9035.89
8487.55
15538.4
10930.4
10000.3
4897.07
2923.56
2175.34
2105.9
5525.1
3172.53
2270.07
2159.3
4741.56
2871.32
2165.7
2131.46
5482.04
3179.43
2291.63
2172.71
4468.18
2796.74
2177.32
2092.33
5324.48
3206.37
2347.06
2125.22
5599.65
3347.89
2373.88
2266.5
5765.22
3497.04
2480.12
2361.43
4771.14
2972.42
2258.56
2117.44
3753.17
2553.47
2083.97
1993.7
4082.38
2658.66
2139.68
1934.35
3319.98
2348.26
1984.32
1893.1
5178.1
3200.61
2355.05
2233.56
4020.14
2713.75
2158.91
2060.83
5410.01
3361.55
2441.69
2289.21
4171.08
2831.62
2225.49
2085.94
3624.95
2500.69
2022.22
1983.91
2247.96
1988.73
1820.97
1827.26
3496.81
2452.72
2014.74
1982.34
2226.73
1979.92
1816.26
1837.92
3301
2380.98
2008.05
1965.99
2290.66
2006.55
1817.49
1874.56
3079.21
2266.91
1956.19
1955.35
2301.4
2005.77
1843.95
1874.5
2749.3
2144.74
1862.49
1823.11
706.293
1501.16
1428.82
446.859
-1137.4
1225.09
1228.03
429.516
887.221
1567.05
1454.58
472.988
-858.716
1304.07
1250.57
437.307
1166.08
1663.06
1480.42
470.852
-441.429
1425.07
1277.82
439.378
1543.33
1779.43
1514.8
500.808
25.3245
1570.33
1320.74
455.203
2057.1
1932.91
1578.6
560.226
451.316
1702.02
1362.61
468.213
2394.92
2109.12
1621.06
520.785
295.031
1839.97
1450.46
487.75
2354.45
2031.92
1583.27
523.567
370.54
1788.6
1402.92
474.849
2362.35
2166.3
1662.56
489.843
164.08
1888.76
1490.3
489.63
2347.7
2243.76
1735.94
507.438
331.547
1968.08
1545.72
504.614
2073.76
1627.24
1155.72
687.893
228.123
2076.87
1628.66
1156.96
688.611
228.351
2112.07
1641.16
1162.16
690.833
228.976
2109.62
1644.86
1165.16
692.503
229.503
2134.96
1655.62
1169.01
693.958
229.882
2119.57
1666.57
1176.95
698.242
231.223
2191.86
1695.89
1193.61
706.733
233.821
2231.72
1723.61
1210.41
715.446
236.501
2192.51
1684.98
1184.43
701.549
232.18
2256.87
1694.37
1186.1
701.894
232.235
2155.3
1671.22
1176.2
697.27
230.848
2241.69
1685.67
1181.07
699.298
231.426
2221.07
1701.33
1194.44
706.793
233.805
2283.52
1710.51
1195.81
706.966
233.811
2247.71
1730.32
1212.65
716.3
236.74
2314.81
1738.66
1213.52
716.262
236.695
2072.88
1626.53
1154.48
687.11
227.871
2107.31
1628.07
1153.86
686.656
227.727
2098.87
1637.8
1159.42
689.287
228.491
2131.05
1638.18
1158.21
688.553
228.267
2137.09
1652.24
1165.55
691.985
229.255
2178.3
1652
1163.91
691.041
228.967
2193.86
1668.08
1172.32
695.043
230.132
2225.99
1664.95
1169.96
693.82
229.751
2228.96
1678.11
1177.09
697.308
230.806
8129.77
12566.8
8624.29
12985.7
9390.87
13604.4
10306.5
14666.4
11335
16481.7
10542.3
13014
10797.2
13898.8
10504.9
12879.1
10390.3
12855.4
6526.35
1163.07
255.29
57.2774
10.0829
7762.17
2140.3
520.336
117.828
20.5607
6699.75
1153.69
248.419
55.1905
9.65594
7948.81
2158.33
517.592
115.624
20.0968
7001.93
1161.7
243.955
53.4797
9.29286
8286.88
2201.66
518.434
114.431
19.7461
7368.6
1165.29
238.588
51.7935
8.97306
8721.81
2255.9
523.022
114.6
19.7161
7684.64
1167.62
237.496
51.8174
9.03309
9130.62
2304.1