/*--------------------------------*- C++ -*----------------------------------*\
| =========                 |                                                 |
| \\      /  F ield         | OpenFOAM: The Open Source CFD Toolbox           |
|  \\    /   O peration     | Version:  2412                                  |
|   \\  /    A nd           | Website:  www.openfoam.com                      |
|    \\/     M anipulation  |                                                 |
\*---------------------------------------------------------------------------*/
FoamFile
{
    version     2.0;
    format      ascii;
    arch        "LSB;label=32;scalar=64";
    class       volScalarField;
    location    "2.6";
    object      gradTx;
}
// * * * * * * * * * * * * * * * * * * * * * * * * * * * * * * * * * * * * * //

dimensions      [0 -1 0 1 0 0 0];

internalField   nonuniform List<scalar> 
5712
(
-7757.07
-9474.09
-17743.3
-27692.2
-26781.4
-52254.4
-18539.6
-55771.8
-19131
-44731.1
-23516.4
-38647.4
-17999.6
-23778.6
-9679.82
-9816.46
-12548.6
-14161.2
-17256.1
-15625.6
-12020.2
-18100.6
-17939.1
-17971.8
-5062.48
-3652.83
-6867.72
-4898.31
-11471.5
-7397.99
-21251.4
-14775.6
-17706.2
-17914.6
-17926.6
-18034.6
-4072.62
-3675.84
-41294.4
-51080.9
-21953.7
-29317.7
-53321.4
-65619
-24705.8
-30399.7
-30884.3
-40395
-24587.8
-34088.6
-14105.8
-17889.4
-2865.2
-904.982
-3732.71
-1290.62
-6406.5
-2630.8
-11148.7
-4084.57
-7277.1
-2416.04
-7399.74
-2092.34
-14579.1
-4240.76
-19128.3
-5989.32
-24742.9
-14109
-20951.8
-14470.8
-25459.9
-16392.8
-20213.5
-16380.8
-16168.4
-11646.5
-17698.2
-11160.2
-20369.9
-15051.3
-21056.6
-15466.8
-19819.6
-16801.6
-20594.6
-17159.1
-16721.4
-12389.5
-18043.5
-12875.5
-17788.1
-7272.8
-10101.9
-11488.8
-19100.8
-8360.72
-9965
-11955
-17868.1
-6805.04
-10622
-11368.5
-18488.2
-6858.7
-11194.4
-11496.1
-2767.78
-3103.45
-970.789
-1903.92
-7986.55
-9357.51
-3260.85
-6155.21
-12974.7
-15398.8
-5785.41
-10331.9
-17354.2
-9182.83
-17422.3
-20750.7
-10356
-6771.36
-10828.4
-12187.4
-21072.4
-13208.2
-9822.37
-12806.2
-14104.4
-13555.9
-16827.9
-3075.67
-3162.26
-1892.51
-2023.65
-9123.67
-8757.68
-5818.46
-5926.88
-13687.3
-12626.4
-8591.87
-8665.03
-9648.28
-10809.9
-15254.2
-16183.7
-16797.8
-15823.8
-19831.6
-18262.8
-13509
-13484.5
-12926.5
-14166.4
-16641.5
-15401.4
-15589.2
-13222.5
-13869.6
-11266.4
-15260.8
-12240.3
-14136.6
-7787.47
-11078.6
-10878.7
-15608
-18295.4
-15938.7
-20860
-9312.94
-9274.7
-12773.7
-6025.09
-10666.7
-16914.7
-10997.1
-18005.3
-16157
-25527.3
-16667.7
-26057.7
-8981.26
-14788.6
-9254.78
-15977.1
-11035.5
-8322.25
-14037.5
-6430.53
-12000.9
-4734.4
-13296.7
-3474.5
-11415.1
-11815.9
-14674.5
-7620.53
-10264.1
-13581
-13455.8
-9663.76
-2980.58
-2792.86
-2441.37
-1921.58
-1890.82
-1669.08
-8110.44
-7073.08
-6245.32
-5253.52
-4446.71
-3796.61
-10665.9
-9157.92
-8448.35
-7555.61
-6171.43
-5643.8
-9787.97
-8071.39
-7733.14
-15174.2
-11493
-9449.88
-13536.8
-10086.6
-7933.21
-14992.6
-11919.7
-10156.2
-11428.3
-7884.16
-5964.73
-18300.1
-15081
-13529.3
-13331.7
-10713.4
-8997.38
-11658.7
-8898.46
-7103.11
-10315
-7827.72
-6309.92
-10976.2
-6667.96
-4231.25
-11323.8
-18510.8
-9574.37
-13762.3
-9139.8
-18878.1
-7633.81
-15457.8
-207.218
-1735.09
225.037
-1014.94
-3569.57
-6705.36
-2237.17
-4032.5
-1869.15
-3971.93
-10937
-16357.2
-8688.57
-6401.17
-11503.6
-10053.8
-15361.5
-16431.6
526.208
5388.59
-8328.39
-5867.62
-6440.85
-3716.37
-1597.65
-1024.7
-1271.18
-772.898
-3919.11
-1293.52
-1933.75
-236.624
-9961.96
-3054.08
-7432.14
-2324.07
-8415.14
-2544.44
-9527.67
-3164.38
-12192.4
-12130.2
-9511.47
-12066.6
-18308.2
-16570.1
-15014.6
-15801.4
-7150.5
-9470.73
-8338.63
-8726.77
-8917.44
-12033.6
-9381.35
-12171
-14346.3
-15539.4
-14873.8
-15676.5
-6335.97
-9637.03
-6150.25
-9782.23
-1006.53
-1666.67
-7772.89
-4582.44
-993.669
-1449.82
-6805.98
-3895.17
-984.144
-1499.15
-8226.44
-5040.02
-1290.39
-1619.5
-8330.42
-5320.03
146.087
280.985
-501.869
-370.19
762.785
1275.52
-854.15
-631.484
-1339.76
-321.412
-2752.21
-2486.99
7666.74
3907.16
4427.86
2798.6
-248.98
7066.72
10385.9
4892.9
4817.39
-229.921
-9271.95
-6883.82
-5805.95
-6104.75
-3801.94
504.389
397.689
-230.431
-367.635
1404.19
1603.46
-664.847
-925.433
1128.86
1793.16
-1667.21
-2083.72
3151.81
1717.6
8102.55
5827.37
4262.37
3099.6
3753.5
3148.76
-589.829
-1475.94
-4881.4
-3360.44
477.992
2276.93
560.104
1927.58
-635.599
498.963
-1200.64
-1685.44
-4110.55
-4562.41
-9796.55
-6239.52
-8594.24
-8428.52
-12960.6
-10171.5
-7668.04
-4781.3
-2679.62
-3389.03
-11597.3
-4912.38
-12430.8
-4518.31
-14892.5
-9782.58
-15836.8
-9370.46
-9216.87
-3521.07
-10007.9
-3053.86
-6033.06
-5045.29
-4876.49
-8468.33
-3103.63
-4100.73
-3320.18
-7165.61
-6623.98
-4764.09
-5856.52
-9698.36
-7916.3
-4552.79
-6804.8
-9649.15
575.701
794.117
944.114
-237.234
146.173
210.103
2123.35
2658.24
2899
-371.677
626.66
779.362
2554.1
3788.26
4322.83
-1139.51
1103.04
1575.43
1007.34
1568.42
1426.23
4635.6
5035.16
4702.1
3618.59
4335.96
4226.8
3801.46
4938.1
5161.09
-739.623
1607.64
1565.28
-3932.03
-1879.45
-1046.26
1521.69
2814.55
3231.1
1717.61
3164.83
3537.31
976.935
2774.95
3161.25
-2081.6
1088.52
1326.16
-80.8809
7.82175
41.6149
88.8915
110.994
110.499
129.691
134.95
-221.334
8.51451
111.395
234.744
254.397
253.988
283.258
308.041
-449.489
-54.534
121.716
360.617
35.7534
211.184
258.145
354.659
43.8721
138.37
107.569
119.746
-173.129
-9.91758
54.8513
126.87
-1127.12
-334.315
-108.396
214.455
-1697.37
-533.249
-292.5
299.337
-955.151
-253.774
-28.5412
351.524
-1386.28
-426.206
-250.334
301.115
-1040.32
-322.065
-107.374
180.894
-1870.04
-591.186
-311.294
369.614
-1103.85
-377.431
-107.653
238.006
-1959.72
-625.474
-328.569
405.077
-82.1786
-4.85434
17.3579
80.5362
-73.729
-2.69549
4.19275
84.3362
-226.007
-19.2619
48.9023
212.969
-133.091
16.8992
25.9657
229.993
-776.49
-194.678
-25.4652
329.096
-613.263
-125.296
-22.1368
366.374
-414.518
-40.8777
68.0595
358.012
-280.895
-11.239
14.9206
355.004
-1184.82
-331.473
-175.294
409.346
32.8956
31.1272
24.5233
65.9628
132.815
59.558
36.3845
40.1113
8.87822
59.4618
48.6327
174.381
320.297
153.375
91.3802
106.602
-119.181
40.728
53.4164
273.08
420.627
218.948
137.006
163.827
-166.153
51.8606
67.7277
362.39
412.312
254.949
156.97
194.884
-407.493
2.9487
-2.58052
356.942
189.089
226.336
125.414
182.477
-1232.59
-150.09
-102.415
343.094
-384.93
72.7856
47.468
136.074
-832.614
-50.3813
-59.6374
346.594
-168.267
151.062
85.2992
161.371
-1569.64
-288.586
-165.718
369.554
-531.115
-11.8827
6.6317
122.234
-1806.62
-439.403
-241.722
365.905
-671.93
-120.559
-45.9429
103.678
36.1209
17.4189
9.40501
5.70572
4.22161
49.0908
26.3279
14.918
9.26166
6.9039
77.4988
37.0532
19.9147
12.1188
9.03576
129.536
71.6206
41.2483
25.9109
19.4339
110.035
53.2857
29.1685
17.9758
13.4912
185.874
101.75
59.1688
37.4878
28.2393
63.1211
33.4627
19.4902
12.4054
9.36202
36.0794
18.2665
10.3517
6.53566
4.9103
97.1501
44.3117
24.3669
15.1441
11.326
22.9147
6.68253
2.88445
1.59433
1.14139
142.046
72.8287
41.6608
26.2826
19.7844
39.9698
16.305
8.5936
5.23162
3.86259
35.3153
9.67543
3.87937
2.08487
1.48476
23.8644
7.47604
3.44322
2.00325
1.46942
34.1234
8.88055
3.38028
1.77922
1.22466
17.5643
2.68775
0.42796
0.0409842
-0.0430169
29.4365
13.1578
6.80238
4.01471
2.9353
27.1863
12.3469
6.42899
3.80038
2.77963
67.5736
29.801
15.4584
9.1676
6.744
63.0918
28.0248
14.6468
8.69385
6.3688
88.0859
36.4486
18.7552
11.0958
8.1707
75.8268
34.4302
18.4307
11.0542
8.18742
102.022
51.4936
29.2393
18.3123
13.7918
50.2243
25.1419
14.0072
8.5628
6.43732
58.7411
30.9997
17.9606
11.4035
8.6035
-508.882
-609.122
-1400.27
-1727.39
-2140.39
-2758.99
-2605.41
-3654
-2616.98
-3664.84
-2359.43
-3092.06
-2220.05
-2663.71
-2641.95
-3561.81
-2716.82
-3701.75
-477.942
-104.385
-22.6659
-4.79828
-1.16203
-209.565
-74.3113
-8.33837
-2.33215
-0.920324
-1543.14
-339.529
-74.1557
-15.8191
-3.85888
-544.901
-116.016
-23.5072
-4.58203
-0.981352
-2721.38
-602.275
-132.307
-28.4791
-7.00804
-949.686
-224.532
-49.3924
-10.7172
-2.57941
-3912.38
-870.73
-193.148
-42.0518
-10.4766
-1330.74
-342.828
-80.5947
-18.3933
-4.64384
-5470.34
-1252.25
-283.708
-62.8996
-15.9426
-1768.53
-514.857
-128.358
-30.2716
-7.85088
-7411.31
-1851.67
-442.789
-102.164
-26.6972
-2045.52
-632.974
-163.149
-39.2016
-10.3404
-6736.87
-1631.11
-380.666
-86.1318
-22.1617
-1984.21
-618.929
-159.218
-38.16
-9.9796
-7735.5
-1959.09
-474.333
-110.653
-29.1682
-2085.19
-627.892
-159.413
-37.8822
-9.96414
-7975.7
-2014.35
-489.889
-114.922
-30.4509
-2081.9
-628.999
-159.612
-35.2125
-9.82068
-261.439
-6430.85
-6323.78
-3593.39
3633.93
5001.93
10087.8
13259.9
5700.35
11544.6
2233.32
7001.34
5666.23
9399
10301.4
14204
12431.3
14135.1
7099.43
8029.9
-18829.7
-14113.9
-4545.66
-3574.01
-2793.31
-4499.93
-3130.84
-12383.1
-12265.6
-10496.1
-11169.7
-9247.95
-6412.03
-8760.51
-5424.78
-4169.24
-5176.94
-3317.64
-20416.9
-10242.4
-3109.95
-5182.67
-7763.19
-5304.81
-6320.51
-4786.49
-2350.7
-3986.38
-3458.54
-4027.42
-18928
-11836
-11907.3
-7608.14
-8119.83
-8122.46
-4137.49
-5293.55
-5408.14
-12886
-12445.2
-10858.5
-11029.5
-10329.3
-10146.4
-7636.75
-6454.91
-5484.41
-2573.56
-4031.04
-3355.54
-2525.72
-1578.15
-537.772
-3199.15
-2685.24
-2026.56
-1262.32
-428.96
-2483.38
-2067.79
-1548.04
-958.273
-324.666
-4028.63
-3379.85
-2546.44
-1582.31
-536.841
-2785.25
-2322.43
-1743.23
-1082.52
-367.515
-8302.52
-7150.1
-5836.42
-5599.29
-6250.28
-6764.12
-5416.57
-3907.95
-3254.97
-2787.28
-7303.2
-5023.42
-3856.2
-2948.09
-1335.27
-6062.13
-4579.03
-3210.04
-2554.87
-1824.6
-4699.91
-3295.84
-2206.88
-1836.8
-1111.2
-5118.83
-3864.07
-2761.14
-1729.18
-616.114
-6289.77
-4368.48
-3127.64
-2086.3
-845.338
-3807.67
-2507.25
-1703.93
-1083.37
-415.51
-3452.63
-2684.68
-1929.2
-1186.7
-408.575
-4180.72
-3162.93
-2228.79
-1357.13
-466.939
-2778.19
-2178.9
-1566.88
-956.66
-325.715
-14020.3
-11734.2
-9935.63
-9469.28
-9122.29
-7917.95
-5954.89
-4601.57
-3355.86
-1453.02
-2595.46
-2039.01
-1484.45
-926.214
-322.135
-4408.59
-3537.54
-2628.57
-1667.59
-584.537
-6434.96
-5075.78
-3825.52
-2533.88
-931.997
-4549.96
-3682.15
-2762.08
-1763.87
-615.048
-5516.78
-4525.68
-3397.29
-2141.18
-732.42
-4184.17
-3434.72
-2562.75
-1599.29
-547.076
-2031.54
-1643.2
-1204.27
-738.533
-250.096
-3512.76
-2900.03
-2159.99
-1336.19
-453.381
-2949.19
-2359.38
-1725.52
-1066
-364.713
-3494.38
-2846.97
-2112.4
-1315.38
-450.632
-12856.3
-11667.1
-10175.8
-10048.9
-9173.82
-8839.6
-6684.17
-5498.68
-4422.54
-2042.96
-9645.46
-7933.19
-6416.99
-5129.99
-2341.28
-6258.19
-4777.54
-3701.29
-2578.57
-834.764
-6874.75
-5476.21
-4150.92
-2721.52
-928.966
-6653.1
-5044.14
-3891.72
-2704.77
-851.883
-3582.56
-2916.52
-2174.79
-1366.84
-470.299
-4671.67
-3867.6
-2895.07
-1801.56
-613.402
-4676.44
-3806.99
-2846.56
-1797.18
-620.557
-6150.75
-13483.1
-10829.7
-35147.3
-10234.2
-45957.4
-6841.67
-18066.6
-8940.26
-7518.03
-17505
-13673.4
-9127.13
-10997.3
-19186
-15967
-3856.18
-2624.61
-8861.25
-6214.53
-6770.98
-3533.91
-24430.7
-17190.4
-14839.2
-10341.6
-15370.9
-10007.5
1653.09
-1466.03
-42245
-51437.3
-21318.8
-29217.7
-53939.4
-65858.5
-23933.1
-30213.4
-31542.4
-40770.8
-23974.6
-34069.2
-15153.6
-18307.8
-2067.66
-394.289
-4504.54
-1449.13
-3914.9
-1839.95
-12620.7
-4502.86
-1976.43
-930.431
-5551.84
-1534.29
-14645.6
-4210.96
-19307.3
-6032.54
-18154.5
-11109.7
-18721.3
-12956.6
-17717.9
-12620.8
-17639.5
-14555
-14677.4
-10530.6
-13465.2
-9042.7
-19476.7
-14345.1
-20835.1
-15263.7
-18766.4
-15984.1
-20303.4
-16922
-16176
-11855.9
-17920.7
-12720.6
-16953.8
-7087.67
-9325.59
-11210.1
-16516.3
-7727.67
-8429.24
-11432.5
-17628.1
-6749.79
-10255.8
-11225.9
-18459.6
-6853.68
-11087
-11453.7
-638.926
-475.759
106.702
-639.858
-2365.38
-2911.29
-1655.28
-4288.58
-3506.62
-4673.91
-3633.64
-7879.64
-16512
-15884.9
-13097
-15332.3
-9201.28
-10717.9
-8541.12
-7268.23
-15165
-12320.5
-12354.1
-11655.1
-11027.2
-10345.3
-15730.5
-675.052
-859.013
-426.998
-642.682
-2908.82
-2604.04
-3281.58
-3258.48
-2773.99
-1431.84
-5447.2
-5208.14
-11687
-12589.1
-10916.1
-10889.4
-9764.18
-8137.57
-13111.8
-11301.7
-11581.5
-10980.9
-15038.3
-15571.9
-14112.7
-12773.6
-11515.4
-9574.89
-10300
-8151.7
-13731.8
-10256.8
-13037.1
-7870.29
-10684.7
-10863.6
-16067.3
-19077.6
-16039.7
-21111.4
-8674.25
-9050.91
-11123.6
-5683.99
-10527.1
-16830.9
-10955.6
-17970.3
-16242.9
-25740.4
-16677.2
-26063.9
-8727.29
-14605.3
-9184.32
-15921.3
-10449.9
-8090.09
-13721.2
-6304.35
-10605.1
-4423.37
-12674.5
-3389.37
-11169.5
-11658.3
-14527.7
-7552.24
-10196
-13530.5
-13419.2
-9635.95
-1049.74
-798.108
-585.821
-723.561
-1978.28
-925.395
-2735.39
-2724.78
-365.494
-212.954
-4866.01
-4737.63
-13605.3
-11741.2
-10683.8
-8291.36
-6848.58
-4678.4
-9060.09
-6919.93
-9545.81
-6423.57
-19851.5
-16970.6
-10352.7
-8435.8
-7969.79
-5920.79
-6881.42
-4808.6
-7684.74
-3959.07
-5862.02
-11145.9
-5409.01
-10850.8
-7270.05
-11874.5
-8532
-13253.3
-1653.34
-1574.19
-1486.26
-1506.09
-4627.66
-4866.73
-4344.04
-4525.86
-2030.38
-2372.88
-9152.72
-10072.3
-5588.58
-6305.99
-10451.7
-9827.24
-14360.6
-16159
515.416
5220.33
-7794.66
-5825.91
-6234.93
-3751.56
-1413.27
-1348.58
-1537.72
-1319.18
-3178.37
-2182.79
-2529.77
-1593.66
-8349.73
-4217.85
-7804.18
-3837.11
-8561.83
-3407.26
-9617.33
-3518.06
-6748.14
-9719.61
-7586.7
-10748.9
-11314.2
-12834
-12566.2
-13959.9
-6085.24
-8872.83
-5332.04
-7896.98
-8134.75
-11473.4
-9148.8
-12010
-13310.8
-14745
-14568.7
-15446.9
-5924.56
-9393.19
-6031.58
-9714.71
-1193.21
-2179.78
-7817.97
-4882.6
-1370.91
-2317.19
-7057.78
-4341.67
-1205.81
-1907.77
-8272.13
-5254.71
-1385.51
-1789.13
-8330.7
-5415.29
-1300.56
-1487.55
-1369.02
-1574.77
-3189.16
-3570.39
-2454.82
-2860.77
-7719.29
-8400.62
-4601.26
-5108.57
-4277.01
-9423.77
-2973.9
-804.083
-1861.38
-4185.84
-1255.74
-2046.17
1545.48
-1322.2
-13642.1
-10118.9
-7997.4
-7954.94
-4728.08
-1799.41
-1993.14
-1853.45
-2308.47
-4246.46
-4591.47
-3410.96
-4323.4
-8951.63
-10146.5
-5176.54
-6655.93
-6184.06
-7504.41
-2255.9
-4275.31
-3619.81
-4937.31
-1309.67
-2185.58
-2421.91
-3737.12
-11287.9
-8826.4
-6345.76
-4373.77
-4917.13
-3382.49
-4876.95
-3422.53
-3086.44
-3843.15
-7613.51
-8124.8
-11430.2
-7814.76
-11227.5
-11237.3
-13984.4
-11414.2
-9621.99
-6411.24
-6117.01
-6824.51
-12397.6
-5815.51
-12651.8
-4731.85
-15364.2
-10519.5
-15950.3
-9523.88
-10226.2
-4454.56
-10301.9
-3296.78
-7957.86
-6601.43
-6610.6
-10303.6
-6126.64
-7141.31
-5529.98
-10056.8
-7667.08
-5699.63
-6911.93
-10809.4
-8240.59
-4838.82
-7145.13
-9943.45
-1688.46
-1753.63
-1659.15
-1311.73
-4994.21
-5625.35
-2691.62
-1513.23
-10994.2
-9095.18
-4049.24
-508.397
-9370.59
-8112.43
-6089.22
-5041.27
-5209.13
-4101.7
-2091.86
-937.683
-2656.92
616.123
-8439.33
-6987.74
-4189.33
-2879.48
-2886.59
-1357.25
-2428.29
-643.415
-4407.71
433.248
-324.41
-138.163
-46.0903
39.2232
-345.316
-176.694
-52.4551
19.5069
-837.13
-360.139
-100.389
130.968
-790.062
-413.022
-159.42
-6.35623
-1266.07
-546.857
-186.699
185.288
-1237.77
-624.043
-352.561
-131.467
-738.741
-392.234
-252.551
-92.7817
-513.526
-247.601
-107.509
26.2872
-1584.8
-631.281
-336.978
34.246
-1849.48
-598.573
-353.044
305.492
-1602.45
-633.512
-326.084
67.261
-1581.86
-511.951
-328.456
307.689
-1392.42
-557.247
-256.31
125.567
-1986.48
-643.989
-368.448
341.45
-1255.41
-481.352
-176.752
203.623
-2010.76
-650.909
-351.316
398.204
-305.6
-117.326
-43.9738
57.5061
-307.074
-102.602
-54.9676
64.5406
-793.954
-309.207
-110.69
154.057
-781.038
-271.568
-139.32
181.647
-1412.01
-532.616
-227.117
275.696
-1366.07
-478.546
-243.957
306.022
-1417.31
-575.584
-283.267
123.153
-1039.11
-385.497
-200.477
307.253
-1604.88
-534.934
-344.719
359.076
-223.213
-74.6623
-29.8868
39.9559
-128.27
-52.8053
-18.832
4.279
-620.531
-208.482
-96.983
105.033
-362.864
-151.236
-64.016
6.68348
-880.9
-305.988
-149.749
168.682
-527.51
-239.089
-101.96
11.0838
-1059.38
-390.891
-200.772
216.024
-711.979
-327.098
-145.792
8.01914
-1277.48
-441.01
-285.995
189.357
-968.86
-383.253
-205.256
-27.7021
-2195.59
-716.944
-461.965
135.083
-1174.71
-412.243
-237.783
-42.1883
-1896.74
-622.458
-422.295
134.856
-1224.04
-430.296
-245.943
-50.8405
-2198.24
-684.434
-417.785
228.213
-1014.69
-336.022
-186.583
7.90217
-2017.82
-577.908
-330.053
317.559
-827.819
-230.832
-112.244
65.1693
-7.19436
-11.7607
-8.74433
-6.06054
-4.71578
-28.2787
-21.8208
-14.4558
-9.68755
-7.47347
-15.483
-24.7267
-18.3228
-12.6279
-9.75128
-89.7057
-62.4789
-40.0635
-26.4518
-20.2791
-38.7065
-39.7791
-27.4657
-18.5078
-14.1752
-138.099
-91.637
-57.2564
-37.3445
-28.4915
-45.599
-30.2232
-18.7775
-12.1953
-9.2939
-20.3997
-15.0522
-9.75304
-6.42388
-4.94203
-36.2176
-34.2254
-22.7667
-15.1255
-11.6177
8.86845
-2.01758
-2.40119
-1.80845
-1.43936
-93.9568
-64.0398
-39.9847
-26.0522
-19.8609
-6.81534
-11.5395
-8.06766
-5.45048
-4.22859
14.6715
-1.40839
-2.73629
-2.1727
-1.75161
4.88183
-3.09256
-2.85337
-2.04041
-1.60131
17.219
-0.550499
-2.30548
-1.92286
-1.63691
16.04
2.12414
0.0970603
-0.194179
-0.253399
0.0490628
-7.78913
-6.36959
-4.5448
-3.56914
-3.12894
-7.94952
-6.14549
-4.33793
-3.39814
-3.78783
-18.9982
-14.8314
-10.437
-8.13726
-9.6515
-19.3324
-14.4068
-10.0516
-7.84881
-3.19585
-24.4489
-18.6062
-12.9997
-10.1029
-26.0196
-27.9968
-19.1685
-13.0841
-10.0989
-68.4153
-46.3349
-28.8042
-18.8266
-14.3259
-34.342
-23.6724
-14.9269
-9.93822
-7.56564
-49.3466
-28.9032
-17.3351
-11.1478
-8.46569
-182.016
-300.352
-611.573
-963.926
-1195.35
-1811.46
-1766.08
-2761.76
-2011.37
-3026.57
-2247.09
-3006.62
-1936.63
-2454.71
-2605.63
-3527.96
-2710.9
-3694.39
-477.931
-106.588
-23.3025
-4.94256
-1.19739
-145.978
-67.5633
-6.57988
-2.0989
-0.912929
-1561.35
-348.864
-76.5607
-16.3499
-3.98728
-383.788
-88.7808
-18.9201
-3.80641
-0.829891
-2754.74
-617.016
-136.118
-29.3368
-7.21891
-754.097
-191.537
-43.8715
-9.81225
-2.40967
-3938.13
-884.793
-197.068
-42.9786
-10.7137
-1153.93
-312.491
-75.4606
-17.5515
-4.48858
-5480.51
-1263.14
-287.148
-63.7753
-16.1798
-1651.72
-493.676
-124.718
-29.6869
-7.74953
-7401.36
-1853.01
-443.825
-102.532
-26.82
-2024.58
-627.881
-162.105
-39.0152
-10.3056
-6734.69
-1637.07
-383.02
-86.8075
-22.3608
-1928.82
-607.174
-157.064
-37.8082
-9.9201
-7725.94
-1958.7
-474.666
-110.817
-29.2306
-2078.84
-626.24
-159.041
-37.8108
-9.94926
-7972.38
-2014.12
-489.971
-114.971
-30.4706
-2081.11
-628.774
-159.554
-35.1997
-9.81784
-173.097
-6307.93
-5874.37
-2886.92
-1480.11
-878.406
-3173.89
-2499.3
-5396.78
-5872.08
-3068.7
-2886.78
-425.941
-644.839
-1080.09
-1663.7
-2339.52
-2999.24
-293.074
-607.959
-1229.77
-2076.7
-3040.05
-3993.25
-332.392
-144.662
-584.092
-363.009
-1077.3
-805.139
-1712.71
-1477.97
-2333.93
-2313.74
-2846.84
-3123.02
-3672.81
-4374.31
-5220.47
-7247.3
-7555.2
-9075.58
-4824.16
-5374.16
-5467.03
-5193.01
-4256.6
-3782.73
-385.016
-326.41
-248.105
-154.993
-52.7009
-582.58
-493.607
-374.979
-234.156
-79.6013
-975.226
-825.74
-626.927
-391.338
-133.014
-1500.9
-1269.7
-963.3
-601.069
-204.272
-2107.82
-1780.81
-1349.82
-841.934
-286.115
-2696.3
-2273.26
-1720.98
-1073.25
-364.813
-264.813
-224.425
-170.529
-106.502
-36.206
-549.041
-464.997
-353.115
-220.447
-74.931
-1109.98
-939.517
-713.127
-445.091
-151.278
-1872.83
-1583.85
-1201.47
-749.694
-254.8
-2737.95
-2312.55
-1752.86
-1093.58
-371.721
-3588.92
-3025.63
-2291.29
-1429.79
-486.258
-300.538
-254.836
-193.731
-121.042
-41.1634
-130.803
-110.914
-84.3183
-52.6805
-17.9156
-527.846
-447.343
-339.904
-212.284
-72.1741
-328.086
-278.081
-211.314
-131.98
-44.8727
-973.009
-824.103
-625.819
-390.689
-132.801
-727.3
-616.094
-467.915
-292.129
-99.2996
-1545.51
-1307.72
-992.241
-619.101
-210.387
-1333.75
-1128.56
-856.245
-534.189
-181.515
-2103.1
-1776.88
-1346.63
-839.685
-285.28
-2084.49
-1760.59
-1333.65
-831.175
-282.297
-2558.53
-2156.03
-1631.11
-1016.49
-345.351
-2805.14
-2361.65
-1784.29
-1110.41
-376.933
-3289.25
-2763.82
-2089.31
-1303.83
-443.682
-3890.03
-3249.77
-2453.72
-1536.5
-524.716
-4579.96
-3786.52
-2860.95
-1811.8
-624.877
-6203.27
-5037.83
-3838.61
-2508.85
-885.524
-6155.71
-4887.51
-3825.45
-2695.62
-1052.89
-7104.4
-5554.15
-4462.28
-3344.96
-1378.85
-4321.73
-3633.73
-2749.58
-1717.7
-585.006
-4790.73
-4013
-3035.65
-1902.24
-649.962
-4835.44
-4028.23
-3049.87
-1924.49
-662.068
-4528.84
-3737.91
-2841.09
-1821.83
-636.24
-3612.13
-2938.88
-2261.55
-1506.57
-550.182
-3105.12
-2485.28
-1946.41
-1360.44
-520.528
-450.61
-719.557
-1206.2
-1839.46
-2562.19
-3249.67
-325.401
-705.722
-1393.12
-2300.04
-3305.53
-4264
-358.445
-165.023
-663.435
-425.922
-1213.43
-916.396
-1907.97
-1649.7
-2594.64
-2606.61
-3150
-3628.19
-3936.01
-4640.72
-5483.59
-7425.96
-7675.94
-9121.51
-5051.46
-5511.52
-5493.66
-5121.77
-4164.63
-3742.64
-407.421
-345.516
-262.717
-164.167
-55.8292
-650.485
-551.561
-419.341
-262.029
-89.1098
-1089.98
-923.843
-702.158
-438.678
-149.177
-1661.2
-1407.12
-1069
-667.751
-227.07
-2311.61
-1956.25
-1485.37
-927.767
-315.524
-2926.9
-2473.28
-1876.73
-1172.53
-398.955
-294.174
-249.456
-189.666
-118.515
-40.3023
-637.867
-540.782
-411.106
-256.875
-87.3555
-1258.6
-1066.54
-810.516
-506.364
-172.196
-2076.51
-1758.45
-1335.74
-834.392
-283.757
-2980.95
-2521.79
-1914.55
-1195.98
-406.812
-3838.3
-3242.04
-2459.89
-1537.29
-523.239
-324.175
-274.974
-209.118
-130.695
-44.4534
-149.269
-126.635
-96.3212
-60.2064
-20.4802
-599.907
-508.794
-386.902
-241.793
-82.2371
-385.191
-326.743
-248.502
-155.315
-52.827
-1096.83
-929.9
-706.906
-441.692
-150.209
-828.469
-702.503
-534.113
-333.751
-113.504
-1723.61
-1460.41
-1109.68
-693.192
-235.719
-1490.51
-1263.09
-959.837
-599.599
-203.891
-2341.69
-1982.29
-1505.33
-940.174
-319.712
-2352.86
-1991.97
-1512.72
-944.727
-321.238
-2837.7
-2398.21
-1819.72
-1136.72
-386.7
-3269.62
-2763.87
-2097.07
-1309.58
-445.404
-3534.36
-2979.25
-2259.38
-1413.47
-481.633
-4143.14
-3477.23
-2637.35
-1657.15
-566.918
-4838.95
-4027.59
-3062.45
-1948.28
-673.375
-6400.1
-5238.29
-4020.92
-2642.17
-934.37
-6302.26
-5043.4
-3974.97
-2814.18
-1101.35
-7165.52
-5621.95
-4530.69
-3403.23
-1403.09
-4533.75
-3820.47
-2897.32
-1813.13
-618.076
-4923.25
-4134.15
-3135.12
-1968.49
-673.315
-4869.15
-4066.75
-3087.65
-1953.05
-672.799
-4475.01
-3702.64
-2823.5
-1816.75
-635.751
-3537.86
-2883.87
-2227.42
-1491.18
-546.703
-3072.95
-2461.53
-1932.01
-1354.6
-519.444
-18747
-14170
-4940.85
-3980.66
-3341.52
-5183.4
-3635.07
-13110.7
-14239.2
-11886.1
-13663.5
-7399.36
-11514.3
-5412.94
-5677.98
-4010.12
-21120.8
-11086.6
-3617.59
-5793.64
-8389.46
-5682.01
-6975.17
-5327.22
-2604.67
-4683.83
-4072.86
-4526.54
-18806
-12055.9
-12422.3
-7992.62
-8478.65
-8567.68
-4791.15
-5973.1
-5845.8
-12866.7
-12489.2
-10957.8
-11207.2
-10511.1
-10241.1
-7745.35
-6572.06
-5598.13
-2624.1
-4408.85
-3697.12
-2803.02
-1761.12
-601.913
-3577.09
-3016.67
-2287.57
-1430.26
-487.023
-2998.2
-2524.7
-1912.48
-1195.4
-407.248
-4663.87
-3936.97
-2985.3
-1864.74
-634.518
-3259.08
-2743.05
-2078.56
-1300.5
-443.364
-9817.67
-9000.14
-7792.29
-7459.87
-7834.42
-10169.9
-9482.35
-7951.94
-6832.53
-5313.77
-9253.81
-7059.97
-5764.94
-4472.73
-2011.26
-10093.9
-8835.99
-7169.14
-5927.39
-3766.08
-6315.02
-5105.76
-3882.4
-2543.15
-928.001
-9375.18
-7253.52
-5621.07
-3925.68
-1605.43
-4713.71
-3874.08
-2931.63
-1874.58
-658.985
-4926.65
-4037.21
-3056.02
-1960.94
-692.71
-3514.91
-2903.63
-2194.96
-1393.72
-485.191
-15361.6
-13352.3
-11652.9
-11112
-10440.7
-8977.93
-7078.75
-5659.43
-4180.37
-1800.9
-3145.65
-2584.79
-1961.89
-1261.84
-445.926
-5051.41
-4167.45
-3177.23
-2052.46
-725.876
-7142.69
-5801.29
-4486.18
-3021.07
-1119.61
-4951.52
-4080.23
-3113.36
-2013.16
-706.84
-6157.75
-5118.17
-3888.94
-2472.02
-849.534
-4723.73
-3942.75
-2990.02
-1889.13
-650.556
-2310.53
-1927.3
-1457.12
-916.382
-314.833
-4183.36
-3509.84
-2657.47
-1665.75
-569.394
-3583.54
-2971.11
-2249.25
-1426.82
-495.281
-4003.34
-3334.8
-2528.49
-1600.72
-553.309
-12949.7
-11928.5
-10563.8
-10569.1
-9743.84
-9145.07
-7012.07
-5825.49
-4706.49
-2174.24
-10398.6
-8776.8
-7272.53
-5867.68
-2690.38
-6695.15
-5221.39
-4107.65
-2883.05
-936.875
-7284.4
-5897.35
-4538
-3007.41
-1033.53
-7185.1
-5588.21
-4399.29
-3090.22
-988.199
-4224.31
-3511.14
-2668.65
-1699.43
-588.645
-5326.02
-4463.52
-3381.82
-2124.22
-726.953
-5131.91
-4251.35
-3232.52
-2066.5
-718.457
-479.232
-1303.67
-1977.12
-2594.49
-3218.67
-3787.41
-2319.24
-5993.15
-5649.41
-2334.77
-6843.11
-6134.05
-7372.27
-9843.52
-1308.99
-175.321
-2479.76
1176.94
-9695.14
-8027.95
1860.19
-1698.02
-4757.84
-4588.13
-1803.5
-5233.5
-2914.36
-5894.52
-6069.8
-582.829
868.35
-1077.85
3252.44
-6865.08
-4379.17
3641.39
-1059.31
-3268.68
-3382.19
-1251.49
-3303.02
-526.938
-4434.03
-4469.08
-173.842
1059.02
55.8692
3430.98
-4266.53
-470.361
4163.84
-717.978
-2360.53
-2756.6
-972.79
-1818.7
763.522
-3773.99
-4244.98
22.1052
774.016
382.285
2898.5
-3275.69
1471.68
3993.03
-625.332
-2229.6
-2650.43
-898.988
-1709.36
489.399
-4020.27
-5476.32
97.2851
600.02
490.52
2547.91
-3123.49
1503.06
2803.95
-605.41
-2202.49
-2592.56
-875.27
-2092.1
-238.825
-3955.13
-5386.98
143.845
942.772
404.373
2660.94
-3595.57
664.444
2120.68
-1317.75
-3142.77
-4143.43
-1684.39
-6441.86
-11496
-6914.47
-12220.6
-1623.62
-1449.32
-5221.31
-4401.03
-2434.97
-9555.87
-4754.09
-1294
-3069.68
-3714.75
-1465.18
-6112.05
-9842.72
-6232.95
-8985.83
-1698.99
-1343.24
-5114.32
-4213.55
-1793.34
-8855.42
-4650.18
-1205.08
-2878.95
-3120.96
-1196.08
-5559.56
-8624.83
-5287.86
-8014.08
-1473.17
-1732.55
-4531.76
-5030.77
-2062.58
-7861.93
-5238.51
-1219.13
-3153.82
-2905.88
-1068.65
-5927.26
-8494.62
-5244.61
-7894.19
-1552.17
-2163.23
-4713.81
-6243.69
-2602.2
-8659.67
-6398.08
-1235.43
-3145.63
-2869.21
-1036.65
-5864.91
-9176.34
-5270.37
-8688.41
-1692.34
-2784.58
-5097.91
-8011.15
-3693.84
-10306.2
-8394.69
-1254.18
-3149.95
-2842.41
-1027.3
-5967.38
-9431.66
-5165.83
-8598.83
-1906.88
-3475.86
-5637.16
-9188.36
-4916.22
-11395.7
-9439.2
7115.56
8612.63
17739.4
27645.3
26784.2
52238.5
18542.3
55767.3
19134.5
44726.1
23528.4
38642.3
18029.8
23766.5
8345.84
8440
12550.5
14161.5
17251.5
15624.1
12022.7
18102
17939.1
17972.3
4665.38
3381.89
6297.55
4496.27
11478.1
7394.31
21217.9
14748.2
17692.4
17912.9
17921.1
18031.7
4068.94
3661.32
41295.2
51081.8
21953.5
29317.9
53321.3
65619
24706.1
30399.8
30885.1
40396.3
24586.7
34089.1
14108.3
17891
2687.45
856.491
3445.24
1198.01
6391.68
2632.17
11125
4079.51
7269.54
2413.83
7389.21
2089.15
14579.2
4240.66
19129.5
5989.68
24742.1
14108.6
20950.8
14470.4
25460.3
16393
20213.6
16380.8
16166.7
11645.8
17696.6
11159.3
20369.5
15051
21056.5
15466.6
19819.6
16801.6
20594.6
17159.1
16720.9
12389.1
18043.4
12875.3
17785.3
7272.05
10101
11488.5
19097.1
8359.79
9963.6
11954.5
17867.4
6804.89
10621.6
11368.4
18488.3
6858.79
11194.2
11496
2593.54
2895.45
916.355
1776.69
7960.45
9316.69
3260.29
6138.04
12963.3
15384.5
5782.1
10326.1
17353.3
9182.51
17420.6
20745.5
10354.8
6771.03
10827.7
12186.2
21066.6
13206.8
9822.35
12805.7
14103.1
13553.3
16826.9
2837.99
2914.62
1726.32
1873.48
9113.5
8734.12
5836.43
5930.77
13680.8
12619
8594.32
8666.6
9648
10809.7
15253.5
16183.1
16796.5
15822.9
19828.2
18260
13509.9
13485.7
12926.3
14166.2
16640.8
15400.9
15588
13221.9
13868
11265.7
15261
12240.8
14136.2
7787.3
11078.3
10878.5
15607.9
18295.3
15938.6
20859.9
9312.5
9274.54
12773.1
6024.87
10666.6
16914.5
10996.9
18005.2
16157
25527.2
16667.7
26057.6
8980.99
14788.4
9254.58
15977
11035.2
8322.16
14037.5
6430.59
12000.2
4734.25
13296.7
3474.68
11414.9
11815.9
14674.5
7620.57
10263.9
13581
13455.8
9663.8
2716.25
2542.28
2233.13
1783.36
1755.74
1553.13
8099.87
7063.01
6240.27
5257.37
4450
3802.2
10661.8
9155.28
8447.47
7556.99
6172.92
5646.32
9787.81
8071.32
7733.13
15173.8
11492.8
9449.83
13536.2
10086.4
7933.18
14990.9
11918.8
10156
11429.2
7884.95
5965.84
18299.9
15081
13529.3
13331.5
10713.2
8997.34
11658.4
8898.33
7103.11
10314.6
7827.56
6309.96
10976.5
6668.23
4231.64
11332.8
18514.3
9586.19
13765.4
9144.52
18880.8
7638.93
15459.8
221.244
1606.46
-179.785
933.301
3531.97
6690.26
2197.56
4022.59
1861.36
3964.85
10935.2
16354.6
8681.72
6395.11
11504.6
10054.3
15362.4
16432
-526.926
-5388.71
8328
5867.8
6440.33
3716.33
1454.03
949.196
1150.07
706.732
3924.42
1286.61
1937.3
234.788
9960.58
3051.12
7431.12
2322.37
8414.66
2543.91
9527.72
3164.26
12193.6
12130.7
9512.31
12067
18309.7
16570.7
15015.4
15801.8
7150.29
9470.78
8338.19
8726.73
8917.93
12033.9
9381.75
12171.3
14346.8
15539.6
14874.2
15676.7
6336.01
9637.17
6150.46
9782.48
1005.72
1665.86
7772.75
4582.15
992.564
1448.37
6805.71
3894.63
983.746
1498.76
8226.46
5039.91
1290.37
1619.37
8330.59
5320.06
-139.386
-260.594
470.835
346.98
-759.725
-1273.97
846.685
621.847
1339.64
321.57
2748.45
2483.65
-7666.52
-3907.01
-4427.82
-2798.83
247.522
-7066.62
-10385.7
-4892.76
-4817.14
228.655
9272.11
6883.99
5805.86
6104.45
3801.04
-479.294
-371.658
196.586
323.547
-1396.17
-1601.57
669.99
929.154
-1126.24
-1790.19
1668.31
2086.37
-3151.65
-1717.43
-8102.16
-5826.88
-4261.9
-3098.91
-3752.12
-3146.72
590.01
1477.22
4881.54
3360.59
-477.668
-2276.52
-559.725
-1926.99
636.122
-498.096
1200.71
1686.17
4110.9
4562.69
9796.8
6239.69
8594.48
8428.65
12960.8
10171.6
7668.23
4781.49
2679.9
3389.39
11597.5
4912.53
12430.9
4518.45
14892.6
9782.65
15836.9
9370.51
9217.03
3521.22
10008.1
3054.01
6033.17
5045.45
4876.48
8468.5
3103.87
4101.15
3320.23
7166.04
6624.07
4764.22
5856.55
9698.49
7916.46
4552.94
6804.9
9649.32
-551.826
-744.725
-882.872
191.815
-155.246
-210.891
-2108.54
-2646.42
-2890.71
386.622
-617.572
-773.569
-2547.97
-3783.02
-4319.04
1144.41
-1099.24
-1572.75
-1007.16
-1568.22
-1426.03
-4635.04
-5034.62
-4701.63
-3617.6
-4335.03
-4226.05
-3798.43
-4935.26
-5158.84
741.541
-1605.87
-1563.85
3932.17
1879.63
1046.47
-1521.23
-2814.08
-3230.65
-1716.88
-3164.1
-3536.65
-975.811
-2773.8
-3160.2
2082.62
-1087.58
-1325.41
76.8801
-6.26438
-37.3733
-81.2796
-104.081
-102.941
-120.086
-124.352
219.762
-9.11015
-112.022
-235.054
-253.027
-253.482
-283.068
-307.737
448.502
54.0951
-122.138
-360.841
-35.8201
-211.26
-258.333
-354.74
-44.0421