/*--------------------------------*- C++ -*----------------------------------*\
| =========                 |                                                 |
| \\      /  F ield         | OpenFOAM: The Open Source CFD Toolbox           |
|  \\    /   O peration     | Version:  2412                                  |
|   \\  /    A nd           | Website:  www.openfoam.com                      |
|    \\/     M anipulation  |                                                 |
\*---------------------------------------------------------------------------*/
FoamFile
{
    version     2.0;
    format      ascii;
    arch        "LSB;label=32;scalar=64";
    class       volScalarField;
    location    "2.6";
    object      T;
}
// * * * * * * * * * * * * * * * * * * * * * * * * * * * * * * * * * * * * * //

dimensions      [0 0 0 1 0 0 0];

internalField   nonuniform List<scalar> 
5712
(
541.368
557.321
528.921
548.047
512.263
534.368
486.412
510.473
489.789
514.096
513.721
537.648
524.701
546.548
535.009
553.871
503.718
488.198
520.376
496.304
478.28
461.372
493.93
468.37
548.878
555.332
561.379
564.597
539.465
547.933
554.234
559.241
538.33
526.068
513.88
507.149
539.592
549.626
539.593
544.972
503.999
510.815
516.665
522.276
476.074
482.033
550.707
555.47
522.743
531.772
560.69
566.116
559.955
567.575
567.08
570.709
553.301
565.099
562.382
568.995
544.182
560.868
552.688
565.214
558.885
567.344
562.633
568.678
475.269
461.294
482.246
464.168
442.46
429.896
449.868
433.551
508.695
491.513
502.73
488.628
487.071
466.134
489.893
467.187
455.093
435.984
458.092
437.295
513.227
493.485
515.846
494.474
533.244
558.899
518.427
548.737
527.863
555.331
514.889
545.647
537.05
560.681
520.52
550.53
539.088
561.424
521.436
551.644
556.032
547
564.867
558.088
548.741
539.671
561.818
554.169
538.07
528.322
556.511
547.696
461.232
423.165
494.705
520.641
548.749
421.922
459.378
490.896
515.581
540.967
421.198
456.298
485.217
510.138
539.392
528.886
512.192
532.573
516.694
523.763
507.037
530.557
514.266
515.221
498.817
526.948
510.415
415.22
402.784
452.557
440.598
482.09
467.813
504.224
488.659
523.361
506.629
414.016
400.201
448.159
435.313
476.024
462.189
499.468
484.122
520.47
503.048
446.687
436.246
445.483
434.95
412.852
393.035
411.448
389.534
474.509
466.357
475.229
466.336
444.755
433.685
445.299
434.344
411.244
388.023
412.261
389.478
473.78
465.314
474.323
465.926
500.663
492.958
522.848
515.902
500.457
491.755
522.26
513.394
500.081
492.113
522.791
516.241
500.161
492.288
522.642
515.635
492.889
476.921
468.203
495.861
479.228
470.376
488.264
471.969
463.261
493.139
475.827
466.726
479.286
462.518
453.452
488.647
470.343
460.784
386.722
375.187
369.322
424.18
409.086
400.936
450.585
433.635
424.104
469.418
452.211
442.99
483.481
463.947
453.651
382.874
370.674
364.031
420.326
406.669
399.564
445.697
430.166
421.924
464.353
446.488
436.937
477.712
458.07
447.981
418.184
405.07
421.988
409.346
446.786
431.145
455.01
437.237
390.681
370.726
391.915
372.723
391.472
371.146
393.256
373.757
391.369
388.134
390.735
384.284
370.065
374.328
412.102
414.996
441.491
445.28
392.971
395.372
393.309
395.11
376.738
378.423
349.3
330.665
354.914
334.092
350.745
330.362
356.335
334.295
351.756
329.787
358.624
334.948
361.75
337.252
363.937
339.143
383.901
372.272
391.112
377.191
410.444
397.576
418.43
402.471
370.629
357.164
363.159
352.48
395.199
380.13
397.681
381.761
423.19
405.401
425.974
406.914
374.471
360.016
376.65
361.668
353.479
332.078
341.516
325.947
346.799
327.731
337.593
323.064
357.332
335.009
344.08
327.916
359.613
337.06
345.721
329.224
331.778
320.514
323.752
316.213
332.836
322.061
323.412
316.295
334.195
325.534
322.842
317.046
364.098
388.25
346.997
335.858
321.794
386.319
360.647
340.972
329.139
317.376
386.565
362.584
344.914
332.234
319.649
311.133
301.965
308.095
299.084
313.596
304.409
309.122
300.325
317.9
309.278
310.853
302.424
379.643
367.337
353.805
342.6
335.668
326.903
323.69
315.209
313.117
305.174
379.403
366.707
356.151
345.193
339.023
329.59
326.488
317.344
315.912
307.909
359.196
345.658
360.231
344.914
380.685
364.346
381.474
361.965
343.253
330.859
342.094
330.798
361.129
344.362
362.529
345.757
382.647
360.11
384.106
361.523
344.148
330.963
345.386
332.12
328.96
318.651
318.376
308.414
328.7
318.018
317.687
308.229
329.169
319.323
318.748
308.396
330.745
320.075
319.44
309.627
290.443
284.11
281.651
283.117
278.652
277.175
293.682
287.025
284.266
284.472
279.835
278.166
298.802
291.901
289.16
286.555
281.552
279.799
353.848
344.501
340.104
331.778
324.292
321.081
316.591
309.798
307.186
304.281
297.311
294.503
288.527
283.43
281.445
352.239
342.144
337.304
333.062
324.265
319.996
318.276
310.486
306.906
304.881
298.329
295.815
289.73
284.881
282.49
316.291
307.459
301.76
296.871
317.812
308.071
302.046
296.912
316.167
307.492
301.875
297.045
318.058
308.29
302.3
297.16
315.872
307.499
302.059
297.328
318.379
308.604
302.643
297.483
319.64
309.363
302.999
297.63
320.903
310.209
303.418
297.809
317.301
308.358
302.652
297.731
314.922
307.579
302.287
297.946
315.219
307.395
302.177
297.647
313.528
306.875
301.923
297.9
318.884
309.202
303.024
297.805
316.096
308.252
302.634
298.078
320.14
309.973
303.451
298.035
317.089
308.895
303.049
298.368
313.764
306.512
301.369
296.904
310.76
305.438
300.896
297.032
313.592
306.501
301.43
297.043
310.782
305.487
300.95
297.147
313.293
306.472
301.524
297.288
311.065
305.668
301.096
297.364
312.788
306.401
301.607
297.604
311.199
305.8
301.25
297.63
312.168
306.278
301.596
297.857
307.985
304.549
300.37
297.538
306.378
304.122
300.141
297.753
308.407
304.723
300.48
297.63
306.867
304.314
300.25
297.838
309.092
305.023
300.667
297.788
307.676
304.647
300.437
297.988
309.913
305.389
300.94
298.022
308.664
305.073
300.702
298.193
310.946
305.872
301.271
298.273
309.6
305.524
300.979
298.41
312.399
306.818
301.788
298.674
310.88
306.466
301.573
298.886
311.723
306.324
301.518
298.477
310.328
306
301.272
298.645
313.036
307.339
302.069
298.858
311.454
306.978
301.878
299.127
313.822
307.931
302.451
299.134
312.245
307.563
302.263
299.428
291.635
287.908
285.123
283.284
282.371
291.648
287.917
285.13
283.288
282.374
291.709
287.945
285.144
283.297
282.381
291.737
287.966
285.157
283.305
282.387
291.79
287.987
285.167
283.311
282.392
291.868
288.041
285.201
283.333
282.408
292.051
288.15
285.268
283.376
282.441
292.231
288.262
285.336
283.421
282.475
291.966
288.086
285.226
283.348
282.42
292.005
288.093
285.227
283.349
282.42
291.878
288.032
285.193
283.327
282.403
291.95
288.06
285.207
283.336
282.41
292.073
288.153
285.267
283.375
282.44
292.11
288.158
285.268
283.375
282.44
292.264
288.275
285.342
283.424
282.477
292.296
288.277
285.341
283.423
282.476
291.625
287.898
285.117
283.279
282.368
291.627
287.893
285.113
283.277
282.366
291.683
287.926
285.132
283.288
282.374
291.679
287.917
285.126
283.284
282.371
291.76
287.963
285.151
283.3
282.383
291.752
287.951
285.143
283.295
282.379
291.847
288.004
285.174
283.314
282.394
291.824
287.988
285.164
283.308
282.389
291.904
288.034
285.191
283.325
282.402
540.513
536.283
539.789
535.507
538.416
534.103
536.742
532.227
535.268
530.426
535.546
532.655
535.286
531.731
535.633
532.879
535.813
533.036
566.151
571.495
572.66
572.925
572.981
560.484
569.973
572.316
572.851
572.964
566.238
571.541
572.674
572.928
572.982
560.415
569.999
572.327
572.855
572.965
566.211
571.571
572.684
572.931
572.983
560.194
570.001
572.336
572.858
572.966
566.204
571.604
572.695
572.933
572.983
559.889
569.975
572.335
572.858
572.966
566.191
571.61
572.694
572.933
572.983
559.603
569.912
572.317
572.853
572.964
565.012
571.196
572.579
572.903
572.975
558.905
569.502
572.183
572.816
572.953
565.486
571.381
572.633
572.918
572.979
559.167
569.693
572.25
572.835
572.959
564.694
571.071
572.541
572.893
572.971
558.742
569.388
572.14
572.803
572.949
564.793
571.085
572.54
572.892
572.971
558.799
569.383
572.131
572.799
572.948
425.455
462.947
460.03
423.118
405.058
406.876
412.06
415.18
424.712
427.89
450.606
457.476
454.876
461.431
433.004
435.499
424.005
426.38
415.644
417.591
366.013
348.339
303.817
298.118
302.447
298.759
303.446
366.14
360.54
342.455
350.017
344.423
322.388
332.645
327.624
317.027
320.315
315.501
360.331
334.934
319.548
317.149
323.568
319.276
311.62
311.85
310.069
307.077
314.143
312.356
360.37
339.572
346.283
329.371
323.168
335.036
312.584
306.313
315.728
350.3
335.436
322.098
307.472
287.002
337.845
326.46
314.179
300.203
282.883
300.751
296.437
290.767
284.087
276.769
295.662
292.174
287.552
282.084
276.088
299.534
295.417
289.987
283.591
276.598
296.235
292.654
287.909
282.302
276.161
300.423
296.161
290.551
283.945
276.719
350.243
333.933
319.69
304.79
285.958
344.14
328.297
314.323
299.872
282.761
332.611
321.412
309.278
296.047
281.102
335.81
321.595
308.687
295.487
281.099
331.648
318.208
305.954
293.504
280.173
316.637
309.184
300.088
289.824
278.726
324.708
315.205
304.389
292.545
279.711
320.627
311.981
301.917
290.871
279.076
312.201
305.721
297.571
288.25
278.176
314.872
307.744
298.982
289.094
278.461
310.912
304.693
296.812
287.772
278.01
346.521
331.678
318.303
303.875
285.424
327.156
317.642
306.674
294.345
280.425
314.4
307.548
298.987
289.182
278.509
312.401
305.992
297.881
288.514
278.282
317.833
310.346
301.15
290.629
279.036
314.277
307.561
299.104
289.319
278.562
307.643
302.155
295.069
286.782
277.689
307.839
302.301
295.15
286.81
277.695
306.262
300.974
294.117
286.134
277.457
303.638
298.823
292.531
285.163
277.131
309.789
303.84
296.236
287.449
277.906
308.266
302.632
295.371
286.931
277.733
346.307
332.019
319.078
304.85
285.802
330.998
321.005
309.705
296.783
281.467
336.826
324.641
312.387
298.562
281.499
322.886
314.539
304.502
292.929
279.834
317.64
310.307
301.214
290.703
279.038
327.465
317.918
306.976
294.554
280.329
308.483
302.838
295.566
287.082
277.79
302.961
298.267
292.125
284.921
277.05
311.201
305.042
297.195
288.094
278.137
505.755
544.586
498.097
534.876
474.811
515.415
481.907
526.261
489.097
478.46
515.574
492.258
465.365
453.354
490.297
465.349
522.896
536.869
552.756
558.463
517.141
531.303
546.463
553.54
532.522
511.144
509.598
497.341
526.679
544.55
538.011
544.638
502.272
510.397
515.334
521.951
474.832
481.718
548.973
555.136
521.01
531.364
559.342
565.907
549.168
563.863
563.375
569.448
542.969
561.673
558.657
567.757
535.824
558.107
548.982
563.961
557.535
566.844
562.364
568.569
472.373
461.873
480.516
464.529
442.375
433.286
449.631
435.417
506.268
490.996
498.405
487.553
486.288
466.391
489.695
467.292
455.026
437
458.093
437.643
512.121
493.29
515.553
494.431
530.92
558.022
517.681
548.396
523.509
553.67
513.383
544.959
536.005
560.277
520.197
550.382
538.812
561.313
521.348
551.604
538.262
526.133
558.902
550.665
531.942
520.367
556.533
547.655
524.521
513.646
552.371
542.951
463.596
434.38
490.552
514.327
546.219
434.614
461.839
485.318
507.4
537.693
431.019
458.956
483.62
507.43
538.165
507.597
492.993
522.728
509.713
504.288
489.553
522.428
508.765
500.414
486.168
521.542
507.34
427.636
417.464
454.902
444.407
477.206
464.808
497.179
483.825
520.274
505.585
423.966
411.318
451.819
441.27
475.778
464.803
497.939
485.292
519.536
503.926
449.601
440.434
447.549
437.754
419.051
400.624
415.326
394.394
475.348
467.852
475.992
468.355
445.949
435.255
445.687
434.837
413.27
390.483
412.898
390.238
474.366
466.238
474.525
466.227
500.864
493.623
522.86
516.164
500.261
492.566
522
513.706
500.314
492.576
522.872
516.442
500.258
492.457
522.679
515.708
481.985
476.167
497.782
492.207
478.248
471.885
496.33
489.525
474.766
468.124
493.835
485.157
406.894
401.12
434.508
427.61
454.819
447.128
472.407
464.456
490.2
479.611
397.016
392.335
431.486
425.64
454.272
447.018
471.799
462.503
485.078
474.573
410.911
403.014
419.059
409.262
437.298
426.25
452.244
435.658
392.757
374.811
397.158
378.318
390.883
374.675
395.826
378.361
392.825
387.63
392.617
386.031
374.154
378.107
412.442
415.166
440.951
445.164
394.215
395.878
394.634
395.601
379.208
379.343
361.287
342.953
363.401
343.92
361.81
341.854
363.684
342.931
361.76
340.038
364.444
341.825
365.268
341.539
365.147
340.625
390.019
381.079
394.197
382.175
413.69
404.23
419.887
406.104
375.334
362.946
371.882
362.213
396.832
382.788
398.185
382.644
423.954
407.315
426.214
407.552
376.961
363.165
377.421
362.719
359.461
338.057
347.427
331.28
357.132
336.689
347.07
330.998
360.555
338.486
347.39
331.016
360.614
338.188
346.842
330.262
357.488
353.923
340.488
336.494
357.736
354.269
339.163
335.216
357.002
353.746
337.095
333.415
384.536
406.756
366.939
353.648
334.095
407.687
385.258
366.383
351.806
331.735
402.792
380.257
361.51
346.657
330.271
349.501
342.752
330.037
319.01
350.222
343.99
329.362
318.856
349.854
343.607
328.236
318.39
401.137
391.923
379.841
372.095
362.541
356.507
347.826
340.835
327.831
318.87
395.567
383.408
374.513
364.174
356.619
347.569
341.728
332.453
327.043
318.76
369.921
356.381
366.46
351.161
390.133
374.445
387.003
368.037
349.545
336.759
352.73
340.909
364.295
347.435
363.515
346.695
385.418
363.099
384.962
362.435
347.405
333.89
346.415
333.025
334.668
323.715
323.362
312.512
338.273
326.594
325.439
314.866
332.243
321.943
321.518
310.555
331.791
320.929
320.278
310.272
335.484
332.503
298.784
295.66
338.59
335.043
299.597
296.233
337.08
332.133
300.223
296.179
382.934
377.683
364.592
360.267
349.259
345.03
332.174
326.94
300.453
295.693
371.124
367.222
353.52
349.672
337.168
333.325
320.143
316.887
298.362
294.66
324.902
313.064
305.54
299.386
325.407
313.196
305.581
299.294
324.259
312.789
305.453
299.417
324.793
312.878
305.489
299.314
323.138
312.302
305.344
299.533
323.841
312.373
305.287
299.259
323.18
311.858
304.729
298.745
322.161
311.108
304.051
298.231
321.812
311.488
304.877
299.277
318.973
310.436
304.358
299.492
321.434
311.563
305.073
299.637
319.22
310.756
304.614
299.796
321.657
311.173
304.472
298.866
318.534
310.014
303.958
299.122
321.086
310.654
303.951
298.394
317.908
309.494
303.504
298.729
323.815
312.737
305.457
299.616
322.103
312.233
305.226
299.953
323.19
312.498
305.378
299.664
321.608
312.057
305.148
299.986
322.16
312.092
305.251
299.788
320.824
311.741
305.027
300.066
320.598
311.453
305.007
299.94
319.984
311.38
304.891
300.149
319.202
310.92
304.712
300.014
320.068
311.736
304.825
300.796
318.621
311.473
304.689
301.214
319.842
311.627
304.798
300.795
318.441
311.367
304.653
301.198
319.379
311.398
304.711
300.769
318.076
311.151
304.557
301.155
318.897
311.1
304.636
300.753
317.684
310.857
304.45
301.103
318.252
310.689
304.502
300.716
317.066
310.471
304.288
301.024
316.404
309.714
303.846
300.304
314.825
309.387
303.644
300.567
317.415
310.257
304.231
300.568
315.988
309.975
304.014
300.847
315.413
309.121
303.363
299.91
313.766
308.763
303.166
300.185
314.601
308.527
302.889
299.493
312.993
308.154
302.693
299.784
293.077
288.763
285.638
283.614
282.622
293.041
288.749
285.631
283.611
282.619
293.046
288.734
285.618
283.601
282.612
292.983
288.707
285.604
283.593
282.605
293.004
288.701
285.596
283.586
282.6
292.872
288.638
285.561
283.565
282.584
292.681
288.527
285.495
283.522
282.552
292.478
288.411
285.426
283.479
282.519
292.84
288.605
285.538
283.549
282.572
292.878
288.609
285.538
283.549
282.571
292.954
288.663
285.572
283.571
282.588
292.949
288.645
285.558
283.561
282.581
292.706
288.533
285.497
283.523
282.552
292.744
288.539
285.498
283.523
282.552
292.48
288.405
285.421
283.475
282.516
292.521
288.414
285.424
283.476
282.516
293.127
288.78
285.645
283.619
282.625
293.17
288.791
285.65
283.622
282.627
293.111
288.76
285.631
283.609
282.618
293.158
288.774
285.638
283.613
282.62
293.086
288.732
285.612
283.596
282.607
293.135
288.748
285.62
283.601
282.611
293.044
288.697
285.589
283.581
282.596
293.082
288.713
285.598
283.586
282.6
292.997
288.669
285.572
283.57
282.588
535.394
531.639
535.463
531.681
535.376
531.574
534.966
530.943
534.556
530.151
535.526
532.737
535.065
531.719
535.671
532.968
535.834
533.071
565.316
571.344
572.631
572.919
572.98
559.08
569.675
572.256
572.84
572.961
565.534
571.413
572.648
572.923
572.981
559.225
569.743
572.275
572.845
572.963
565.705
571.475
572.665
572.927
572.982
559.341
569.808
572.295
572.85
572.964
565.902
571.544
572.682
572.931
572.983
559.386
569.851
572.307
572.852
572.964
566.056
571.579
572.687
572.931
572.983
559.377
569.845
572.301
572.85
572.963
565.001
571.19
572.577
572.903
572.974
558.896
569.492
572.179
572.815
572.953
565.433
571.365
572.629
572.917
572.979
559.091
569.662
572.241
572.833
572.959
564.697
571.07
572.54
572.892
572.971
558.754
569.387
572.138
572.803
572.949
564.796
571.086
572.54
572.892
572.971
558.805
569.383
572.131
572.799
572.948
425.379
462.62
458.762
422.378
416.237
422.411
414.065
421.63
442.91
458.654
446.779
461.692
282.217
282.84
284.231
286.435
289.457
293.294
282.747
283.361
284.72
286.846
289.754
293.462
281.78
281.561
282.419
282.2
283.859
283.653
286.21
286.091
289.449
289.572
293.636
294.23
297.869
303.57
310.97
320.884
329.226
335.277
298.005
303.5
310.005
317.126
323.258
327.169
281.34
280.08
278.389
276.37
274.146
281.904
280.557
278.751
276.596
274.223
283.16
281.622
279.56
277.101
274.395
285.15
283.307
280.839
277.899
274.666
287.876
285.612
282.587
278.99
275.037
291.331
288.529
284.798
280.369
275.505
281.82
280.487
278.698
276.563
274.212
282.374
280.956
279.054
276.785
274.288
283.601
281.995
279.843
277.278
274.455
285.52
283.619
281.075
278.047
274.716
288.142
285.836
282.756
279.096
275.073
291.479
288.653
284.891
280.427
275.526
280.946
279.745
278.134
276.211
274.092
280.748
279.577
278.006
276.131
274.065
281.523
280.234
278.506
276.443
274.171
281.325
280.067
278.378
276.363
274.144
282.825
281.338
279.344
276.966
274.349
282.638
281.18
279.224
276.891
274.324
284.948
283.136
280.709
277.818
274.639
284.84
283.045
280.641
277.776
274.624
287.869
285.607
282.583
278.987
275.036
287.98
285.7
282.654
279.031
275.051
291.639
288.789
284.994
280.49
275.546
292.173
289.239
285.332
280.7
275.617
295.439
291.989
287.415
282.001
276.06
300.533
296.261
290.643
284.017
276.747
307.087
301.722
294.77
286.612
277.637
315.732
308.853
300.19
290.088
278.849
322.827
314.658
304.681
293.093
279.957
327.875
318.769
307.915
295.335
280.804
295.558
292.088
287.491
282.05
276.078
300.471
296.213
290.612
284.002
276.743
306.254
301.048
294.271
286.301
277.531
312.53
306.269
298.234
288.816
278.401
317.883
310.707
301.625
291.004
279.172
321.276
313.517
303.79
292.422
279.678
282.335
283.202
284.857
287.359
290.717
294.929
282.868
283.728
285.349
287.758
290.968
294.981
281.896
281.676
282.776
282.553
284.484
284.273
287.151
287.036
290.763
290.907
295.436
296.169
299.869
305.871
313.406
323.056
330.753
335.831
299.794
305.465
311.973
318.831
324.426
327.586
281.448
280.171
278.458
276.413
274.161
282.232
280.837
278.964
276.73
274.269
283.728
282.106
279.929
277.333
274.474
285.989
284.022
281.386
278.243
274.783
289.021
286.591
283.337
279.462
275.198
292.821
289.805
285.777
280.986
275.716
281.93
280.58
278.769
276.608
274.227
282.707
281.24
279.271
276.921
274.334
284.172
282.482
280.215
277.511
274.535
286.349
284.326
281.616
278.387
274.832
289.246
286.779
283.479
279.55
275.228
292.863
289.837
285.801
281.001
275.722
281.051
279.835
278.203
276.254
274.107
280.851
279.666
278.074
276.173
274.08
281.846
280.51
278.716
276.575
274.216
281.645
280.339
278.586
276.493
274.189
283.391
281.82
279.712
277.197
274.428
283.201
281.659
279.59
277.121
274.402
285.802
283.864
281.266
278.168
274.758
285.698
283.776
281.2
278.127
274.744
289.065
286.628
283.366
279.48
275.204
289.195
286.739
283.45
279.532
275.222
293.281
290.196
286.075
281.171
275.779
293.943
290.757
286.501
281.437
275.87
297.266
293.558
288.624
282.765
276.322
302.644
298.084
292.055
284.914
277.055
309.338
303.682
296.303
287.593
277.975
317.765
310.648
301.615
291.013
279.17
324.273
315.951
305.722
293.782
280.2
328.405
319.247
308.305
295.597
280.897
297.191
293.49
288.572
282.733
276.311
302.272
297.765
291.813
284.763
277.004
308.066
302.619
295.494
287.08
277.799
314.11
307.649
299.317
289.512
278.641
318.973
311.665
302.383
291.494
279.342
321.666
313.862
304.065
292.601
279.741
366.865
349.1
306.623
300.404
305.882
301.511
306.704
374.776
373.045
351.261
363.962
329.447
341.21
323.48
328.098
321.592
366.157
341.162
325.472
322.281
329.107
323.666
314.89
316.019
315.476
311.697
319.664
317.184
363.004
341.725
350.658
332.477
326.967
339.956
316.398
310.18
320.306
351.211
336.308
322.875
308.075
287.251
338.603
327.163
314.774
300.624
283.04
303.329
298.667
292.498
285.188
277.147
297.752
293.971
288.938
282.96
276.388
302.688
298.144
292.103
284.935
277.06
298.754
294.821
289.583
283.362
276.525
303.417
298.751
292.562
285.225
277.159
359.941
343.476
328.16
311.09
288.584
358.522
342.184
326.501
308.81
286.377
341.671
330.005
316.577
301.124
282.989
351.832
336.683
321.626
304.721
284.726
323.498
315.443
305.196
293.214
279.926
333.454
323.44
311.297
297.257
281.425
318.341
311.228
301.998
291.149
279.191
322.368
314.54
304.501
292.743
279.749
316.695
309.874
300.973
290.492
278.96
352.758
337.736
323.642
307.816
287.059
333.295
323.319
311.391
297.545
281.581
320.048
312.623
303.075
291.865
279.45
317.242
310.299
301.32
290.755
279.064
323.133
315.128
305.023
293.188
279.938
318.415
311.241
302.044
291.236
279.231
310.678
304.811
297.157
288.124
278.153
311.718
305.705
297.832
288.536
278.292
311.279
305.364
297.567
288.352
278.224
307.899
302.526
295.421
287.01
277.767
314.98
308.443
299.898
289.824
278.733
312.773
306.599
298.506
288.953
278.434
349.095
334.652
321.384
306.573
286.526
333.099
322.928
311.297
297.873
281.866
341.237
328.744
315.857
300.972
282.327
325.85
317.206
306.662
294.359
280.334
321.233
313.513
303.786
292.387
279.625
332.276
322.329
310.621
297.013
281.198
312.034
305.955
298.023
288.665
278.338
306.527
301.365
294.543
286.465
277.582
315.495
308.843
300.214
290.052
278.818
280.358
294.45
307.142
318.025
326.643
333.057
487.374
482.242
459.13
464.289
474.458
467.988
451.584
442.876
506.799
523.757
502.856
519.244
497.54
488.636
514.398
477.568
473.821
451.531
455.51
467.348
462.569
445.201
438.395
496.515
509.983
493.981
506.853
489.645
482.268
503.116
463.882
461.553
440.749
443.509
456.886
454.14
435.917
430.833
481.025
494.553
479.447
492.629
476.719
471.627
490.14
450.114
448.538
429.349
431.497
445.059
443.33
425.313
420.862
466.431
479.96
465.376
478.441
463.182
458.918
476.376
440.179
438.806
421.001
422.989
435.427
433.489
417.046
412.034
455.365
467.714
454.605
467.128
452.732
448.692
465.523
433.291
431.96
415.352
417.288
428.608
426.586
411.474
406.547
447.003
459.604
446.274
459.444
444.731
440.947
457.855
409.857
406.945
432.732
436.443
403.061
395.876
427.128
418.202
387.101
368.035
384.676
367.389
379.52
378.079
366.327
405.771
402.904
427.205
430.436
399.13
392.274
422.088
414.038
382.103
365.641
379.564
365.289
374.934
373.919
364.172
399.738
397.063
418.97
421.61
393.511
387.433
414.6
407.862
379.879
363.848
377.563
362.926
373.222
372.159
361.256
392.943
390.231
409.77
412.134
386.129
379.598
405.61
398.701
375.716
360.82
373.151
359.036
368.471
366.594
356.296
387.968
385.221
403.037
405.332
381.18
374.579
398.892
391.927
372.435
359.132
369.515
356.061
364.379
361.634
351.982
384.93
382.143
398.603
400.878
378.14
371.483
394.498
387.704
371.324
357.529
368.14
353.551
362.098
358.747
348.833
541.987
557.734
528.919
548.019
512.264
534.358
486.418
510.473
489.799
514.098
513.731
537.642
524.718
546.536
535.835
554.43
503.717
488.196
520.371
496.301
478.283
461.373
493.931
468.371
549.317
555.654
561.653
564.796
539.457
547.917
554.204
559.213
538.318
526.061
513.875
507.145
539.581
549.613
539.592
544.972
503.997
510.814
516.666
522.276
476.074
482.032
550.703
555.469
522.74
531.77
560.687
566.115
560.206
567.687
567.236
570.772
553.281
565.094
562.359
568.989
544.171
560.864
552.678
565.211
558.881
567.342
562.632
568.677
475.268
461.293
482.244
464.167
442.46
429.896
449.868
433.551
508.692
491.511
502.727
488.626
487.069
466.133
489.892
467.186
455.093
435.984
458.092
437.294
513.225
493.483
515.845
494.473
533.24
558.898
518.425
548.736
527.858
555.329
514.887
545.646
537.048
560.68
520.519
550.53
539.086
561.423
521.435
551.643
556.274
547.227
565
558.235
548.714
539.64
561.811
554.159
538.056
528.309
556.507
547.693
461.231
423.165
494.702
520.635
548.746
421.922
459.376
490.893
515.574
540.965
421.198
456.296
485.214
510.135
539.391
529.084
512.359
532.709
516.802
523.749
507.019
530.567
514.272
515.213
498.811
526.95
510.418
415.22
402.784
452.555
440.597
482.087
467.811
504.22
488.655
523.361
506.63
414.016
400.201
448.157
435.312
476.022
462.188
499.466
484.121
520.469
503.048
446.686
436.246
445.482
434.95
412.852
393.035
411.448
389.534
474.508
466.356
475.228
466.335
444.754
433.684
445.298
434.344
411.244
388.023
412.261
389.478
473.779
465.313
474.322
465.926
500.662
492.957
522.847
515.901
500.456
491.754
522.259
513.394
500.081
492.112
522.79
516.241
500.16
492.287
522.641
515.635
493.059
477.106
468.406
495.977
479.368
470.533
488.254
471.962
463.259
493.144
475.832
466.735
479.282
462.516
453.453
488.649
470.346
460.789
386.722
375.187
369.322
424.18
409.086
400.937
450.584
433.635
424.105
469.416
452.211
442.991
483.482
463.949
453.654
382.874
370.675
364.031
420.326
406.669
399.565
445.697
430.166
421.925
464.352
446.489
436.938
477.713
458.071
447.982
418.192
405.073
421.996
409.349
446.793
431.148
455.016
437.239
390.56
370.675
391.765
372.65
391.46
371.135
393.242
373.748
391.367
388.132
390.735
384.284
370.061
374.325
412.104
414.998
441.492
445.281
392.971
395.374
393.31
395.112
376.738
378.424
349.252
330.66
354.852
334.077
350.744
330.355
356.334
334.291
351.754
329.784
358.622
334.946
361.75
337.251
363.938
339.143
383.902
372.273
391.114
377.192
410.446
397.577
418.431
402.471
370.63
357.165
363.16
352.481
395.2
380.131
397.683
381.762
423.191
405.401
425.975
406.914
374.472
360.016
376.651
361.669
353.48
332.077
341.517
325.948
346.799
327.73
337.594
323.064
357.333
335.009
344.081
327.916
359.614
337.06
345.722
329.225
331.74
320.452
323.747
316.19
332.837
322.065
323.404
316.291
334.196
325.537
322.839
317.046
364.099
388.251
346.998
335.86
321.794
386.32
360.649
340.974
329.142
317.377
386.566
362.585
344.915
332.235
319.65
311.051
301.871
308.071
299.051
313.607
304.421
309.129
300.336
317.905
309.285
310.857
302.43
379.644
367.338
353.807
342.602
335.67
326.906
323.693
315.213
313.119
305.177
379.403
366.708
356.152
345.194
339.024
329.591
326.49
317.346
315.913
307.91
359.197
345.659
360.231
344.914
380.685
364.347
381.474
361.966
343.254
330.86
342.095
330.799
361.129
344.362
362.53
345.757
382.648
360.11
384.106
361.523
344.148
330.964
345.386
332.121
328.96
318.652
318.377
308.414
328.701
318.019
317.688
308.23
329.17
319.323
318.748
308.397
330.746
320.075
319.44
309.627
290.352
284.024
281.566
283.112
278.637
277.158
293.703
287.044
284.281
284.489
279.848
278.176
298.812
291.91
289.168
286.562
281.558
279.805
353.849
344.503
340.105
331.78
324.294
321.083
316.594
309.801
307.19
304.286
297.316
294.508
288.53
283.433
281.448
352.24
342.146
337.305
333.064
324.266
319.998
318.278
310.488
306.908
304.884
298.331
295.817
289.732
284.883
282.492
316.292
307.456
301.753
296.861
317.803
308.061
302.034
296.9
316.165
307.491
301.874
297.045
318.058
308.29
302.3
297.16
315.871
307.499
302.059
297.328
318.378
308.604
302.643
297.483
319.64
309.363
302.999
297.63
320.904
310.21
303.418
297.809
317.302
308.358
302.652
297.731
314.922
307.58
302.287
297.946
315.219
307.395
302.177
297.647
313.529
306.876
301.923
297.9
318.885
309.202
303.024
297.805
316.096
308.252
302.635
298.078
320.141
309.973
303.452
298.035
317.09
308.895
303.049
298.368
313.768
306.511
301.365
296.896
310.755
305.434
300.892
297.027
313.59
306.5
301.429
297.043
310.781
305.487
300.95
297.147
313.292
306.472
301.524
297.287
311.065
305.668
301.096
297.364
312.789
306.401
301.607
297.604
311.2
305.801
301.25
297.63
312.169
306.278
301.596
297.857
307.981
304.546
300.367
297.533
306.367
304.117
300.137
297.749
308.411
304.725
300.48
297.629
306.872
304.315
300.25
297.837
309.094
305.024
300.667
297.788
307.679
304.648
300.437
297.988
309.914
305.39
300.94
298.022
308.665
305.074
300.702
298.192
310.947
305.872
301.271
298.273
309.601
305.524
300.98
298.41
312.4
306.819
301.788
298.674
310.88
306.466
301.573
298.886
311.723
306.324
301.518
298.477
310.329
306
301.272
298.646
313.036
307.34
302.069
298.858
311.455
306.979
301.879
299.127
313.823
307.932
302.452
299.134
312.246
307.564
302.263
299.429
291.631
287.906
285.122
283.283
282.371
291.643
287.915
285.128
283.287
282.374
291.709
287.945
285.144
283.297
282.381
291.737
287.966
285.157
283.305
282.387
291.79
287.987
285.168
283.311
282.392
291.868
288.041
285.201
283.333
282.408
292.051
288.151
285.268
283.376
282.441
292.231
288.262
285.337
283.421
282.475
291.966
288.086
285.226
283.349
282.42
292.005
288.093
285.228
283.349
282.42
291.878
288.032
285.193
283.327
282.404
291.95
288.06
285.207
283.336
282.41
292.073
288.153
285.267
283.376
282.44
292.11
288.158
285.268
283.375
282.44
292.264
288.275
285.343
283.424
282.477
292.296
288.277
285.341
283.423
282.476
291.622
287.897
285.116
283.279
282.368
291.624
287.892
285.112
283.276
282.365
291.683
287.926
285.132
283.289
282.375
291.678
287.917
285.126
283.284
282.371
291.76
287.963
285.151
283.301
282.383
291.751
287.951
285.143
283.295
282.379
291.847
288.004
285.174
283.315
282.394
291.824
287.988
285.164
283.308
282.389
291.904
288.034
285.192
283.326
282.402
540.57
536.346
539.804
535.522
538.423
534.11
536.745
532.23
535.268
530.427
535.546
532.655
535.286
531.731
535.632
532.878
535.813
533.035
566.185
571.503
572.662
572.925
572.981
560.509
569.979
572.317
572.852
572.964
566.25
571.545
572.675
572.928
572.982
560.428
570.004
572.329
572.855
572.965
566.215
571.572
572.685
572.931
572.983
560.2
570.003
572.336
572.858
572.966