/*--------------------------------*- C++ -*----------------------------------*\
| =========                 |                                                 |
| \\      /  F ield         | OpenFOAM: The Open Source CFD Toolbox           |
|  \\    /   O peration     | Version:  2412                                  |
|   \\  /    A nd           | Website:  www.openfoam.com                      |
|    \\/     M anipulation  |                                                 |
\*---------------------------------------------------------------------------*/
FoamFile
{
    version     2.0;
    format      ascii;
    arch        "LSB;label=32;scalar=64";
    class       volVectorField;
    location    "0.5/dbc_cu_top";
    object      gradT;
}
// * * * * * * * * * * * * * * * * * * * * * * * * * * * * * * * * * * * * * //

dimensions      [0 -1 0 1 0 0 0];

internalField   nonuniform List<vector> 
107224
(
(1.97518 1.97518 -0.000988683)
(2.99994 2.97161 0)
(4.00001 3.95078 -1.07317e-09)
(4.00001 4.9468 0)
(5.99999 6.92217 0)
(5.99997 8.89772 2.14674e-09)
(5.99999 10.873 0)
(4.99991 12.8651 0)
(2.99996 13.8447 0)
(1.00002 15.82 0)
(-1.00007 14.8408 0)
(-2.99993 13.8278 0)
(-4.00001 12.8481 0)
(-5.00015 9.89329 0)
(-5.99997 8.89765 0)
(-5.00004 6.9222 0)
(-4.00003 3.95075 0)
(-3.99999 2.9715 0)
(-1.99993 1.97539 0)
(-0.958842 0.997581 -3.91888e-12)
(2.97162 2.99995 0)
(4.00001 4.00001 0)
(6 6.00002 0)
(7 9.00002 0)
(9 12 0)
(9 16 0)
(9 20 0)
(7 25.0001 0)
(5 28.0001 0)
(1 29.0001 0)
(-3 29.0001 0)
(-5 27.0001 0)
(-8 23.0001 0)
(-9 19 0)
(-9 15 0)
(-8.00001 11 0)
(-6 8.00002 0)
(-5 5.00002 0)
(-3.99984 4.00001 0)
(-1.62162 3.00058 0.00122872)
(3.9507 4.00002 -1.07322e-09)
(6.00002 6 -1.07811e-09)
(8 8 0)
(10 12 0)
(13 18 0)
(14 23 0)
(14 31 -1.07808e-09)
(12 38 -1.07808e-09)
(8 43 -1.07808e-09)
(3 46 -2.15616e-09)
(-4 46 -1.07808e-09)
(-9 42 -1.07809e-09)
(-13 36 0)
(-15 29 0)
(-14 22 -1.07808e-09)
(-13 16 -1.07808e-09)
(-10 12 -1.07808e-09)
(-8 7 -1.0781e-09)
(-4.99986 5 -1.07815e-09)
(-2.57833 3.00053 0.00122919)
(4.9469 4 1.07321e-09)
(9.00003 7 1.07811e-09)
(12 10 0)
(16 16 0)
(20 23 0)
(23 33 0)
(24 44 1.07808e-09)
(21 55 1.07808e-09)
(15 65 1.07808e-09)
(4 70 1.07808e-09)
(-7 70 2.15616e-09)
(-16 63 1.07808e-09)
(-22 53 0)
(-24 41 0)
(-22 31 1.07808e-09)
(-19 22 1.07808e-09)
(-15 15 1.07808e-09)
(-11 10 1.07809e-09)
(-6.99979 6.99999 1.07816e-09)
(-3.90821 3.9999 0.0036881)
(6.92237 6.00001 0)
(12 9 0)
(18 13 0)
(23 20 0)
(30 30 0)
(36 44 0)
(38 60 0)
(35 79 0)
(24 96 0)
(7 106 0)
(-12 104 0)
(-28 92 0)
(-37 75 0)
(-38 56 0)
(-35 40 0)
(-29 27 0)
(-22 18 0)
(-16 11 0)
(-10.9996 8 0)
(-4.86478 4.99918 0.00368779)
(8.89763 6.00002 2.1466e-09)
(16.0001 9 1.0781e-09)
(23 14 0)
(33 23 0)
(44 36 0)
(54 54 0)
(61 79 1.07808e-09)
(60 110 1.07808e-09)
(45 142 1.07808e-09)
(14 161 1.07808e-09)
(-22 158 1.07808e-09)
(-50 134 10.0411)
(-61 103 0)
(-60 72 0)
(-51 49 1.07808e-09)
(-41 32 1.07808e-09)
(-30 21 1.07808e-09)
(-22 13 1.07809e-09)
(-13.9996 8 1.07815e-09)
(-7.15142 5.99852 0.00490616)
(10.8731 5.99999 0)
(20.0001 9 0)
(31 14 0)
(44 24 0)
(60 38 0)
(79 61 0)
(97 97 0)
(106 150 0)
(86 217 0)
(28 264 0)
(-45 257 10.3863)
(-95 201 0)
(-105 135 0)
(-93 87 0)
(-75 55 0)
(-56 34 0)
(-40 20 0)
(-28 13 0)
(-17.9994 8.00001 0)
(-8.10807 4.99901 0.0061433)
(12.8654 5.00001 0)
(25.0001 7 0)
(38 12 0)
(55 21 0)
(79 35 0)
(110 60 0)
(150 106 0)
(197 197 0)
(205 382.005 10.3865)
(72 555.013 30.8142)
(-116 528.012 30.8142)
(-214 327.001 10.041)
(-186 167 0)
(-139 91 0)
(-102 53 0)
(-73 31 0)
(-50 19 0)
(-34 11 0)
(-21.9993 7 0)
(-9.43824 4.99913 0.0086048)
(13.844 3.00005 0)
(28.0001 5 0)
(43 8 0)
(65 15 0)
(96 24 0)
(142 45 0)
(217 86 0)
(382.005 205 10.3865)
(881.291 881.291 71.8187)
(228 2089.23 318.237)
(-409.006 2013.3 297.78)
(-733.752 551.86 40.9999)
(-324 160 10.3863)
(-194 73 10.3862)
(-128 38 0)
(-87 21 0)
(-59 13 0)
(-39 7 0)
(-23.9992 4 0)
(-11.0596 2.99805 0.00735587)
(15.8199 1.00007 0)
(29.0001 1 0)
(46 3 0)
(70 4 0)
(106 7 0)
(161 14 0)
(264 28 0)
(555.013 72 30.8142)
(2089.23 228 318.237)
(390 390 1778.31)
(-744 368 1757.75)
(-1424.54 173 81.7556)
(-442.002 55 10.041)
(-230 23 0)
(-144 11 0)
(-95 6 0)
(-64 4 0)
(-41 2 0)
(-25.999 1 0)
(-11.6852 0.00153995 0.0524818)
(14.8405 -1.00005 0)
(29.0001 -3 0)
(46 -4 0)
(70 -7 0)
(104 -12 0)
(158 -22 0)
(257 -45 10.3863)
(528.012 -116 30.8142)
(2013.3 -409.006 297.78)
(368 -744 1757.75)
(-704 -704 1737.14)
(-1356.64 -297.008 71.6815)
(-423.002 -89 10.3864)
(-225 -38 0)
(-142 -19 0)
(-94 -11 0)
(-63 -6 0)
(-41 -3 0)
(-25.9991 -2 0)
(-11.0599 -0.999276 0.00982651)
(13.8276 -2.99994 -1.07334e-09)
(27.0001 -5 0)
(42 -9 0)
(63 -16 0)
(92 -28 0)
(134 -50 10.0411)
(201 -95 0)
(327.001 -214 10.041)
(551.86 -733.752 40.9999)
(173 -1424.54 81.7557)
(-297.008 -1356.64 71.6815)
(-513.144 -513.149 30.5474)
(-284 -170 10.0411)
(-180 -80 0)
(-122 -43 10.3862)
(-84 -24 0)
(-57 -14 0)
(-38 -9 0)
(-23.9992 -4.99999 0)
(-11.351 -3.99971 0.00613159)
(12.8481 -4.00001 0)
(23.0001 -8 0)
(36 -13 0)
(53 -22 0)
(75 -37 0)
(103 -61 0)
(135 -105 0)
(167 -186 0)
(160 -324 10.3863)
(55 -442.002 10.041)
(-89 -423.002 10.3864)
(-170 -284 10.0411)
(-161 -161 0)
(-126 -92 0)
(-94 -54 0)
(-69 -32 0)
(-48 -19 0)
(-33 -11 0)
(-20.9992 -6 0)
(-9.12846 -4.99869 -0.489582)
(9.89377 -5.00009 1.07309e-09)
(19.0001 -9 1.07811e-09)
(29 -15 0)
(41 -24 0)
(56 -38 0)
(72 -60 0)
(87 -93 2.15616e-09)
(91 -139 1.07808e-09)
(73 -194 10.3862)
(23 -230 1.07808e-09)
(-38 -225 1.07808e-09)
(-80 -180 1.07808e-09)
(-92 -126 0)
(-84 -84 0)
(-68 -53 1.07808e-09)
(-52 -34 1.07808e-09)
(-38 -21 1.07808e-09)
(-27 -12 1.07809e-09)
(-16.9994 -8 2.15631e-09)
(-7.15144 -4.99912 0.0061454)
(8.89768 -6.00004 0)
(15 -9 0)
(22 -14 0)
(31 -22 0)
(40 -35 0)
(49 -51 0)
(55 -75 0)
(53 -102 0)
(38 -128 0)
(11 -144 0)
(-19 -142 0)
(-43 -122 10.3862)
(-54 -94 0)
(-53 -68 0)
(-47 -47 0)
(-37 -30 0)
(-28 -20 0)
(-20 -13 0)
(-12.9996 -8 0)
(-5.82145 -4.99914 0.003687)
(6.92228 -5.00004 0)
(11 -8 0)
(16 -13 0)
(22 -19 0)
(27 -29 0)
(32 -41 0)
(34 -56 0)
(31 -73 0)
(21 -87 0)
(6 -95 0)
(-11 -94 0)
(-24 -84 0)
(-32 -69 0)
(-34 -52 0)
(-30 -37 0)
(-26 -26 0)
(-20 -17 0)
(-14 -11 0)
(-8.9997 -7 0)
(-4.53401 -5.00066 0.0463463)
(3.95067 -3.99998 0)
(8.00002 -6 0)
(12 -10 0)
(15 -15 0)
(18 -22 0)
(21 -30 0)
(20 -40 0)
(19 -50 0)
(13 -59 0)
(4 -64 0)
(-6 -63 0)
(-14 -57 0)
(-19 -48 0)
(-21 -38 0)
(-20 -28 0)
(-17 -20 0)
(-13 -13 0)
(-10 -9 0)
(-6.99978 -6 0)
(-3.90819 -3.99987 0.0036871)
(2.97146 -3.99998 0)
(5.00002 -5 0)
(7 -8 0)
(10 -11 0)
(11 -16 0)
(13 -22 0)
(13 -28 0)
(11 -34 0)
(7 -39 0)
(2 -41 0)
(-3 -41 0)
(-9 -38 0)
(-11 -33 0)
(-12 -27 0)
(-13 -20 0)
(-11 -14 0)
(-9 -10 0)
(-7 -7 0)
(-3.99984 -4 0)
(-2.95156 -3.00079 0.00368793)
(1.97537 -1.99991 0)
(4.00001 -3.99984 0)
(5.00001 -4.99986 0)
(7.00001 -6.99979 0)
(8 -10.9996 0)
(8 -13.9996 0)
(8 -17.9994 0)
(7 -21.9993 0)
(4 -23.9992 0)
(1 -25.9992 0)
(-2 -25.9991 0)
(-5 -23.9992 0)
(-6 -20.9992 0)
(-8 -16.9994 0)
(-7.99999 -12.9995 0)
(-7 -8.99973 0)
(-6 -6.99978 0)
(-4 -3.99984 0)
(-2.99995 -2.99994 0)
(-1.62161 -2.00131 0.000609961)
(0.997584 -0.9579 -1.11095e-06)
(3.00053 -1.62173 0.0012298)
(3.00073 -2.57815 0.00122885)
(3.99981 -3.90826 0.00368511)
(4.99927 -4.86472 0.00368459)
(5.99851 -7.15137 0.00490816)
(4.99922 -8.10811 0.00490986)
(4.99935 -9.43786 0.00674442)
(2.99803 -11.0596 0.00735901)
(0.00179295 -11.6855 0.0500404)
(-0.999152 -11.0598 0.00983434)
(-3.99958 -11.3513 0.00612676)
(-4.99885 -9.12876 -0.490961)
(-4.99903 -7.15135 0.00614054)
(-4.99894 -5.82159 0.00368663)
(-5.00061 -4.5342 0.0463706)
(-3.99993 -3.90829 0.00368435)
(-3.00063 -2.95193 0.00368519)
(-2.00133 -1.62163 0.00122966)
(-1.32375 -1.31541 0.00373632)
(1.30846 1.30726 0.90146)
(0.996589 1.01509 0.0432414)
(1.99848 1.64545 0.278214)
(2.99739 1.64529 0.278959)
(2.99758 2.89642 0.778724)
(2.99727 2.66524 0.307355)
(3.99579 3.91612 0.807)
(3.99569 3.91613 0.807127)
(4.99441 4.93621 0.836433)
(4.99402 4.93651 0.836091)
(4.99425 5.95623 0.865469)
(5.99324 7.20713 1.36429)
(4.99451 7.20723 1.36594)
(4.99476 8.22682 1.39406)
(4.99408 9.54278 2.03001)
(3.99558 9.47729 1.89261)
(2.99721 11.518 1.94921)
(2.99626 11.123 2.17253)
(0.998732 11.123 2.17198)
(-1.26524e-06 12.143 2.19852)
(-6.87154e-05 12.1431 2.19906)
(-0.998716 11.1233 2.17242)
(-2.99563 11.1239 2.16918)
(-2.99684 11.5176 1.95123)
(-3.9959 9.47804 1.89343)
(-4.99456 9.54277 2.02963)
(-4.99402 8.22777 1.3952)
(-4.99441 7.20671 1.36601)
(-5.99293 7.20728 1.36403)
(-4.99431 5.95647 0.864776)
(-4.9945 4.93651 0.836578)
(-4.99409 4.93674 0.836056)
(-3.99577 3.91619 0.806847)
(-3.99571 3.9163 0.806742)
(-2.99725 2.66567 0.307484)
(-2.99757 2.89559 0.777712)
(-2.99746 1.64534 0.278379)
(-1.99837 1.64536 0.278457)
(-0.995309 1.01377 0.0431878)
(-1.30968 1.30795 0.899065)
(1.01541 0.996534 0.0399182)
(1.64543 1.99846 0.278956)
(1.995 1.99498 0.0736304)
(1.9999 1.99614 0.0346727)
(1.99615 1.99991 0.0346712)
(2.99973 2.99974 0)
(3.00005 2.99818 0.0411885)
(4.00004 2.99826 0.0411978)
(3.99995 3.99975 0)
(4 3.99975 0)
(3.99999 3.99235 0.0693858)
(4.00002 3.99247 0.0694084)
(5 4.99961 0)
(6 6.99951 0)
(3.99999 4.99471 0.0759283)
(4.99997 6.99115 0.11065)
(6.99999 6.99951 0)
(6.99999 8.9994 0)
(5.99999 6.99094 0.110635)
(6.00006 8.98681 0.145251)
(8 10.9993 0)
(8 12.9991 0)
(6.00005 8.98684 0.145239)
(4.99989 9.98922 0.151796)
(8 13.9989 0)
(8 16.9989 -2.35625e-09)
(6.00001 10.9832 0.179996)
(3.99997 11.9857 0.186571)
(8 17.9988 0)
(5.99999 20.9987 0)
(5.00013 12.9878 0.193065)
(2.99998 13.9734 10.8123)
(7.00001 21.9985 0)
(5 23.9984 0)
(2 13.9813 0.221166)
(0.999895 14.9834 0.227635)
(4 23.9984 0)
(2 25.9982 0)
(0.999978 15.9777 0.255844)
(-0.999957 15.9779 0.255866)
(1 25.9982 0)
(-1 25.9982 0)
(-0.999904 14.9835 0.227661)
(-1.99999 13.9813 0.221133)
(-2 25.9982 0)
(-4 23.9983 0)
(-3.0001 13.9732 10.8109)
(-5.00018 12.9873 0.192989)
(-5 23.9983 0)
(-7.00001 21.9985 0)
(-3.99999 11.9858 0.186535)
(-5.99986 10.9839 0.180161)
(-6 20.9986 0)
(-7.99999 17.9989 0)
(-4.99976 9.98993 0.151949)
(-6.00006 8.98702 0.145323)
(-8 16.999 0)
(-8.00001 13.999 -1.17816e-09)
(-6.00006 8.98701 0.145332)
(-5.99995 6.99116 0.110664)
(-8 12.9991 0)
(-7.99999 10.9993 0)
(-4.99991 6.99093 0.110634)
(-4.00002 4.99468 0.0759056)
(-6.99999 8.99939 0)
(-7 6.99949 -1.17813e-09)
(-3.99996 3.99245 0.0693941)
(-3.99996 3.99254 0.0693876)
(-6 6.9995 0)
(-5 4.99961 1.17813e-09)
(-4.00002 2.99839 0.0412025)
(-3.00012 2.99828 0.0411995)
(-4 3.99975 0)
(-3.99995 3.99975 0)
(-1.99988 1.99619 0.0346892)
(-1.99465 1.99469 0.0736159)
(-2.99974 2.99976 0)
(-1.99622 1.99992 0.0346739)
(-1.01381 0.995625 0.0398443)
(-1.6455 1.99851 0.279037)
(1.64517 2.99747 0.278921)
(2.89662 2.9975 0.778829)
(2.99816 3.00005 0.0411859)
(3.99974 3.99995 0)
(2.99827 4.00002 0.0411979)
(3.99975 4 0)
(3.99994 3.99994 0)
(4.99999 4.9999 0)
(4.9999 4.99999 0)
(7 7 0)
(6 5.99992 0)
(6 7.9999 0)
(7 8 0)
(9 9.99998 0)
(7 8.99987 -1.17841e-09)
(8 10.9998 0)
(10 11 0)
(11 14 0)
(9 11.9999 10.5784)
(9 14.9998 0)
(11 16 0)
(13 20 0)
(9 15.9998 -1.1784e-09)
(9 18.9997 0)
(13 22 0)
(12 27 -1.17853e-09)
(9 19.9998 0)
(8 22.9997 0)
(13 28 0)
(11 33 0)
(7 24.9997 0)
(5 26.9997 0)
(11 34 0)
(9 38 0)
(5 27.9996 0)
(3 28.9996 0)
(7 39 0)
(3 41 0)
(1 28.9996 0)
(-1 28.9996 0)
(2 41 0)
(-2 41 0)
(-3 28.9996 0)
(-5 27.9996 0)
(-3 41 0)
(-7 39 0)
(-5 26.9996 0)
(-7 24.9996 0)
(-9 38 0)
(-11 34 0)
(-8 22.9997 -1.1784e-09)
(-9 19.9998 0)
(-11 33 0)
(-13 28 0)
(-9 18.9998 -1.17843e-09)
(-9 15.9998 0)
(-12 27 0)
(-13 22 -1.17853e-09)
(-9 14.9998 0)
(-9 11.9999 10.5784)
(-13 20 0)
(-11 16 0)
(-8 10.9998 0)
(-7 8.99986 0)
(-11 14 0)
(-10 11 -1.17853e-09)
(-6 7.9999 0)
(-6 5.99992 0)
(-9 9.99998 0)
(-7 8 1.17852e-09)
(-5 4.9999 0)
(-3.99995 3.99995 0)
(-7 7 0)
(-4.99991 5 0)
(-3.99975 3.99995 0)
(-2.99832 3 0.0411954)
(-3.99975 4 0)
(-2.99837 4 0.0412071)
(-1.64543 2.99726 0.278406)
(-2.89552 2.99695 0.777812)
(2.66567 2.99717 0.307434)
(3.91629 3.99564 0.806791)
(3.9925 3.99997 0.0693846)
(4.99961 4.99999 1.17813e-09)
(3.99243 3.99994 0.0693958)
(6.9995 6 0)
(5.99992 6 1.1784e-09)
(8 7 1.17852e-09)
(7.9999 6 0)
(9.99998 9 0)
(8 8 0)
(10 12 1.17854e-09)
(12 10 0)
(13 13 0)
(10 12 0)
(13 16 1.17854e-09)
(15 15 0)
(17 20 0)
(13 18 0)
(14 22 1.17854e-09)
(18 22 0)
(20 28 0)
(14 23 0)
(15 29 0)
(21 30 0)
(21 38 -1.17854e-09)
(14 31 1.17854e-09)
(13 36 0)
(20 40 0)
(19 48 0)
(12 38 1.17854e-09)
(9 42 1.17854e-09)
(19 50 0)
(14 57 0)
(8 43 1.17854e-09)
(4 46 1.17854e-09)
(13 59 0)
(6 63 0)
(3 46 2.35708e-09)
(-3 46 2.35708e-09)
(4 64 0)
(-4 64 0)
(-4 46 1.17854e-09)
(-8 43 1.17853e-09)
(-6 63 0)
(-13 59 0)
(-9 42 1.17853e-09)
(-12 38 1.17854e-09)
(-14 57 0)
(-19 50 0)
(-13 36 0)
(-14 31 1.17854e-09)
(-19 48 0)
(-20 40 0)
(-15 29 0)
(-14 23 0)
(-21 38 0)
(-21 30 -1.17854e-09)
(-14 22 1.17854e-09)
(-13 18 0)
(-20 28 0)
(-18 22 0)
(-13 16 1.17854e-09)
(-10 12 0)
(-17 20 0)
(-15 15 -1.17854e-09)
(-10 12 1.17854e-09)
(-8 8 0)
(-13 13 0)
(-12 10 1.17853e-09)
(-8 7 1.17852e-09)
(-5.99992 6 1.1784e-09)
(-10 9 0)
(-7.99989 6 0)
(-4.99961 5 1.17813e-09)
(-3.99242 4.00003 0.0693776)
(-6.99948 6 0)
(-3.99242 4 0.069379)
(-2.66544 2.99738 0.307351)
(-3.9164 3.99584 0.806508)
(3.916 3.99589 0.807233)
(4.93606 4.99426 0.836419)
(4.99454 3.99999 0.075897)
(6.99948 7.00001 -1.17813e-09)
(6.99061 4.99991 0.110556)
(8.99933 7 0)
(8.99985 7 0)
(11 10 -1.17853e-09)
(10.9998 8 0)
(14 11 0)
(12 10 0)
(15 15 -1.17854e-09)
(16 13 0)
(20 17 0)
(16 16 0)
(19 22 -1.17854e-09)
(22 19 0)
(26 26 0)
(20 23 0)
(22 31 -1.17854e-09)
(27 29 0)
(30 37 0)
(23 33 0)
(24 41 0)
(32 41 0)
(34 52 -1.17854e-09)
(24 44 0)
(22 53 0)
(34 56 0)
(32 69 0)
(21 55 0)
(16 63 -1.17854e-09)
(31 73 0)
(24 84 0)
(15 65 0)
(7 70 -2.35708e-09)
(21 87 0)
(11 94 0)
(4 70 0)
(-4 70 -1.17854e-09)
(6 95 0)
(-6 95 0)
(-7 70 0)
(-15 65 -1.17854e-09)
(-11 94 0)
(-21 87 0)
(-16 63 0)
(-21 55 -1.17854e-09)
(-24 84 0)
(-31 73 0)
(-22 53 0)
(-24 44 -1.17854e-09)
(-32 69 0)
(-34 56 0)
(-24 41 0)
(-23 33 0)
(-34 52 0)
(-32 41 -1.17854e-09)
(-22 31 0)
(-20 23 0)
(-30 37 0)
(-27 29 0)
(-19 22 0)
(-16 16 0)
(-26 26 0)
(-22 19 -1.17854e-09)
(-15 15 0)
(-12 10 0)
(-20 17 0)
(-16 13 1.17854e-09)
(-11 10 0)
(-8.99985 7 -1.1784e-09)
(-14 11 0)
(-10.9998 8 0)
(-6.99948 7 0)
(-4.99458 4.00001 0.0758933)
(-8.99939 7 0)
(-6.99085 4.99994 0.110615)
(-3.91639 3.99577 0.806557)
(-4.93641 4.99438 0.835789)
(4.93634 4.99441 0.835731)
(5.95631 4.99439 0.866376)
(6.99059 5.99999 0.110556)
(10.9992 8 0)
(8.98697 5.99999 0.145251)
(12.9991 8 0)
(11.9998 9 10.5784)
(16 11 0)
(14.9998 9 0)
(20 13 0)
(18 13 0)
(22 18 0)
(22 14 0)
(28 20 0)
(23 20 0)
(29 27 0)
(31 22 0)
(37 30 0)
(30 30 0)
(35 40 0)
(40 35 0)
(47 47 0)
(36 44 0)
(38 56 0)
(49 51 0)
(53 68 -1.17854e-09)
(38 60 1.17854e-09)
(37 75 0)
(55 75 0)
(54 94 0)
(35 79 1.17854e-09)
(28 92 0)
(53 102 0)
(43 122 10.3862)
(24 96 1.17854e-09)
(12 104 0)
(39 128 0)
(19 142 0)
(7 105 1.17854e-09)
(-7 105 0)
(11 144 0)
(-11 144 0)
(-12 104 1.17854e-09)
(-24 96 0)
(-19 142 0)
(-39 128 0)
(-28 92 1.17854e-09)
(-35 79 0)
(-43 122 10.3862)
(-53 102 0)
(-37 75 0)
(-38 60 0)
(-54 94 0)
(-55 75 0)
(-38 56 0)
(-36 44 0)
(-53 68 0)
(-49 51 -1.17854e-09)
(-35 40 1.17854e-09)
(-30 30 0)
(-47 47 0)
(-40 35 0)
(-29 27 1.17854e-09)
(-23 20 0)
(-37 30 0)
(-31 22 -1.17854e-09)
(-22 18 1.17854e-09)
(-18 13 0)
(-28 20 0)
(-22 14 1.17854e-09)
(-16 11 1.17853e-09)
(-11.9999 9 10.5784)
(-20 13 0)
(-14.9998 9 0)
(-10.9993 7.99999 1.17815e-09)
(-6.99088 5.99996 0.110625)
(-12.9991 8 0)
(-8.98705 6.00004 0.145274)
(-4.93657 4.99425 0.835927)
(-5.95659 4.99432 0.864402)
(7.20704 5.99305 1.36685)
(7.20731 4.99444 1.36506)
(8.98691 5.99997 0.145253)
(13.9989 8 -1.17812e-09)
(9.98889 4.99993 0.151753)
(16.9988 8.00001 0)
(15.9998 9 0)
(22 13 -1.17852e-09)
(18.9997 9 -1.1784e-09)
(27 12 0)
(23 14 0)
(30 21 -1.17854e-09)
(29 15 0)
(38 21 0)
(33 23 0)
(41 32 -1.17854e-09)
(41 24 0)
(52 34 0)
(44 36 0)
(51 49 -1.17854e-09)
(56 38 0)
(68 53 0)
(54 54 0)
(60 72 0)
(72 60 0)
(84 84 0)
(61 79 0)
(61 103 0)
(87 93 -2.35708e-09)
(92 126 0)
(60 110 0)
(50 135 -1.17854e-09)
(91 139 -1.17854e-09)
(79 181 0)
(45 142 0)
(22 158 -1.17854e-09)
(72 194 10.3862)
(38 224 0)
(14 161 0)
(-14 161 -1.17854e-09)
(23 230 10.579)
(-23 230 10.579)
(-22 158 0)
(-45 142 -1.17854e-09)
(-38 224 -1.17854e-09)
(-72 194 10.3862)
(-50 135 0)
(-60 110 -1.17854e-09)
(-79 181 -1.17854e-09)
(-91 139 0)
(-61 103 0)
(-61 79 -1.17854e-09)
(-92 126 0)
(-87 93 0)
(-60 72 0)
(-54 54 0)
(-84 84 0)
(-72 60 0)
(-51 49 0)
(-44 36 0)
(-68 53 -1.17854e-09)
(-56 38 0)
(-41 32 0)
(-33 23 0)
(-52 34 -1.17854e-09)
(-41 24 0)
(-30 21 0)
(-23 14 0)
(-38 21 -1.17854e-09)
(-29 15 0)
(-22 13 0)
(-15.9998 9 -1.1784e-09)
(-27 12 -1.17853e-09)
(-18.9997 9 0)
(-13.9989 8 0)
(-8.98697 6.00005 0.145255)
(-16.9989 8 -2.35625e-09)
(-9.98924 4.99987 0.151798)
(-7.20685 5.99321 1.36465)
(-7.20695 4.99444 1.36368)
(8.22693 4.99481 1.3932)
(9.54282 4.99409 2.02753)
(10.9831 6.00002 0.179918)
(17.9987 8 0)
(11.9852 4.00001 0.186475)
(20.9986 6 0)
(19.9997 9 0)
(28 13 0)
(22.9997 8 0)
(33 11 0)
(31 14 0)
(40 20 0)
(36 13 0)
(48 19 0)
(44 24 -1.17854e-09)
(56 34 0)
(53 22 0)
(69 32 0)
(60 38 -1.17854e-09)
(75 55 0)
(75 37 0)
(94 54 0)
(79 61 -1.17854e-09)
(93 87 0)
(103 61 0)
(126 92 0)
(97 97 0)
(105 135 0)
(135 105 0)
(161 161 0)
(105 150 0)
(95 201 0)
(167 186 10.579)
(170 285 10.579)
(86 217 10.579)
(46 257 10.3863)
(160 323 10.3863)
(89 420.999 20.9654)
(28 264 0)
(-28 264 0)
(55 440.999 10.3864)
(-55 440.999 10.579)
(-46 257 10.3863)
(-86 217 10.579)
(-90 420.999 20.9654)
(-160 323 10.3863)
(-95 201 0)
(-105 150 0)
(-170 285 10.579)
(-167 186 10.579)
(-105 135 -1.17854e-09)
(-97 97 0)
(-161 161 0)
(-135 105 0)
(-93 87 -2.35708e-09)
(-79 61 0)
(-126 92 0)
(-103 61 0)
(-75 55 0)
(-60 38 0)
(-94 54 0)
(-75 37 0)
(-56 34 0)
(-44 24 0)
(-69 32 0)
(-53 22 0)
(-40 20 0)
(-31 14 0)
(-48 19 0)
(-36 13 0)
(-28 13 0)
(-19.9997 9 0)
(-33 11 0)
(-22.9997 8 0)
(-17.9987 7.99999 0)
(-10.9833 5.99996 0.179982)
(-20.9986 6 0)
(-11.9856 4.00001 0.186488)
(-8.22721 4.99447 1.39259)
(-9.54328 4.99429 2.02719)
(9.47757 3.99577 1.89174)
(11.5188 2.9971 1.95114)
(12.9874 4.99999 0.193017)
(21.9985 7 0)
(13.974 3.00011 10.8137)
(23.9984 5.00001 0)
(24.9997 7 0)
(34 11 0)
(26.9997 5 0)
(38 9 0)
(38 12 0)
(50 19 0)
(42 9 0)
(57 14 0)
(55 21 -1.17854e-09)
(73 31 0)
(63 16 0)
(84 24 0)
(79 35 -1.17854e-09)
(102 53 0)
(92 28 0)
(122 43 10.3862)
(110 60 -1.17854e-09)
(139 91 0)
(135 50 0)
(181 79 -1.17854e-09)
(150 105 0)
(186 167 10.579)
(201 95 0)
(285 170 10.579)
(196 196 10.579)
(213 325.999 10.579)
(325.999 213 10.579)
(511.681 511.683 42.0982)
(204 381.995 20.9655)
(116 526.987 31.3522)
(551.111 733.252 73.2709)
(296.009 1350.55 125.308)
(73 553.986 31.3522)
(-73 552.986 31.3522)
(173 1417.69 135.859)
(-173 1417.69 135.859)
(-116 526.987 31.3522)
(-204 381.995 20.9655)
(-296.009 1350.55 125.308)
(-551.111 733.252 73.2709)
(-213 325.999 10.579)
(-196 196 10.579)
(-511.681 511.683 42.0982)
(-325.999 213 10.579)
(-186 167 10.579)
(-150 105 0)
(-285 170 10.579)
(-201 95 0)
(-139 91 -1.17854e-09)
(-110 60 0)
(-181 79 0)
(-135 50 -1.17854e-09)
(-102 53 0)
(-79 35 0)
(-122 43 10.3862)
(-92 28 0)
(-73 31 0)
(-55 21 0)
(-84 24 0)
(-63 16 -1.17854e-09)
(-50 19 0)
(-38 12 0)
(-57 14 0)
(-42 9 1.17853e-09)
(-34 11 0)
(-24.9996 7 0)
(-38 9 0)
(-26.9996 5 0)
(-21.9984 7 0)
(-12.9878 5.00005 0.19301)
(-23.9983 5 0)
(-13.9734 3.00005 10.8109)
(-9.47796 3.99579 1.89224)
(-11.5183 2.99681 1.95172)
(11.1228 2.99599 2.17308)
(11.123 0.998527 2.17073)
(13.9825 1.99997 0.221306)
(23.9984 3.99999 0)
(14.984 1.00001 0.22771)
(25.9982 2 0)
(27.9996 5 0)
(39 7 0)
(28.9996 3 0)
(41 3 0)
(43 8 0)
(59 13 0)
(46 4 0)
(63 6 0)
(65 15 -1.17854e-09)
(87 21 0)
(70 7 0)
(94 11 0)
(96 24 -1.17854e-09)
(128 39 0)
(104 12 0)
(142 19 0)
(142 45 -1.17854e-09)
(194 72 10.3862)
(158 22 0)
(224 38 -1.17854e-09)
(217 86 10.579)
(323 160 10.3863)
(257 46 10.3863)
(420.999 90 20.9654)
(381.995 204 20.9655)
(733.248 551.111 73.3203)
(526.987 116 31.3522)
(1350.55 296.009 125.308)
(872.002 872 114.239)
(407.008 1947.65 361.931)
(1947.65 407.008 361.931)
(701 701 1652.17)
(227 2023.76 372.333)
(-227 2023.76 372.333)
(366 741 1693.48)
(-366 741 1693.48)
(-407.008 1947.65 361.931)
(-872.002 872 114.239)
(-701 701 1652.17)
(-1947.65 407.008 361.931)
(-733.248 551.111 73.3203)
(-381.995 204 20.9655)
(-1350.55 296.009 125.308)
(-526.987 116 31.5446)
(-323 160 10.3863)
(-217 86 10.579)
(-421.999 90 20.9654)
(-257 46 10.3863)
(-194 72 10.3862)
(-142 45 0)
(-224 38 0)
(-158 22 -1.17854e-09)
(-128 39 0)
(-96 24 0)
(-142 19 0)
(-104 12 0)
(-87 21 0)
(-65 15 0)
(-94 11 0)
(-70 7 -2.35708e-09)
(-59 13 0)
(-43 8 0)
(-63 6 0)
(-46 4 1.17854e-09)
(-39 7 0)
(-27.9996 5 0)
(-41 3 0)
(-28.9996 3 0)
(-23.9983 4 0)
(-13.9812 2.00001 0.221109)
(-25.9983 2 0)
(-14.9842 0.999924 0.227724)
(-11.123 2.99577 2.17168)
(-11.1223 0.998785 2.17119)
(12.1434 0.000151193 2.20157)
(12.1436 -2.75851e-05 2.19907)
(15.9778 0.999885 0.255832)
(25.9982 1 0)
(15.9781 -0.999914 0.255837)
(25.9982 -1 0)
(28.9996 1 0)
(41 2 0)
(28.9996 -1 0)
(41 -2 0)
(46 3 0)
(64 4 0)
(46 -3 0)
(64 -4 0)
(70 4 -1.17854e-09)
(95 6 0)
(70 -4 0)
(95 -6 0)
(105 7 -1.17854e-09)
(144 11 0)
(105 -7 0)
(144 -11 0)
(161 14 -1.17854e-09)
(230 23 10.579)
(161 -14 0)
(230 -23 10.579)
(264 28 0)
(440.999 55 10.579)
(264 -28 0)
(440.999 -55 10.579)
(552.986 73 31.3522)
(1417.69 173 135.859)
(552.986 -73 31.3522)
(1417.69 -173 135.859)
(2023.76 227 372.333)
(741 366 1693.48)
(2023.76 -227 372.333)
(741 -366 1693.48)
(389 389 1724.48)
(-389 389 1724.48)
(389 -389 1724.48)
(-389 -389 1724.48)
(-741 366 1693.48)
(-2023.76 227 372.333)
(-741 -366 1693.48)
(-2023.76 -227 372.333)
(-1417.69 173 135.859)
(-552.986 72 31.3522)
(-1417.69 -173 135.859)
(-552.986 -72 31.3522)
(-440.999 55 10.579)
(-264 28 0)
(-440.999 -55 10.579)
(-264 -28 0)
(-230 23 10.579)
(-161 14 0)
(-230 -23 10.579)
(-161 -14 -1.17854e-09)
(-144 11 0)
(-105 7 0)
(-144 -11 0)
(-105 -7 0)
(-95 6 0)
(-70 4 0)
(-95 -6 0)
(-70 -4 -1.17854e-09)
(-64 4 0)
(-46 3 0)
(-64 -4 0)
(-46 -3 2.35708e-09)
(-41 2 0)
(-28.9996 1 0)
(-41 -2 0)
(-28.9996 -1 0)
(-25.9983 0.999999 0)
(-15.9784 0.999998 0.255934)
(-25.9982 -1 0)
(-15.9779 -0.999902 0.255894)
(-12.1434 -2.54682e-05 2.20047)
(-12.1441 4.73282e-05 2.19946)
(11.1227 -0.998292 2.17323)
(11.1235 -2.99583 2.17205)
(14.984 -0.999933 0.227669)
(25.9982 -2 0)
(13.9813 -2.00001 0.221122)
(23.9983 -4 0)
(28.9996 -3 0)
(41 -3 0)
(27.9996 -5 0)
(39 -7 0)
(46 -4 0)
(63 -6 0)
(43 -8 0)
(59 -13 0)
(70 -7 -2.35708e-09)
(94 -11 0)
(65 -15 0)
(87 -21 0)
(104 -12 -1.17854e-09)
(142 -19 0)
(96 -24 0)
(128 -39 0)
(158 -22 -1.17854e-09)
(224 -38 0)
(142 -45 0)
(194 -72 10.3862)
(257 -46 10.3863)
(420.999 -90 20.9654)
(217 -86 10.579)
(323 -160 10.3863)
(526.987 -116 31.3522)
(1350.55 -296.009 125.307)
(381.995 -204 20.9655)
(733.252 -551.111 73.2709)
(1947.65 -407.008 361.931)
(701 -701 1652.17)
(872 -872.002 114.239)
(407.008 -1947.65 361.931)
(366 -741 1693.48)
(-366 -741 1693.48)
(227 -2023.76 372.333)
(-227 -2023.76 372.333)
(-701 -701 1652.17)
(-1947.65 -407.008 361.931)
(-407.008 -1947.65 361.931)
(-872.002 -872 114.239)
(-1350.55 -296.009 125.307)
(-526.987 -116 31.5446)
(-733.248 -551.111 73.3203)
(-381.995 -204 20.9655)
(-421.999 -90 20.9654)
(-257 -46 10.3863)
(-323 -160 10.3863)
(-217 -86 10.579)
(-224 -38 -1.17854e-09)
(-158 -22 0)
(-194 -72 10.3862)
(-142 -45 -1.17854e-09)
(-142 -19 0)
(-104 -12 0)
(-128 -39 0)
(-96 -24 0)
(-94 -11 0)
(-70 -7 0)
(-87 -21 0)
(-65 -15 -1.17854e-09)
(-63 -6 0)
(-46 -4 0)
(-59 -13 0)
(-43 -8 1.17854e-09)
(-41 -3 0)
(-28.9996 -3 0)
(-39 -7 0)
(-27.9996 -5 0)
(-25.9983 -2 0)
(-14.9841 -0.999986 0.227749)
(-23.9984 -4 0)
(-13.9822 -1.99998 0.221243)
(-11.1226 -0.998379 2.17118)
(-11.1225 -2.99591 2.17169)
(11.5176 -2.99689 1.95156)
(9.47719 -3.99592 1.89278)
(13.9735 -3.00008 10.8108)
(23.9983 -5 0)
(12.988 -5.0001 0.193038)
(21.9985 -7.00001 0)
(26.9996 -5 0)
(38 -9 0)
(24.9997 -7 0)
(34 -11 0)
(42 -9 0)
(57 -14 0)
(38 -12 0)
(50 -19 0)
(63 -16 -1.17854e-09)
(84 -24 0)
(55 -21 0)
(73 -31 0)
(92 -28 -1.17854e-09)
(122 -43 10.3862)
(79 -35 0)
(102 -53 0)
(135 -50 -1.17854e-09)
(181 -79 0)
(110 -60 0)
(139 -91 -1.17854e-09)
(201 -95 0)
(285 -170 10.579)
(150 -105 0)
(186 -167 10.579)
(325.999 -213 10.579)
(511.683 -511.681 42.0982)
(196 -196 10.579)
(213 -325.999 10.579)
(551.111 -733.248 73.3203)
(296.009 -1350.55 125.307)
(204 -381.995 20.9655)
(116 -526.987 31.3522)
(173 -1417.69 135.859)
(-173 -1417.69 135.859)
(73 -552.986 31.3522)
(-73 -552.986 31.3522)
(-296.009 -1350.55 125.307)
(-551.111 -733.252 73.2709)
(-116 -526.987 31.3522)
(-204 -381.995 20.9655)
(-511.681 -511.683 42.0982)
(-325.999 -213 10.579)
(-213 -325.999 10.579)
(-196 -196 10.579)
(-285 -170 10.579)
(-201 -95 0)
(-186 -167 10.579)
(-150 -105 0)
(-181 -79 -1.17854e-09)
(-135 -50 0)
(-139 -91 0)
(-110 -60 -1.17854e-09)
(-122 -43 10.3862)
(-92 -28 0)
(-102 -53 0)
(-79 -35 0)
(-84 -24 0)
(-63 -16 0)
(-73 -31 0)
(-55 -21 -1.17854e-09)
(-57 -14 0)
(-42 -9 0)
(-50 -19 0)
(-38 -12 1.17853e-09)
(-38 -9 0)
(-26.9996 -5 0)
(-34 -11 0)
(-24.9996 -7 0)
(-23.9983 -5.00001 0)
(-13.9735 -3.00015 10.8123)
(-21.9984 -7 0)
(-12.9876 -5.0001 0.192974)
(-11.5187 -2.99667 1.95273)
(-9.47704 -3.99583 1.8915)
(9.54354 -4.99443 2.03094)
(8.22737 -4.99416 1.39367)
(11.9859 -3.99997 0.186558)
(20.9987 -6 0)
(10.9836 -5.99992 0.180057)
(17.9988 -8 0)
(22.9997 -8 1.17841e-09)
(33 -11 0)
(19.9998 -9 0)
(28 -13 0)
(36 -13 0)
(48 -19 0)
(31 -14 0)
(40 -20 0)
(53 -22 0)
(69 -32 0)
(44 -24 0)
(56 -34 0)
(75 -37 0)
(94 -54 0)
(60 -38 0)
(75 -55 0)
(103 -61 0)
(126 -92 0)
(79 -61 0)
(93 -87 -2.35708e-09)
(135 -105 1.17854e-09)
(161 -161 0)
(97 -97 0)
(105 -135 0)
(167 -186 10.579)
(170 -285 10.579)
(105 -150 0)
(95 -201 0)
(160 -323 10.3863)
(90 -420.999 20.9654)
(86 -217 10.579)
(46 -257 10.3863)
(55 -440.999 10.579)
(-55 -440.999 10.579)
(28 -264 0)
(-28 -264 0)
(-90 -420.999 20.9654)
(-160 -323 10.3863)
(-46 -257 10.3863)
(-86 -217 10.579)
(-170 -285 10.579)
(-167 -186 10.579)
(-95 -201 0)
(-105 -150 0)
(-161 -161 0)
(-135 -105 0)
(-105 -135 0)
(-97 -97 0)
(-126 -92 0)
(-103 -61 0)
(-93 -87 0)
(-79 -61 -1.17854e-09)
(-94 -54 1.17854e-09)
(-75 -37 0)
(-75 -55 0)
(-60 -38 0)
(-69 -32 1.17854e-09)
(-53 -22 0)
(-56 -34 0)
(-44 -24 -1.17854e-09)
(-48 -19 1.17854e-09)
(-36 -13 0)
(-40 -20 0)
(-31 -14 1.17854e-09)
(-33 -11 2.35703e-09)
(-22.9997 -8 0)
(-28 -13 0)
(-19.9997 -9 0)
(-20.9986 -6 1.17812e-09)
(-11.9852 -4.00002 0.186458)
(-17.9987 -8 0)
(-10.9833 -5.99994 0.180007)
(-9.54326 -4.99401 2.02721)
(-8.22729 -4.9944 1.39293)
(7.20769 -4.99453 1.36398)
(7.20661 -5.99299 1.36356)
(9.9892 -4.99985 0.151833)
(16.9989 -8.00001 -2.35628e-09)
(8.98711 -6.00005 0.145278)
(13.999 -8 0)
(18.9997 -9 0)
(27 -12 -1.17853e-09)
(15.9998 -9 -1.1784e-09)
(22 -13 0)
(29 -15 0)
(38 -21 -1.17854e-09)
(23 -14 0)
(30 -21 0)
(41 -24 0)
(52 -34 -1.17854e-09)
(33 -23 0)
(41 -32 0)
(56 -38 0)
(68 -53 -1.17854e-09)
(44 -36 0)
(51 -49 0)
(72 -60 0)
(84 -84 0)
(54 -54 0)
(60 -72 0)
(87 -93 0)
(92 -126 0)
(61 -79 -1.17854e-09)
(61 -103 0)
(91 -139 0)
(79 -181 -1.17854e-09)
(60 -110 -1.17854e-09)
(50 -135 0)
(72 -194 10.3862)
(38 -224 -1.17854e-09)
(45 -142 -1.17854e-09)
(22 -158 0)
(23 -230 10.579)
(-23 -230 10.579)
(14 -161 -1.17854e-09)
(-14 -161 0)
(-38 -224 0)
(-72 -194 10.3862)
(-22 -158 -1.17854e-09)
(-45 -142 0)
(-79 -181 0)
(-91 -139 -1.17854e-09)
(-50 -135 -1.17854e-09)
(-60 -110 0)
(-92 -126 0)
(-87 -93 -2.35708e-09)
(-61 -103 0)
(-61 -79 0)
(-84 -84 0)
(-72 -60 0)
(-60 -72 0)
(-54 -54 0)
(-68 -53 0)
(-56 -38 0)
(-51 -49 -1.17854e-09)
(-44 -36 0)
(-52 -34 0)
(-41 -24 0)
(-41 -32 -1.17854e-09)
(-33 -23 0)
(-38 -21 0)
(-29 -15 0)
(-30 -21 -1.17854e-09)
(-23 -14 0)
(-27 -12 0)
(-18.9997 -9 -1.1784e-09)
(-22 -13 -1.17853e-09)
(-15.9998 -9 0)
(-16.9989 -8 0)
(-9.98925 -4.99985 0.151824)
(-13.999 -8 -1.17812e-09)
(-8.98706 -6 0.145272)
(-7.20724 -4.99437 1.36394)
(-7.20709 -5.99296 1.36354)
(5.95653 -4.99392 0.865857)
(4.93626 -4.99416 0.835337)
(8.98691 -5.99994 0.145289)
(12.9991 -8 0)
(6.99074 -5.99998 0.110583)
(10.9992 -8 0)
(14.9998 -9 0)
(20 -13 0)
(11.9998 -9 10.5784)
(16 -11 0)
(22 -14 0)
(28 -20 0)
(18 -13 0)
(22 -18 0)
(31 -22 -1.17854e-09)
(37 -30 0)
(23 -20 0)
(29 -27 0)
(40 -35 -1.17854e-09)
(47 -47 0)
(30 -30 0)
(35 -40 0)
(49 -51 -1.17854e-09)
(53 -68 0)
(36 -44 0)
(38 -56 0)
(55 -75 0)
(54 -94 0)
(38 -60 0)
(37 -75 0)
(53 -102 0)
(43 -122 10.3862)
(35 -79 0)
(28 -92 0)
(39 -128 0)
(19 -142 0)
(24 -96 0)
(12 -104 0)
(11 -144 0)
(-11 -144 0)
(7 -105 0)
(-7 -105 0)
(-19 -142 0)
(-39 -128 0)
(-12 -104 0)
(-24 -96 0)
(-43 -122 10.3862)
(-53 -102 0)
(-28 -92 0)
(-35 -79 0)
(-54 -94 -1.17854e-09)
(-55 -75 0)
(-37 -75 0)
(-38 -60 0)
(-53 -68 -1.17854e-09)
(-49 -51 0)
(-38 -56 0)
(-36 -44 0)
(-47 -47 0)
(-40 -35 0)
(-35 -40 0)
(-30 -30 0)
(-37 -30 0)
(-31 -22 0)
(-29 -27 0)
(-23 -20 0)
(-28 -20 0)
(-22 -14 0)
(-22 -18 0)
(-18 -13 0)
(-20 -13 0)
(-14.9998 -9 0)
(-16 -11 0)
(-11.9998 -9 10.5784)
(-12.9991 -8 0)
(-8.98709 -5.99999 0.145271)
(-10.9992 -8 0)
(-6.99079 -6.00004 0.110585)
(-5.95641 -4.9943 0.864372)
(-4.93611 -4.99389 0.835421)
(4.93636 -4.9942 0.836734)
(3.91599 -3.99593 0.806526)
(6.99073 -4.99995 0.110571)
(8.99935 -7 0)
(4.99457 -4.00007 0.0758913)
(6.99949 -7 0)
(10.9998 -8 0)
(14 -11 0)
(8.99986 -7 -1.1784e-09)
(11 -10 0)
(16 -13 0)
(20 -17 0)
(12 -10 0)
(15 -15 0)
(22 -19 -1.17854e-09)
(26 -26 0)
(16 -16 0)
(19 -22 0)
(27 -29 -1.17854e-09)
(30 -37 0)
(20 -23 0)
(22 -31 0)
(32 -41 -1.17854e-09)
(34 -52 0)
(23 -33 0)
(24 -41 0)
(34 -56 0)
(32 -69 0)
(24 -44 -1.17854e-09)
(22 -53 0)
(31 -73 0)
(24 -84 0)
(21 -55 -1.17854e-09)
(16 -63 0)
(21 -87 0)
(11 -94 0)
(15 -65 -1.17854e-09)
(7 -70 0)
(6 -95 0)
(-6 -95 0)
(4 -70 -1.17854e-09)
(-4 -70 0)
(-11 -94 0)
(-21 -87 0)
(-7 -70 -2.35708e-09)
(-15 -65 0)
(-24 -84 0)
(-31 -73 0)
(-16 -63 -1.17854e-09)
(-21 -55 0)
(-32 -69 -1.17854e-09)
(-34 -56 0)
(-22 -53 0)
(-24 -44 0)
(-34 -52 -1.17854e-09)
(-32 -41 0)
(-24 -41 0)
(-23 -33 0)
(-30 -37 0)
(-27 -29 0)