/*--------------------------------*- C++ -*----------------------------------*\
| =========                 |                                                 |
| \\      /  F ield         | OpenFOAM: The Open Source CFD Toolbox           |
|  \\    /   O peration     | Version:  2412                                  |
|   \\  /    A nd           | Website:  www.openfoam.com                      |
|    \\/     M anipulation  |                                                 |
\*---------------------------------------------------------------------------*/
FoamFile
{
    version     2.0;
    format      ascii;
    arch        "LSB;label=32;scalar=64";
    class       volVectorField;
    location    "0.1";
    object      flux;
}
// * * * * * * * * * * * * * * * * * * * * * * * * * * * * * * * * * * * * * //

dimensions      [0 1 -1 1 0 0 0];

internalField   nonuniform List<vector> 
5712
(
(-0.681605 0.856285 1.0282)
(-0.994054 0.46249 2.92672)
(-1.41454 1.3475 0.81061)
(-2.71529 0.965812 2.9082)
(-2.11784 1.26067 0.509413)
(-4.89784 1.24776 2.77381)
(-1.35208 1.56077 0.595237)
(-4.73196 2.44239 3.65813)
(-1.42226 2.51291 0.848843)
(-3.76038 3.93222 4.48777)
(-1.75668 1.45589 0.975526)
(-3.41418 1.49115 3.6714)
(-1.31361 0.881742 1.10039)
(-2.15 0.696566 3.5205)
(-0.723094 0.651604 1.15444)
(-0.891512 0.378209 3.30693)
(-1.12074 1.07572 0.52432)
(-1.19416 0.645026 0.270496)
(-1.72899 1.07615 1.41441)
(-1.51282 0.748813 0.658665)
(-0.82864 1.04307 0.465153)
(-1.00381 0.728912 0.194666)
(-1.47715 1.52911 1.35141)
(-1.27859 0.907796 0.513305)
(-0.549368 0.540201 0.90568)
(-0.465851 0.523986 0.782014)
(-0.886804 0.281192 2.53004)
(-0.74237 0.277653 2.16997)
(-1.18971 0.657263 0.644677)
(-0.907298 0.562676 0.588697)
(-2.63754 0.338721 2.34195)
(-2.15263 0.305479 2.06973)
(-1.79276 1.71153 1.19155)
(-1.57987 1.56207 0.518182)
(-2.04958 1.1387 0.812603)
(-1.84966 0.641739 0.34217)
(-0.45375 1.09808 0.554847)
(-0.533509 0.900536 1.2395)
(-4.08569 0.71074 3.92463)
(-4.92554 0.693083 1.18252)
(-2.20862 0.703616 1.21576)
(-2.92171 0.740719 0.548965)
(-4.5132 2.31716 4.15973)
(-5.48874 2.61452 1.29388)
(-1.98605 1.12434 0.992229)
(-2.53213 1.30561 0.458425)
(-3.46386 1.69963 3.07219)
(-4.46959 1.33985 1.02043)
(-2.90821 1.22639 1.45995)
(-3.93447 0.680565 0.685939)
(-2.04783 0.541694 2.94547)
(-2.38214 0.505546 0.905832)
(-0.399675 1.0225 1.08313)
(-0.125523 1.84055 0.570956)
(-0.635636 0.495544 1.75782)
(-0.236022 0.814291 0.745449)
(-0.85389 1.17598 0.944962)
(-0.383338 2.19998 0.552603)
(-1.81832 0.731842 1.69389)
(-0.724464 1.23647 0.682673)
(-0.828556 1.00626 1.02433)
(-0.30063 2.36933 0.657444)
(-1.01327 0.74937 0.975593)
(-0.315262 1.68009 0.436706)
(-2.18327 0.152609 1.66015)
(-0.714185 1.09454 0.661835)
(-2.85739 -0.0414177 0.649892)
(-1.01474 0.757178 0.268301)
(-1.463 0.490628 0.840622)
(-0.792008 0.506695 0.521352)
(-1.4543 0.615468 0.58157)
(-0.85469 0.561621 0.392113)
(-1.09755 0.461473 0.617049)
(-0.620184 0.328868 0.420411)
(-1.07113 0.596326 0.414715)
(-0.644609 0.36818 0.287353)
(-1.54203 0.928275 0.719188)
(-0.993757 1.06411 0.520689)
(-1.50598 0.859645 0.913255)
(-0.896493 0.96424 0.650484)
(-1.59013 0.653536 0.462959)
(-0.924837 0.596792 0.30174)
(-1.76772 0.635242 0.262058)
(-0.979809 0.610482 0.187698)
(-1.22469 0.681909 0.340528)
(-0.697201 0.395418 0.224546)
(-1.38979 0.725218 0.189677)
(-0.739839 0.409509 0.143966)
(-1.70392 0.867887 0.565019)
(-1.08754 1.11404 0.379706)
(-1.89837 0.744346 0.325423)
(-1.15662 1.12963 0.20909)
(-2.03385 1.84319 0.78755)
(-1.0477 2.773 0.524923)
(-1.26128 2.11595 0.757701)
(-1.98239 4.3372 1.11163)
(-1.98095 1.86783 1.01982)
(-1.15366 3.18748 0.94804)
(-1.15724 2.03149 1.03631)
(-1.97678 4.7465 1.83941)
(-2.18017 1.76798 0.580048)
(-1.00843 2.45427 0.291689)
(-1.36078 2.14249 0.497469)
(-2.00003 4.12516 0.671274)
(-2.34137 1.70581 0.326495)
(-1.03814 2.24247 0.137933)
(-1.4422 2.16058 0.232571)
(-2.0371 4.0315 0.256677)
(-0.335558 0.919934 1.08095)
(-0.344214 1.07983 1.8775)
(-0.108764 2.53617 0.792422)
(-0.274534 3.88189 2.42111)
(-0.929598 0.981269 1.08883)
(-1.00646 1.02921 1.74656)
(-0.440458 2.82635 0.901852)
(-0.936953 4.0358 2.48489)
(-1.31514 0.987702 1.22814)
(-1.45053 0.932396 1.52763)
(-0.817041 3.08014 1.15901)
(-1.58555 4.09043 2.38327)
(-0.544654 0.744399 0.61246)
(-0.17896 0.385037 0.443625)
(-1.03542 1.19662 0.733611)
(-1.89415 1.81762 0.961112)
(-1.37263 3.7903 1.41388)
(-0.0769315 0.36532 0.224895)
(-0.200873 0.622038 0.451586)
(-0.638235 1.09207 0.903663)
(-1.72791 1.46941 1.49092)
(-1.87253 4.32764 3.0188)
(-0.29107 0.308721 0.317711)
(-0.576322 0.507241 0.408162)
(-0.957529 0.833799 0.566161)
(-1.39233 1.72993 1.04237)
(-2.59184 5.37343 2.31469)
(-0.247379 0.103905 1.90342)
(-0.140089 0.0822085 1.11459)
(-0.172937 0.1274 2.41284)
(-0.0965576 0.525659 1.30952)
(-0.690904 0.164782 1.68931)
(-0.363718 0.131757 1.02506)
(-0.572795 0.221393 2.36363)
(-0.301612 0.572221 1.28267)
(-0.960707 0.238498 1.35315)
(-0.508744 0.128166 0.865692)
(-0.906414 0.350486 2.144)
(-0.477865 0.635382 1.21065)
(-0.13223 0.250527 0.198652)
(-0.0830606 0.138886 0.114234)
(-0.307334 0.417158 0.366425)
(-0.200133 0.223366 0.226974)
(-0.69099 0.663916 0.64482)
(-0.403956 0.332919 0.423823)
(-1.19101 0.690031 1.09778)
(-0.668261 0.342617 0.69372)
(-1.36127 0.516341 1.97264)
(-0.761421 0.782616 1.13606)
(-0.209769 0.208471 0.151339)
(-0.10768 0.101673 0.094869)
(-0.426384 0.344789 0.288267)
(-0.204274 0.176848 0.1968)
(-0.689438 0.54957 0.510349)
(-0.331098 0.281061 0.356227)
(-1.02032 0.803694 0.910045)
(-0.4828 0.407287 0.617935)
(-1.74794 0.609112 1.76808)
(-0.767047 0.805463 1.06405)
(-0.419732 0.340163 0.303245)
(-0.124074 0.212785 0.114691)
(-0.409422 0.330084 0.230614)
(-0.16095 0.214611 0.105107)
(-0.260704 0.201153 0.20301)
(-0.112569 0.107777 0.0899206)
(-0.283682 0.200215 0.157292)
(-0.129346 0.111056 0.0774445)
(-0.618681 0.530375 0.343381)
(-0.268871 0.339191 0.173332)
(-0.663175 0.576752 0.461081)
(-0.206427 0.353747 0.195475)
(-0.425247 0.321462 0.130253)
(-0.210286 0.212436 0.0759516)
(-0.464254 0.325465 0.0472819)
(-0.233577 0.217329 0.02633)
(-0.309393 0.201785 0.101065)
(-0.157907 0.114484 0.0555449)
(-0.343698 0.205795 0.0357032)
(-0.17726 0.11838 0.0191731)
(-0.631692 0.482846 0.182007)
(-0.341718 0.313807 0.117496)
(-0.677731 0.498494 0.0653469)
(-0.374751 0.319877 0.0408894)
(-1.16452 0.789231 0.515923)
(-0.455203 0.509748 0.238873)
(-2.05747 0.542807 0.84234)
(-0.626932 0.663196 0.299901)
(-1.11717 0.856217 0.770781)
(-0.339096 0.533071 0.329631)
(-1.93442 0.580109 1.31949)
(-0.491051 0.710778 0.503121)
(-1.15518 0.716501 0.292078)
(-0.515799 0.470633 0.151951)
(-2.08047 0.520188 0.471945)
(-0.644901 0.637697 0.164013)
(-1.13681 0.693476 0.184499)
(-0.567866 0.456325 0.102114)
(-1.98046 0.491954 0.227423)
(-0.722911 0.608158 0.10715)
(-0.06657 0.0419687 0.541039)
(-0.0253653 0.0132324 0.187755)
(-0.00702546 0.00353372 0.0406888)
(-0.0448471 0.0172046 0.608416)
(-0.018508 0.0050537 0.205861)
(-0.00589896 0.00195031 0.0457769)
(-0.165458 0.0732372 0.500483)
(-0.0513551 0.0158876 0.170273)
(-0.0111063 0.00409862 0.0374755)
(-0.134317 0.0445971 0.591087)
(-0.0412459 0.0161954 0.198207)
(-0.00862038 0.00321232 0.0424389)
(-0.196608 0.0609084 0.415103)
(-0.050269 0.015944 0.132103)
(-0.0126244 0.0048409 0.0264576)
(-0.214349 0.0879455 0.556989)
(-0.0540905 0.0248809 0.181705)
(-0.0129633 0.00597541 0.037079)
(-0.0318882 0.0503836 0.0415428)
(-0.00611283 0.0118665 0.0121531)
(-0.00117469 0.00257118 0.0022342)
(-0.0918378 0.0779571 0.0994352)
(-0.0176278 0.0191082 0.0321412)
(-0.00286253 0.00430718 0.00604296)
(-0.157744 0.0950333 0.198257)
(-0.0323458 0.0232168 0.0632264)
(-0.00516971 0.00553984 0.0120151)
(-0.259317 0.117018 0.324983)
(-0.0593191 0.0315086 0.100056)
(-0.0115132 0.00761803 0.0191704)
(-0.339704 0.151466 0.510849)
(-0.0769287 0.0316719 0.15718)
(-0.0135391 0.0057758 0.0307223)
(-0.0465348 0.0362277 0.0418653)
(-0.0102457 0.00887633 0.0109731)
(-0.00196186 0.00197749 0.00210282)
(-0.0741711 0.0629872 0.0902254)
(-0.0170589 0.0148693 0.0281419)
(-0.00290301 0.00324249 0.0057024)
(-0.124912 0.0894957 0.16447)
(-0.0277386 0.0191261 0.0509838)
(-0.00449749 0.00392949 0.0100131)
(-0.190116 0.117239 0.282189)
(-0.0428596 0.0265692 0.08331)
(-0.00716191 0.00565806 0.0157764)
(-0.329785 0.13508 0.45738)
(-0.0681618 0.0257212 0.126177)
(-0.0100782 0.00427715 0.0237225)
(-0.321983 0.760844 0.0561466)
(-0.417832 0.601341 0.0474469)
(-0.342484 1.03798 0.13861)
(-0.415109 0.705774 0.120784)
(-0.446908 1.03511 0.213079)
(-0.662098 0.755974 0.116468)
(-0.504703 1.62189 0.464268)
(-0.737695 0.966445 0.270025)
(0.0325535 0.297032 0.0225942)
(0.00529295 0.188463 0.0114004)
(0.0512251 0.339937 0.0241796)
(0.0147596 0.197719 0.0122678)
(0.00168416 0.4428 0.0267156)
(-0.0294175 0.238962 0.0174109)
(0.035391 0.520182 0.0357249)
(0.000111179 0.250161 0.0245706)
(-0.00212968 0.5734 0.0865844)
(-0.0358674 0.483352 0.0448622)
(-0.205006 0.427444 0.0915457)
(-0.231793 0.392198 0.0547832)
(-0.0553119 0.360945 0.0334402)
(-0.0432785 0.396694 0.0654115)
(-0.427189 0.864554 0.179195)
(-0.465661 1.01507 0.0587167)
(-0.880405 1.21702 0.440906)
(-1.07582 1.45146 0.173967)
(-0.00280292 0.613459 -0.0731672)
(0.123658 0.716236 -0.0146129)
(-0.201987 0.480851 0.0473867)
(-0.173913 0.548794 0.0259628)
(-0.0992264 0.44495 0.00944431)
(-0.0528704 0.476694 -0.00493406)
(-0.00373817 0.0996405 0.0439011)
(-0.00331616 0.0323499 0.00828345)
(-0.000725941 0.103948 0.0122003)
(-0.00315537 0.0382142 0.00293077)
(-0.0243935 0.115779 0.0506825)
(-0.00429647 0.0354269 0.00903732)
(-0.00917675 0.119748 0.0173253)
(-0.00173531 0.0409268 0.00390967)
(-0.0917304 0.123633 0.0545187)
(-0.0133621 0.0342281 0.00940494)
(-0.0842996 0.138467 0.0298043)
(-0.0147801 0.0439746 0.00498032)
(-0.117998 0.159775 0.0313684)
(-0.0186456 0.0509608 0.00422282)
(-0.146357 0.168876 0.0113067)
(-0.0231088 0.054249 0.00124568)
(-0.280437 0.325873 0.20125)
(-0.185034 0.159991 0.128705)
(-0.263194 0.390953 0.107853)
(-0.189416 0.183439 0.0845963)
(-0.586914 0.458459 0.382406)
(-0.388839 0.270293 0.266457)
(-0.582614 0.574329 0.237451)
(-0.395064 0.305816 0.17415)
(-0.135533 0.274171 0.051116)
(-0.0861407 0.0956019 0.0388786)
(-0.131596 0.236437 0.0996971)
(-0.0778946 0.0822506 0.0557721)
(-0.284429 0.460835 0.0838706)
(-0.198042 0.201143 0.0633175)
(-0.331488 0.521613 0.0448338)
(-0.209102 0.212012 0.0401038)
(-0.647745 0.685812 0.189139)
(-0.416334 0.334765 0.132691)
(-0.741487 0.760272 0.105344)
(-0.440106 0.352019 0.085478)
(-0.139175 0.303608 0.0332284)
(-0.0901689 0.104535 0.028287)
(-0.148976 0.330316 0.0149754)
(-0.0937653 0.109814 0.0177922)
(-0.00479953 0.0919945 0.0211041)
(-0.00135249 0.0285259 0.00417387)
(-0.032977 0.0432288 0.0156962)
(-0.00563964 0.0137508 0.00313349)
(-0.00617817 0.0720096 0.0358179)
(-0.00087884 0.0222056 0.00618659)
(-0.0282359 0.0362106 0.0208063)
(-0.0045955 0.0112882 0.00412342)
(-0.00866249 0.103841 0.012568)
(-0.00140364 0.0330561 0.00249925)
(-0.0356489 0.0473889 0.0114779)
(-0.0063101 0.0151667 0.00200612)
(-0.0141042 0.11139 0.00376063)
(-0.00178142 0.0361798 0.000536955)
(-0.0369 0.049525 0.00713961)
(-0.00668675 0.0157893 0.000946546)
(0.00163148 0.00735862 0.04106)
(0.000911035 0.00206268 0.0123845)
(-0.00088225 0.00956043 0.00822205)
(-0.000181793 0.00290339 0.00401381)
(0.00406698 0.00801841 0.0470512)
(0.00297524 0.00251325 0.0147288)
(-0.00130796 0.010309 0.00833364)
(-0.000180351 0.00350815 0.00414712)
(-0.00531249 0.00878179 0.0544777)
(-0.00231803 0.00372546 0.0180488)
(-0.00455417 0.0103928 0.00846322)
(-0.0022623 0.00452437 0.00426991)
(0.0304707 0.0725317 0.176736)
(0.0136792 0.183861 0.294513)
(0.0112877 0.0386477 0.0929664)
(0.00609593 0.0267854 0.0355956)
(0.000580784 0.0107816 0.00595572)
(0.0661796 0.169751 0.132775)
(0.0641094 0.0688034 0.0898863)
(0.0157665 0.0239565 0.0524221)
(0.0102633 0.0170597 0.0244331)
(0.000917981 0.0060511 0.00488928)
(-0.159454 0.170975 0.202284)
(-0.0842291 0.0878102 0.102091)
(-0.0399539 0.0466502 0.0451331)
(-0.0190782 0.0221342 0.0173431)
(-0.00344722 0.0075563 0.00326775)
(0.000380252 0.000566605 0.00383983)
(0.000156393 0.000187082 0.0011667)
(-4.74925e-05 0.000944981 0.0016622)
(-5.51742e-08 0.000375032 0.000618198)
(0.00103649 0.000822472 0.00507819)
(0.000508759 0.000259883 0.00164503)
(-0.000151244 0.0013398 0.00187681)
(-7.91852e-06 0.000540628 0.000734327)
(0.000400119 0.00144848 0.00732244)
(0.00049289 0.00048427 0.00267046)
(-0.000725965 0.00196871 0.00219441)
(-0.000181156 0.000841505 0.000919229)
(-0.00149301 0.124461 0.104941)
(-0.00737072 0.0612879 0.0518171)
(0.0212838 0.0468754 0.0548381)
(0.00532958 0.0197548 0.0229592)
(0.00347377 0.0173999 0.0217451)
(7.0971e-05 0.00684842 0.00979522)
(0.00259876 0.00945724 0.00965049)
(0.000653829 0.00365497 0.00433986)
(0.000138841 0.00339599 0.00227076)
(8.61942e-05 0.00149985 0.00113122)
(-0.0726197 0.106562 0.0735062)
(-0.0299424 0.045136 0.042227)
(-0.0206533 0.0509816 0.038357)
(-0.005485 0.0192846 0.0208767)
(-0.00740242 0.0255479 0.0181534)
(-0.00158508 0.00938643 0.00949254)
(-0.00313655 0.0115246 0.00783917)
(-0.000472785 0.00425347 0.0040184)
(-1.16062e-05 0.00442007 0.00169643)
(0.000192401 0.00205112 0.00113766)
(-0.0506801 0.0552518 0.0460793)
(-0.0196588 0.0165908 0.0174247)
(-0.0772322 0.061072 0.0314588)
(-0.0248186 0.0166097 0.0111786)
(-0.121679 0.100538 0.104052)
(-0.0438257 0.0338292 0.0354392)
(-0.157523 0.109502 0.0797068)
(-0.0521099 0.0353115 0.026097)
(-0.0335152 0.033094 0.0122046)
(-0.0102857 0.00974526 0.0045313)
(-0.0192087 0.0306724 0.0183817)
(-0.00816358 0.009575 0.00767855)
(-0.0875643 0.0685297 0.0286537)
(-0.0246233 0.0164256 0.00908308)
(-0.0977707 0.0727729 0.010433)
(-0.0274793 0.0174848 0.00323744)
(-0.180178 0.122209 0.0619111)
(-0.0553556 0.0380947 0.0195454)
(-0.202833 0.127455 0.0218279)
(-0.061824 0.0399959 0.00694492)
(-0.0384115 0.0351879 0.0122509)
(-0.00938729 0.00968611 0.00362629)
(-0.0425249 0.0373525 0.00453401)
(-0.0102124 0.0105224 0.00127629)
(-0.0119597 0.0147533 0.00356127)
(-0.00362967 0.00474938 0.00177809)
(-0.00158004 0.00533748 0.000856406)
(-0.00110105 0.00262796 0.000653626)
(-0.00698291 0.0142029 0.00611784)
(-0.00307431 0.00467106 0.00300225)
(-0.000741141 0.00549416 0.00101742)
(-0.000839682 0.00248248 0.000837787)
(-0.0127483 0.0151233 0.00402767)
(-0.00320749 0.00478517 0.00126107)
(-0.00199115 0.00511181 0.000569213)
(-0.00121071 0.00274676 0.000451296)
(-0.0152553 0.0164448 0.00139374)
(-0.00331848 0.00519988 0.000289409)
(-0.00286634 0.00566652 -0.000603428)
(-0.000974576 0.00283413 -0.000143119)
(3.21053e-05 5.29415e-05 0.000342209)
(4.68428e-06 1.06833e-05 7.32463e-05)
(1.11154e-06 1.87852e-06 1.14394e-05)
(-4.56261e-06 0.00014964 0.000179975)
(-1.28513e-07 1.9315e-05 2.83944e-05)
(1.14485e-08 3.78774e-06 4.51148e-06)
(9.58075e-05 4.34891e-05 0.000527535)
(1.67062e-05 1.34646e-05 0.000115531)
(5.29723e-06 2.36006e-06 1.85327e-05)
(-1.57761e-05 0.000199125 0.000226689)
(4.50117e-07 2.72946e-05 3.7563e-05)
(7.9185e-07 5.44229e-06 6.06078e-06)
(0.000106897 0.00010591 0.000885233)
(3.49918e-05 2.97512e-05 0.000192072)
(9.582e-06 5.83985e-06 2.85987e-05)
(-6.46644e-05 0.000283196 0.000303186)
(2.56086e-06 4.32534e-05 5.25697e-05)
(1.8185e-06 8.52896e-06 8.43176e-06)
(-0.00469771 0.0189265 0.015959)
(-0.000538209 0.00439963 0.00406514)
(-6.41234e-05 0.000981627 0.000701436)
(-0.000643084 0.00581709 0.00662612)
(0.000127294 0.0013073 0.0015818)
(6.73109e-05 0.000292308 0.000262329)
(-0.000411774 0.00211291 0.00321453)
(8.34986e-06 0.000450164 0.000715789)
(2.2774e-05 9.95536e-05 0.000114162)
(-4.5216e-05 0.000923824 0.00143428)
(2.18519e-05 0.000174092 0.000305161)
(1.39146e-05 3.55653e-05 4.54907e-05)
(-6.85199e-05 0.000459895 0.00040468)
(-9.55575e-07 7.42954e-05 7.04408e-05)
(1.0741e-06 1.42838e-05 1.15214e-05)
(-0.0112768 0.013457 0.0170282)
(-0.00204061 0.0030284 0.00374685)
(-0.000332961 0.000627746 0.000644942)
(-0.00282307 0.00501233 0.00789993)
(-0.000385955 0.00103163 0.00161352)
(-3.22495e-05 0.00020592 0.000258019)
(-0.00112949 0.00230963 0.00356303)
(-0.000128938 0.000438239 0.00070628)
(-4.06917e-06 8.16836e-05 0.000106692)
(-0.00044644 0.00103383 0.0015144)
(-5.03446e-05 0.000180598 0.000293881)
(-7.21471e-07 3.17386e-05 4.37825e-05)
(-0.0001634 0.000711109 0.000543805)
(-1.68276e-05 9.63402e-05 8.82135e-05)
(-9.93649e-07 1.71104e-05 1.40636e-05)
(-2.00104e-05 0.00509149 0.00093397)
(-2.74932e-06 0.000592911 9.031e-05)
(-4.38663e-07 6.75586e-05 9.65858e-06)
(-9.24037e-08 7.31242e-06 1.00385e-06)
(6.75504e-05 0.00638022 0.000381826)
(6.76867e-06 0.000749845 3.88889e-05)
(1.40073e-06 8.42241e-05 4.39326e-06)
(1.52712e-07 9.08379e-06 4.53491e-07)
(-0.000129693 0.0050825 0.000948426)
(-1.34111e-05 0.000587125 9.24347e-05)
(-1.18351e-06 6.68514e-05 1.04883e-05)
(-2.49332e-07 7.3088e-06 1.13456e-06)
(7.08287e-05 0.00660949 0.000434592)
(8.26878e-06 0.000777105 4.50713e-05)
(2.44609e-06 8.97406e-05 5.98007e-06)
(2.24876e-07 1.00937e-05 6.68884e-07)
(-0.000384647 0.00466908 0.0010235)
(-3.70551e-05 0.000544223 0.000101539)
(-3.27562e-06 6.77317e-05 1.23937e-05)
(-3.67795e-07 7.84663e-06 1.38699e-06)
(-0.000241427 0.00661496 0.000661651)
(-2.13635e-05 0.000787643 6.88974e-05)
(-1.88819e-06 0.000100098 7.10667e-06)
(-1.89207e-07 1.19248e-05 7.59157e-07)
(-0.000286055 0.00746112 0.000325357)
(-2.50712e-05 0.000876502 3.42263e-05)
(-3.06454e-06 9.82206e-05 1.29017e-06)
(-3.25103e-07 1.07145e-05 1.1593e-07)
(-0.00037158 0.00785147 0.000121619)
(-3.33041e-05 0.000919699 1.416e-05)
(-2.60925e-06 9.73462e-05 6.10824e-08)
(-2.1743e-07 1.00238e-05 -4.96831e-08)
(-0.000796547 0.0045482 0.000650024)
(-7.99244e-05 0.000567534 7.07312e-05)
(-9.63869e-06 7.38455e-05 8.00908e-06)
(-9.84514e-07 8.80753e-06 9.09074e-07)
(-0.000689842 0.00235043 0.000409874)
(-7.28672e-05 0.000304562 4.51386e-05)
(-9.29085e-06 4.11061e-05 5.966e-06)
(-9.822e-07 4.93563e-06 7.97604e-07)
(-0.000605691 0.00340967 0.000847204)
(-6.04294e-05 0.000421527 8.89108e-05)
(-6.74488e-06 5.77023e-05 1.09878e-05)
(-5.21159e-07 7.28491e-06 1.23015e-06)
(-0.000541234 0.00193773 0.000536349)
(-5.6755e-05 0.000251478 5.73853e-05)
(-7.54227e-06 3.46473e-05 7.25952e-06)
(-8.50351e-07 4.24525e-06 7.38834e-07)
(-0.000822358 0.00530604 0.000409688)
(-8.1756e-05 0.000665274 4.50018e-05)
(-8.91523e-06 8.15901e-05 5.02864e-06)
(-9.13141e-07 9.23011e-06 7.11626e-07)
(-0.000775709 0.00260394 0.000254861)
(-8.22917e-05 0.000338948 2.86024e-05)
(-1.01305e-05 4.4278e-05 3.90448e-06)
(-1.0864e-06 5.1703e-06 5.72439e-07)
(-0.000867966 0.00572752 0.000150538)
(-8.59373e-05 0.000718915 1.69643e-05)
(-8.46855e-06 8.54856e-05 1.5428e-06)
(-8.6223e-07 9.49882e-06 1.72285e-07)
(-0.0008221 0.00271487 8.78275e-05)
(-8.72226e-05 0.000355765 1.01556e-05)
(-1.0644e-05 4.62316e-05 1.37898e-06)
(-1.19527e-06 5.43825e-06 1.9979e-07)
(-1.41604e-05 0.00240261 0.000936849)
(-2.15002e-06 0.000335725 9.20626e-05)
(-5.24964e-07 4.36971e-05 1.00431e-05)
(-1.21493e-07 5.10356e-06 1.09024e-06)
(-3.72553e-06 0.000957125 0.000576326)
(-1.02338e-06 0.000155395 6.32199e-05)
(-3.57481e-07 2.32541e-05 7.67957e-06)
(-7.47221e-08 2.90362e-06 8.74944e-07)
(-6.89436e-05 0.00236763 0.000930776)
(-8.76266e-06 0.000328864 9.14764e-05)
(-1.36546e-06 4.3212e-05 1.0146e-05)
(-2.74962e-07 5.07173e-06 1.09946e-06)
(-1.42936e-05 0.00100685 0.000576767)
(-3.06606e-06 0.000159086 6.28242e-05)
(-8.7836e-07 2.35084e-05 7.61429e-06)
(-1.95517e-07 2.92314e-06 8.48085e-07)
(-0.000301763 0.00223075 0.000907833)
(-3.37338e-05 0.000307592 8.99203e-05)
(-4.31818e-06 4.21708e-05 1.07383e-05)
(-6.25359e-07 5.02478e-06 1.16189e-06)
(-0.000198291 0.00112572 0.000559597)
(-2.32123e-05 0.000170401 6.00468e-05)
(-3.00964e-06 2.45619e-05 7.39802e-06)
(-3.45309e-07 2.96998e-06 7.9492e-07)
(-0.000256586 0.00187506 0.000676546)
(-2.88923e-05 0.000249778 6.93739e-05)
(-3.391e-06 3.52712e-05 8.87801e-06)
(-2.3409e-07 4.34941e-06 1.05037e-06)
(-0.000105671 0.00115958 0.000599387)
(-1.33467e-05 0.000166615 6.34585e-05)
(-1.95581e-06 2.44616e-05 8.52586e-06)
(-2.5169e-07 3.01649e-06 9.93068e-07)
(-0.000414242 0.00141868 0.000412473)
(-4.49055e-05 0.000190467 4.36189e-05)
(-5.90361e-06 2.68952e-05 5.24953e-06)
(-5.60231e-07 3.38829e-06 5.24611e-07)
(-1.72251e-06 0.000341103 0.000278086)
(-3.08608e-07 6.5168e-05 3.28942e-05)
(-1.0067e-07 9.43135e-06 4.02e-06)
(-1.71814e-08 1.01551e-06 4.39383e-07)
(5.18852e-06 0.000120014 7.99855e-05)
(7.03669e-07 3.35657e-05 9.70597e-06)
(5.27121e-08 5.10581e-06 1.03417e-06)
(4.01119e-09 5.19741e-07 1.01208e-07)
(-2.19777e-05 0.0004007 0.000301328)
(-2.81737e-06 7.35198e-05 3.48002e-05)
(-5.05048e-07 1.04645e-05 4.13695e-06)
(-6.71885e-08 1.1297e-06 4.34386e-07)
(9.62054e-06 0.000150499 8.95031e-05)
(1.30891e-06 3.90911e-05 1.06048e-05)
(6.81248e-08 5.77593e-06 1.11061e-06)
(4.49079e-09 5.79536e-07 1.0666e-07)
(-6.67461e-05 0.000505504 0.000321532)
(-8.0854e-06 8.69852e-05 3.56494e-05)
(-1.13214e-06 1.17053e-05 4.18885e-06)
(-1.23086e-07 1.21892e-06 4.17797e-07)
(9.57478e-06 0.000208793 9.86597e-05)
(1.15163e-06 4.87341e-05 1.11953e-05)
(2.11091e-08 6.74954e-06 1.16223e-06)
(-1.08278e-09 6.59356e-07 1.11315e-07)
(-9.95839e-05 0.000668336 0.000299537)
(-1.16754e-05 0.00010312 3.19344e-05)
(-1.61253e-06 1.35166e-05 3.95352e-06)
(-1.83197e-07 1.42153e-06 4.09819e-07)
(4.92252e-06 0.000307854 0.000101177)
(4.61683e-07 6.27239e-05 1.08153e-05)
(-1.17854e-07 8.17536e-06 1.19097e-06)
(-1.87028e-08 7.87098e-07 1.16367e-07)
(-0.000148328 0.00089508 0.000279848)
(-1.62412e-05 0.000126399 2.91446e-05)
(-2.36878e-06 1.64025e-05 3.6501e-06)
(-2.74349e-07 1.75005e-06 3.91151e-07)
(-1.45471e-05 0.000450008 9.99623e-05)
(-1.32912e-06 7.89392e-05 1.03181e-05)
(-3.85396e-07 9.64968e-06 1.18356e-06)
(-4.17722e-08 9.10335e-07 1.1414e-07)
(-0.000366149 0.00118743 0.000201831)
(-3.75593e-05 0.000160688 2.19697e-05)
(-4.70359e-06 1.93605e-05 2.55059e-06)
(-4.53407e-07 1.92577e-06 2.72387e-07)
(-0.000112671 0.000608939 7.39499e-05)
(-1.07848e-05 0.000102029 8.00838e-06)
(-1.14972e-06 1.22553e-05 8.10237e-07)
(-1.02918e-07 1.11719e-06 7.76081e-08)
(-0.000258888 0.00112478 0.000247979)
(-2.66763e-05 0.000148718 2.61274e-05)
(-3.60501e-06 1.80527e-05 3.16447e-06)
(-3.67447e-07 1.826e-06 3.26937e-07)
(-7.08924e-05 0.000577086 8.82241e-05)
(-6.39946e-06 9.54011e-05 9.15208e-06)
(-8.04059e-07 1.12431e-05 1.01605e-06)
(-7.38498e-08 1.03035e-06 1.00462e-07)
(-0.000430549 0.00119941 0.000130071)
(-4.49856e-05 0.000165521 1.47436e-05)
(-5.49148e-06 1.93029e-05 1.72495e-06)
(-5.70838e-07 1.87308e-06 2.11089e-07)
(-0.000131562 0.000625993 4.89065e-05)
(-1.32343e-05 0.00010572 5.46625e-06)
(-1.35493e-06 1.25857e-05 5.17161e-07)
(-1.28848e-07 1.13205e-06 5.23935e-08)
(-0.000462612 0.00118475 4.5838e-05)
(-4.92276e-05 0.000169131 5.47549e-06)
(-5.98606e-06 1.98594e-05 6.74988e-07)
(-6.52091e-07 1.92782e-06 8.64802e-08)
(-0.000141859 0.000655458 1.79674e-05)
(-1.49204e-05 0.000109206 2.08128e-06)
(-1.50387e-06 1.2989e-05 2.04645e-07)
(-1.46599e-07 1.16434e-06 2.13561e-08)
(-1.25594e-08 7.46556e-07 9.31522e-08)
(-1.15296e-09 9.0375e-08 8.18352e-09)
(-9.5009e-11 1.04538e-08 6.91591e-10)
(-6.9733e-12 1.1589e-09 5.6883e-11)
(-4.62195e-13 1.11151e-10 4.94202e-12)
(3.26628e-09 9.07712e-07 3.94752e-08)
(1.24618e-10 1.05246e-07 3.46462e-09)
(1.44019e-11 1.17604e-08 2.94197e-10)
(2.64782e-12 1.26981e-09 2.43688e-11)
(4.62373e-13 1.19587e-10 2.13544e-12)
(-3.99167e-08 7.63472e-07 9.56752e-08)
(-3.46675e-09 9.16266e-08 8.2203e-09)
(-2.69997e-10 1.05389e-08 6.97027e-10)
(-1.90472e-11 1.16736e-09 5.84968e-11)
(-1.24679e-12 1.12122e-10 5.25544e-12)
(-3.87846e-09 9.817e-07 4.69902e-08)
(-1.24087e-10 1.09759e-07 4.08634e-09)
(4.41573e-11 1.20854e-08 3.61631e-10)
(1.04491e-11 1.29936e-09 3.20207e-11)
(1.74001e-12 1.22375e-10 3.05852e-12)
(-5.0461e-08 7.54622e-07 1.06122e-07)
(-3.85086e-09 8.8571e-08 9.42682e-09)
(-2.60671e-10 1.02742e-08 8.39507e-10)
(-1.49436e-11 1.1526e-09 7.45272e-11)
(-5.84224e-13 1.1182e-10 7.13228e-12)
(-1.25222e-08 1.02838e-06 8.64997e-08)
(-1.53193e-11 1.12681e-07 8.9112e-09)
(1.17524e-10 1.24468e-08 8.85008e-10)
(2.16959e-11 1.34785e-09 8.5636e-11)
(3.20949e-12 1.27697e-10 8.82509e-12)
(-1.83469e-08 1.07728e-06 6.06833e-08)
(-1.09702e-09 1.24134e-07 7.21877e-09)
(-4.73759e-11 1.38901e-08 7.60236e-10)
(3.13839e-13 1.50587e-09 7.53916e-11)
(4.74524e-13 1.42358e-10 7.84221e-12)
(-2.81545e-08 1.06096e-06 1.39866e-08)
(-2.52544e-09 1.28498e-07 2.31866e-09)
(-2.01093e-10 1.47013e-08 2.86843e-10)
(-1.46e-11 1.60822e-09 3.15155e-11)
(-1.02075e-12 1.52456e-10 3.53915e-12)
(-5.74069e-08 8.37912e-07 1.00133e-07)
(-3.98242e-09 9.79565e-08 9.35969e-09)
(-2.54552e-10 1.13417e-08 8.69185e-10)
(-1.38469e-11 1.27087e-09 8.00302e-11)
(-4.73897e-13 1.23168e-10 7.91799e-12)
(-4.05173e-08 5.19289e-07 6.58941e-08)
(-3.00682e-09 7.39781e-08 6.26569e-09)
(-2.21641e-10 9.5177e-09 5.98094e-10)
(-1.60366e-11 1.13233e-09 5.66183e-11)
(-1.20137e-12 1.13515e-10 5.75452e-12)
(-1.83933e-08 6.7605e-07 9.99842e-08)
(-4.22542e-10 8.36927e-08 8.98877e-09)
(6.97186e-11 1.00121e-08 8.25386e-10)
(1.55297e-11 1.14528e-09 7.62126e-11)
(2.39496e-12 1.12421e-10 7.61789e-12)
(-3.03735e-08 4.50609e-07 3.55284e-08)
(-2.06035e-09 6.78813e-08 3.59406e-09)
(-1.33025e-10 8.91762e-09 3.75356e-10)
(-7.75432e-12 1.07185e-09 3.84519e-11)
(-3.67655e-13 1.08073e-10 4.17768e-12)
(-7.22417e-08 9.13432e-07 9.26277e-08)
(-5.75345e-09 1.08562e-07 9.06515e-09)
(-4.45903e-10 1.25239e-08 8.58935e-10)
(-3.35376e-11 1.39241e-09 7.95267e-11)
(-2.60715e-12 1.34012e-10 7.84837e-12)
(-4.43233e-08 5.55197e-07 5.27246e-08)
(-3.34192e-09 8.07e-08 5.46502e-09)
(-2.47861e-10 1.03631e-08 5.51117e-10)
(-1.79242e-11 1.22649e-09 5.41873e-11)
(-1.33738e-12 1.22387e-10 5.66472e-12)
(-8.33402e-08 9.46041e-07 2.19649e-08)
(-7.0279e-09 1.14376e-07 2.55059e-09)
(-5.65913e-10 1.33498e-08 2.8116e-10)
(-4.37958e-11 1.49306e-09 2.95167e-11)
(-3.49977e-12 1.44017e-10 3.24859e-12)
(-5.40708e-08 5.77451e-07 1.83087e-08)
(-4.25033e-09 8.53237e-08 2.16951e-09)
(-3.30037e-10 1.10553e-08 2.45086e-10)
(-2.51465e-11 1.31387e-09 2.63396e-11)
(-2.00473e-12 1.31293e-10 2.96412e-12)
(-1.39674e-08 5.30258e-07 9.56244e-08)
(-1.17542e-09 6.99192e-08 8.13278e-09)
(-9.38321e-11 8.65515e-09 6.74635e-10)
(-6.9965e-12 1.00744e-09 5.47365e-11)
(-5.05058e-13 9.97428e-11 4.68792e-12)
(-4.17276e-09 3.30041e-07 4.16498e-08)
(-2.94599e-10 5.40452e-08 3.39173e-09)
(-1.90397e-11 7.36256e-09 2.75406e-10)
(-9.44299e-13 9.0254e-10 2.2059e-11)
(-5.27256e-15 9.20018e-11 1.86683e-12)
(-3.08071e-08 5.25595e-07 9.34767e-08)
(-2.49026e-09 6.95787e-08 7.84326e-09)
(-1.86775e-10 8.63324e-09 6.48279e-10)
(-1.28277e-11 1.00753e-09 5.29601e-11)
(-8.11507e-13 1.00005e-10 4.62473e-12)
(-9.71447e-09 3.32371e-07 4.00337e-08)
(-6.45396e-10 5.44696e-08 3.21879e-09)
(-3.52624e-11 7.41747e-09 2.5972e-10)
(-9.08432e-13 9.09352e-10 2.08311e-11)
(1.58547e-13 9.27421e-11 1.78544e-12)
(-5.23598e-08 5.02392e-07 8.44769e-08)
(-3.78754e-09 6.71352e-08 7.02629e-09)
(-2.62875e-10 8.46179e-09 5.90602e-10)
(-1.69219e-11 9.99909e-10 4.97109e-11)
(-9.93205e-13 1.00066e-10 4.50974e-12)
(-6.20198e-09 3.31997e-07 3.33287e-08)
(-6.95634e-11 5.46697e-08 2.75568e-09)
(2.97591e-11 7.47784e-09 2.32947e-10)
(5.68384e-12 9.19888e-10 1.98183e-11)
(8.49492e-13 9.40375e-11 1.82554e-12)
(-7.22865e-10 4.43315e-07 7.54056e-08)
(8.54856e-10 6.41961e-08 6.80583e-09)
(1.42487e-10 8.39591e-09 6.29711e-10)
(1.80484e-11 1.00876e-09 5.85734e-11)
(2.24694e-12 1.01764e-10 5.89305e-12)
(8.54219e-09 3.42808e-07 3.77853e-08)
(1.10271e-09 5.83533e-08 3.25271e-09)
(1.19462e-10 7.91803e-09 2.97461e-10)
(1.22324e-11 9.66344e-10 2.74824e-11)
(1.32774e-12 9.82696e-11 2.74169e-12)
(2.82597e-09 3.91589e-07 2.19474e-08)
(8.2038e-10 6.44781e-08 2.92963e-09)
(1.13748e-10 8.56756e-09 3.48366e-10)
(1.34814e-11 1.03405e-09 3.85492e-11)
(1.60551e-12 1.04497e-10 4.42244e-12)
(-0.00719812 1.16839 0.212658)
(-0.0174448 1.26636 0.4103)
(-0.0283598 1.1997 0.204268)
(-0.0615265 1.27298 0.401907)
(-0.0660507 1.24657 0.193959)
(-0.126085 1.28124 0.372172)
(-0.117629 1.29574 0.173209)
(-0.219369 1.31447 0.334743)
(-0.193661 1.33617 0.139821)
(-0.320168 1.37998 0.309252)
(-0.274458 1.23329 0.0395119)
(-0.369224 1.16389 0.120709)
(-0.257808 1.25968 0.0858407)
(-0.352471 1.23369 0.197591)
(-0.259797 1.22495 0.0219531)
(-0.362313 1.13821 0.0741289)
(-0.237196 1.2424 0.00990885)
(-0.342557 1.12954 0.0340707)
(-0.17789 1.27531 2.97496)
(-0.130609 0.17402 2.29597)
(-0.117177 0.0485249 2.09012)
(-0.108412 0.0294147 1.95555)
(-0.100405 0.0119093 1.86391)
(-0.0440592 1.04653 0.91741)
(-0.0280157 0.303725 0.791056)
(-0.0182363 0.133046 0.725374)
(-0.0159197 0.0922886 0.668827)
(-0.00467881 0.0385341 0.621414)
(-0.580061 1.29032 2.90089)
(-0.427261 0.172027 2.21612)
(-0.384309 0.0472064 2.01334)
(-0.356536 0.0293463 1.88168)
(-0.332406 0.0123677 1.78305)
(-0.144733 1.05958 0.931224)
(-0.103874 0.307275 0.809804)
(-0.0879625 0.132139 0.735975)
(-0.0763259 0.0952217 0.679242)
(-0.0558577 0.0423862 0.636796)
(-1.01985 1.30593 2.71659)
(-0.755008 0.170894 2.05519)
(-0.681053 0.0460473 1.86245)
(-0.633527 0.0290344 1.73778)
(-0.594489 0.0125356 1.64016)
(-0.291893 1.07535 0.897675)
(-0.236094 0.309455 0.774954)
(-0.20928 0.131602 0.702404)
(-0.189129 0.096059 0.64683)
(-0.168309 0.0436927 0.601547)
(-1.45824 1.32547 2.45627)
(-1.08372 0.167705 1.84109)
(-0.98071 0.0439917 1.66661)
(-0.914932 0.0277481 1.55475)
(-0.861867 0.0120908 1.46574)
(-0.4724 1.09048 0.834958)
(-0.398468 0.308867 0.711534)
(-0.35917 0.129935 0.640752)
(-0.329188 0.095208 0.586837)
(-0.302289 0.0436103 0.541548)
(-2.07162 1.34278 2.09097)
(-1.56033 0.163678 1.55709)
(-1.41847 0.0423881 1.40926)
(-1.32796 0.0267754 1.31488)
(-1.25533 0.0117064 1.23932)
(-0.748897 1.10255 0.727427)
(-0.652358 0.307089 0.610536)
(-0.59518 0.12891 0.547017)
(-0.551251 0.0947039 0.498999)
(-0.513532 0.0434543 0.458215)
(-2.97435 1.28244 1.21014)
(-2.33237 0.177752 0.934555)
(-2.13739 0.0506548 0.849869)
(-2.01027 0.0329398 0.793508)
(-1.90688 0.0144935 0.748158)
(-0.922668 1.01827 0.344837)