/*--------------------------------*- C++ -*----------------------------------*\
| =========                 |                                                 |
| \\      /  F ield         | OpenFOAM: The Open Source CFD Toolbox           |
|  \\    /   O peration     | Version:  2412                                  |
|   \\  /    A nd           | Website:  www.openfoam.com                      |
|    \\/     M anipulation  |                                                 |
\*---------------------------------------------------------------------------*/
FoamFile
{
    version     2.0;
    format      ascii;
    arch        "LSB;label=32;scalar=64";
    class       volScalarField;
    location    "0.1";
    object      gradTy;
}
// * * * * * * * * * * * * * * * * * * * * * * * * * * * * * * * * * * * * * //

dimensions      [0 -1 0 1 0 0 0];

internalField   nonuniform List<scalar> 
5712
(
21407.1
11562.2
33687.5
24145.3
31516.8
31194.1
39019.3
61059.6
62822.6
98305.6
36397.2
37278.8
22043.5
17414.1
16290.1
9455.24
26892.9
16125.7
26903.7
18720.3
26076.7
18222.8
38227.6
22694.9
13505
13099.6
7029.79
6941.34
16431.6
14066.9
8468.03
7636.98
42788.2
39051.8
28467.6
16043.5
27451.9
22513.4
17768.5
17327.1
17590.4
18518
57929.1
65362.9
28108.5
32640.1
42490.8
33496.4
30659.7
17014.1
13542.3
12638.6
25562.4
46013.8
12388.6
20357.3
29399.5
54999.4
18296
30911.7
25156.4
59233.1
18734.2
42002.2
3815.21
27363.6
-1035.44
18929.4
12265.7
12667.4
15386.7
14040.5
11536.8
8221.7
14908.1
9204.51
23206.9
26602.8
21491.1
24106
16338.4
14919.8
15881
15262
17047.7
9885.46
18130.5
10237.7
21697.2
27851.1
18608.6
28240.8
46079.7
69325
52898.8
108430
46695.7
79687.1
50787.2
118663
44199.6
61356.8
53562.3
103129
42645.2
56061.7
54014.4
100787
22998.4
26995.6
63404.3
97047.3
24531.7
25730.3
70658.8
100895
24692.6
23309.9
77003.5
102261
18610
9625.91
29915.5
45440.4
94757.5
9133
15550.9
27301.9
36735.2
108191
7718.04
12681
20845
43248.3
134336
2597.63
2055.21
3185.01
13141.5
4119.56
3293.92
5534.81
14305.5
5962.46
3204.14
8762.16
15884.6
6263.19
3472.15
10428.9
5584.15
16597.9
8322.98
17250.8
8565.43
12908.5
19565.4
5211.79
2541.81
8619.73
4421.2
13739.2
7026.53
20092.4
10182.2
15227.8
20136.6
8504.06
5319.62
8252.09
5365.26
5028.84
2694.43
5005.39
2776.4
13259.4
8479.77
14418.8
8843.67
8036.54
5310.89
8136.61
5433.23
5044.64
2862.1
5144.88
2959.5
12071.2
7845.17
12462.4
7996.93
19730.8
12743.7
13570.2
16579.9
21405.4
13326.8
14502.7
17769.4
17912.5
11765.8
13004.7
15942.4
17336.9
11408.1
12298.9
15204
1049.22
330.81
88.343
430.116
126.342
48.7577
1830.93
397.189
102.466
1114.93
404.886
80.308
1522.71
398.601
121.022
2198.64
622.024
149.385
1259.59
296.663
64.2795
1948.93
477.706
107.68
2375.83
580.42
138.496
2925.44
787.715
190.451
3786.66
791.797
144.395
905.692
221.908
49.4373
1574.68
371.733
81.0622
2237.39
478.152
98.2372
2930.96
664.229
141.451
3377
643.029
106.929
19021.1
15033.5
25949.6
17644.3
25877.9
18899.4
40547.2
24161.1
7425.8
4711.57
8498.43
4942.96
11070
5974.04
13004.6
6254.04
14335
12083.8
10686.1
9804.95
9023.62
9917.34
21613.8
25376.7
30425.5
36286.5
15336.5
17905.9
12021.3
13719.9
11123.8
11917.4
2491.01
808.748
2598.7
955.354
2894.48
885.672
2993.7
1023.17
3090.82
855.703
3461.68
1099.37
3994.38
1274.02
4221.91
1356.22
8146.84
3999.78
9773.83
4585.98
11461.5
6757.31
14358.2
7645.39
6854.26
2390.05
5910.94
2056.27
11520.9
5028.59
13040.3
5300.31
17145.3
8369.14
19006.8
8800.47
7590.21
2613.37
8257.89
2745.36
2299.86
713.147
1080.72
343.769
1800.24
555.14
905.265
282.205
2596.02
826.404
1184.72
379.167
2784.75
904.496
1238.12
394.733
183.965
51.5669
239.011
72.5848
200.46
62.8312
257.726
87.7037
219.545
93.1364
259.82
113.109
1813.29
4596.52
966.192
669.636
269.541
4243.78
1720.08
598.913
426.492
151.277
4274.37
2195.25
1166.26
553.355
188.908
14.1651
4.67706
23.6245
9.37579
20.5618
6.49708
33.495
13.5157
36.212
12.1068
49.2177
21.0376
3111.53
1532.2
1171.88
493.871
434.997
171.21
236.431
91.3742
84.8997
37.4963
2664.04
1128.4
1274.54
482.114
638.697
234.661
288.116
106.337
110.502
51.2781
1381.3
414.771
1526.8
415.243
2513.46
845.73
2737.55
882.788
827.35
243.631
766.811
239.375
1713.24
410.641
1819.32
437.121
3055.22
952.368
3186.36
999.897
879.697
242.153
933.813
263.06
368.833
118.735
133.437
65.6989
355.074
116.776
137.354
62.0621
378.082
119.629
127.795
68.6691
411.119
129.997
141.663
70.8533
1.32354
0.267082
0.0469629
3.74101
0.482875
0.0946935
1.08723
0.336615
0.0590015
4.97813
0.682364
0.136057
2.64774
0.743779
0.145996
7.07989
1.08134
0.213224
473.162
109.991
24.5407
145.427
32.6825
7.30769
52.8228
11.2541
2.48884
23.0956
4.35229
0.889133
11.4974
1.85739
0.357096
336.425
75.71
15.6936
125.308
25.7908
5.148
57.7408
10.956
2.04209
25.8458
4.51496
0.793466
17.7777
2.40851
0.427759
127.287
14.8228
1.68897
0.18281
159.506
18.7461
2.1056
0.227095
127.062
14.6781
1.67128
0.18272
165.237
19.4276
2.24351
0.252342
116.727
13.6056
1.69329
0.196166
165.374
19.6911
2.50246
0.298119
186.528
21.9125
2.45551
0.267863
196.287
22.9925
2.43366
0.250594
113.705
14.1883
1.84614
0.220188
58.7607
7.61406
1.02765
0.123391
85.2418
10.5382
1.44256
0.182123
48.4432
6.28696
0.866183
0.106131
132.651
16.6319
2.03975
0.230753
65.0986
8.47371
1.10695
0.129257
143.188
17.9729
2.13714
0.23747
67.8717
8.89412
1.15579
0.135956
60.0653
8.39311
1.09243
0.127589
23.9281
3.88488
0.581353
0.0725904
59.1908
8.22161
1.0803
0.126793
25.1711
3.97715
0.58771
0.0730786
55.7687
7.68981
1.05427
0.125619
28.143
4.26003
0.614048
0.0742495
46.8765
6.24445
0.88178
0.108735
28.9894
4.16538
0.61154
0.0754123
35.467
4.76167
0.67238
0.0847073
8.52758
1.6292
0.235784
0.0253878
3.00034
0.839142
0.127645
0.0129935
10.0175
1.83799
0.261612
0.0282425
3.76248
0.977277
0.144398
0.0144884
12.6376
2.17463
0.292632
0.0304731
5.21982
1.21835
0.168739
0.0164839
16.7084
2.578
0.337915
0.0355383
7.69634
1.5681
0.204384
0.0196774
22.377
3.15997
0.410063
0.0437513
11.2502
1.97348
0.241242
0.0227584
29.6857
4.01719
0.484012
0.0481442
15.2235
2.55072
0.306383
0.0279299
28.1195
3.71795
0.451318
0.0456501
14.4272
2.38503
0.281077
0.0257588
29.9853
4.13801
0.482572
0.046827
15.6498
2.643
0.314643
0.0283013
29.6187
4.22827
0.496484
0.0481955
16.3865
2.73015
0.324724
0.0291086
0.0186639
0.00225938
0.000261344
2.89725e-05
2.77878e-06
0.0226928
0.00263116
0.000294011
3.17452e-05
2.98968e-06
0.0190868
0.00229066
0.000263472
2.91841e-05
2.80306e-06
0.0245425
0.00274397
0.000302134
3.24839e-05
3.05936e-06
0.0188655
0.00221428
0.000256854
2.88149e-05
2.79549e-06
0.0257094
0.00281703
0.000311171
3.36963e-05
3.19243e-06
0.0269319
0.00310335
0.000347251
3.76468e-05
3.55895e-06
0.0265239
0.00321245
0.000367531
4.02054e-05
3.8114e-06
0.0209478
0.00244891
0.000283543
3.17717e-05
3.07919e-06
0.0129822
0.00184945
0.000237942
2.83081e-05
2.83786e-06
0.0169012
0.00209232
0.000250302
2.8632e-05
2.81051e-06
0.0112652
0.00169703
0.00022294
2.67964e-05
2.70182e-06
0.0228358
0.00271406
0.000313097
3.48103e-05
3.35029e-06
0.0138799
0.0020175
0.000259077
3.06623e-05
3.05967e-06
0.023651
0.0028594
0.000333744
3.73264e-05
3.60042e-06
0.0144363
0.00213309
0.000276383
3.28468e-05
3.28231e-06
0.0132564
0.00174798
0.000216379
2.5186e-05
2.49357e-06
0.00825102
0.00135113
0.000184064
2.25635e-05
2.30004e-06
0.0131399
0.00173947
0.000215831
2.51884e-05
2.50012e-06
0.00830927
0.00136174
0.000185437
2.27338e-05
2.31855e-06
0.0125598
0.00167838
0.000211545
2.49977e-05
2.50165e-06
0.00829992
0.00136674
0.000186946
2.29972e-05
2.35094e-06
0.0110829
0.0016049
0.000209898
2.52189e-05
2.54409e-06
0.00857021
0.00145883
0.000197951
2.41586e-05
2.45674e-06
0.00978973
0.00161195
0.000214189
2.58511e-05
2.61243e-06
29209.8
31659
29992.6
31824.6
31164.2
32031
32393.6
32861.8
33404.3
34499.6
30832.4
29097.3
31491.9
30842.3
30623.7
28455.3
31059.9
28238.4
31882.7
4350.5
1213.12
735.368
297.733
26163.4
7593.13
3326.15
2307.22
963.352
32257.9
4300.67
1180.16
733.658
309.192
26489.6
7681.89
3303.47
2380.54
1059.66
32648.3
4272.36
1151.18
725.86
313.389
26883.7
7736.37
3290.06
2401.47
1092.32
33136.7
4192.63
1099.79
693.703
302.27
27261.9
7721.68
3248.37
2380.2
1090.26
33569.4
4091.95
1059.7
669.386
292.659
27563.8
7677.24
3222.75
2367.6
1086.36
32061.1
4443.8
1266.37
823.494
362.338
25456.6
7647.14
3349.17
2488.8
1147.08
32661.9
4319.53
1186.38
762.775
334.402
26397.4
7696.88
3300.23
2435.1
1118.57
31711.5
4536.06
1318.8
863.173
383.084
25046.7
7646.23
3389.41
2528.17
1175.67
31929.9
4486.07
1284.18
834.491
375.672
24995.9
7598.22
3338.04
2472.88
1176.4
38681.4
74258.1
64151.4
33354.9
11522.6
13894.5
19780.9
23846.8
17622.5
23871.6
34135.2
60291.5
55957.9
96783.4
25252.9
34377.9
16736.1
19671.1
10038.5
11966.1
201.888
70.1232
0.114623
0.023184
0.0183318
0.0128387
0.0532722
145.215
59.71
24.1677
13.1306
2.73922
1.18666
4.49327
0.706759
0.312054
0.344183
0.123079
132.429
17.0332
1.31591
1.20395
4.3926
2.01017
0.661315
0.412319
0.0621983
0.0613168
0.300344
0.322719
156.429
37.3842
45.4018
10.3639
4.04447
17.1385
0.621711
0.113423
0.991026
328.618
197.05
104.869
55.3458
41.9134
117.859
73.1121
38.3524
19.8943
11.48
0.225484
0.183672
0.112668
0.0610728
0.0365079
0.0464822
0.0392447
0.0249423
0.0138823
0.00845701
0.0368271
0.0312559
0.0199912
0.0111624
0.00681029
0.0259363
0.0222159
0.0143236
0.00805332
0.00493886
0.105901
0.0880352
0.0550834
0.0302357
0.018221
240.915
148.033
74.8025
37.1676
29.9938
94.538
51.5978
24.5505
11.5552
7.22249
40.9946
25.4218
12.7466
6.24213
3.56226
20.1855
10.864
5.0008
2.25535
1.24986
3.82297
2.06829
0.933709
0.406251
0.218226
2.15344
1.51975
0.82868
0.413948
0.23593
7.81049
5.0799
2.61116
1.26825
0.715723
1.2515
0.84444
0.444886
0.216435
0.12137
0.584359
0.436921
0.249271
0.127717
0.0736699
0.635317
0.462768
0.25827
0.130129
0.0742753
0.234625
0.181203
0.106151
0.055219
0.0320905
221.156
138.594
71.5806
36.5816
30.3765
29.7165
19.4921
10.2073
5.14384
2.96831
2.43485
1.78081
1.00104
0.512657
0.296458
2.2431
1.66138
0.943977
0.487341
0.283162
7.93246
5.55027
3.02816
1.53906
0.888986
3.77587
2.82459
1.60751
0.832189
0.483645
1.27218
0.992335
0.5838
0.308218
0.181075
0.796495
0.627973
0.373898
0.198125
0.116676
0.121576
0.0982489
0.0600075
0.032282
0.0191914
0.120541
0.0983943
0.0606623
0.0329099
0.0196779
0.571081
0.438929
0.256591
0.134086
0.0783065
0.618184
0.481399
0.284653
0.15013
0.0881952
256.707
156.145
81.9008
43.0302
34.5935
63.7648
40.5323
21.3839
11.0522
6.44742
83.4645
57.5356
28.9697
14.7438
9.2834
18.8581
13.2445
7.17293
3.68683
2.13628
7.56789
5.58443
3.12043
1.60869
0.931544
31.1649
21.5398
11.2671
5.70686
3.2599
1.19452
0.931305
0.548527
0.28922
0.169815
0.222172
0.179851
0.10981
0.0591868
0.0352359
1.87519
1.42475
0.823087
0.428728
0.250059
23890.2
18888.6
24260.8
22827.8
26185
54835.1
30914.4
59650.7
23838.2
17486.7
24866.6
18916.3
20019.2
15222.2
36181.7
21418.4
22756.9
29101.7
10462.1
11611.9
25958.3
28042.2
14460.4
11885.6
42910.9
40156
29443.3
19561.6
39002.2
25838.6
17286.9
17284.3
17641.7
18540.5
57641.1
65371.5
27729.7
32578.5
43065.7
33640.8
31404.6
17153.5
14307.8
12765.3
42546.1
59697.7
17339.9
24862.5
43510.2
65675.8
22658.6
34735.6
34501.5
65457.6
21652.5
44606.2
4290
28192.4
-997.249
19076
14567.2
12658.1
15732.7
14037.9
11165.9
8003
14496.7
9042.59
24483.5
26773.5
26092.4
24299.4
16432.3
14915.4
15893.4
15259.5
16879.9
9810.23
18092.2
10215.8
22092.5
27932.3
18682.1
28263.2
46919.6
70588.6
53278.2
108939
48277.3
82308.1
51461.4
119742
44537.3
61860.8
53731.3
103349
42726.8
56184
54061.6
100850
55684.3
57693.1
85817.7
118836
50513.5
48754.1
87187.8
116622
40480.3
36510.8
86401.5
110621
13569.2
8052.39
25589.1
45535.5
98337.9
7771.49
10704.7
23778.2
36550
112146
6748
10881.7
19566.2
43847.8
136261
14720.1
6933.29
10377.9
15965.5
14636.8
7400.16
11148.8
16555
13477.1
6582.02
12011.8
17218.4
5284.4
2813.59
7918.98
4282.05
15177.7
7801.75
17408.9
8662.85
14285.2
20106.1
4693.57
2331.52
7650.9
4057.73
13033
6771.38
20330.2
10250.5
15712.9
20144.2
8260.23
5200.72
8185.52
5326.93
4829.39
2617.66
4918.18
2742.32
13261.8
8465.28
14284
8760.93
8018.73
5298.27
8132.93
5430.24
5011.59
2848.96
5136.37
2956.07
12082.3
7842.74
12466
7996.66
19805.7
12760.5
13663.3
16617.3
21523.2
13343.8
14739.6
17859.6
17946
11774.8
13039.3
15957.2
17347.6
11411.1
12308.9
15208.1
3843.48
3163.23
1610.43
1205.92
4242.49
2670.58
2267.65
1668.75
3247.35
1665.06
3170.18
1804.47
1306.77
497.432
2006.48
819.293
2976.8
1192.25
3913.58
1648.51
4862.84
1738.13
991.592
373.4
1767.21
651.173
2645.34
898.237
3639.32
1252.84
3785.96
930.589
14150.2
10880.9
24617.5
16110.4
20806.5
14893.9
40527.4
23079.6
9669.14
4794.67
13598.3
6438.25
9312.74
4785.75
13654.2
6563.96
12487.2
8212.12
9343.93
6735.78
6350.95
9075.89
21029.2
25232.1
30008.8
36188.2
14687.3
17752
11492.8
13601.8
10677.2
11793.4
2250.15
864.817
2981.36
1068.83
2260.44
845.073
3024.43
1043.9
2303.02
774.461
3257.47
1060.34
3858.63
1243.12
4178.55
1344.98
6313.26
3625.92
9055.57
4363.29
9674.79
6171.44
13662.6
7349.21
6250.08
2258.21
4450.56
1878.45
11228
4929.41
12967.4
5272.87
16878.4
8245.06
18942.6
8767.14
7329.92
2549.07
8190.35
2726.73
2124.71
680.281
1027.26
332.123
1539.34
524.192
852.882
277.793
2512.45
806.435
1154.99
371.245
2762.07
898.178
1228.92
392.061
1348.36
975.047
564.128
383.378
1304.8
983.15
529.632
363.926
1238.46
935.665
451.74
312.209
3633.9
6054.07
2432.68
956.842
353.433
5598.6
3665.45
2231.26
820.781
267.868
4968.09
2891.25
1521.87
696.656
228.672
680.915
367.283
265.17
148.318
675.271
345.308
250.111
136.978
621.208
304.28
206.414
107.942
3619.19
1667.73
2050.26
873.979
1235.09
554.689
525.635
242.466
180.406
92.8416
2902.34
1166.66
1625.51
595.12
874.792
329.594
402.066
159.713
147.622
73.0788
1375.44
424.879
1489.19
410.508
2451.34
834.257
2675.89
871.103
805.331
240.987
773.608
251.412
1690.43
407.107
1812.47
436.03
3023.9
946.457
3177.56
998.272
865.415
239.499
929.306
262.153
360.059
117.743
131.502
65.5374
363.754
124.938
143.106
67.0193
371.579
118.199
125.922
67.9396
408.868
129.463
140.9
70.5553
174.596
73.4172
76.1697
40.0598
158.554
62.7956
68.3114
33.5142
132.32
48.6976
50.53
21.8378
628.309
224.271
329.412
107.674
225.216
74.5821
88.7746
26.1309
41.3109
14.2361
385.365
134.517
174.5
55.8405
97.4877
30.1574
47.9739
13.54
32.5361
8.92584
150.486
18.307
2.11731
0.231255
181.353
21.8063
2.49069
0.272337
138.754
17.0746
1.9915
0.220632
175.137
21.2798
2.5116
0.287191
119.95
14.9259
1.9077
0.224856
166.119
20.4657
2.6591
0.322334
185.121
22.1246
2.51474
0.277722
195.506
23.0146
2.44697
0.253106
112.163
14.3322
1.89863
0.230047
58.0828
7.66068
1.04838
0.127606
86.4586
11.1078
1.55187
0.199283
49.7119
6.61751
0.923408
0.114472
131.059
16.6123
2.05694
0.234977
64.3052
8.44079
1.11144
0.13086
142.592
17.9509
2.14066
0.238576
67.5637
8.87525
1.15615
0.136335
104.95
13.1953
1.61458
0.182439
69.6653
8.70115
1.0989
0.123401
93.7512
12.0439
1.50741
0.172549
62.5302
7.99255
1.02361
0.116265
78.3909
10.3092
1.3676
0.160463
53.0101
7.02706
0.924202
0.10534
58.6634
7.67767
1.06168
0.129876
44.853
6.00158
0.825182
0.0971365
42.1349
5.60562
0.781841
0.0971843
43.7152
5.43313
0.588743
0.053876
23.3025
3.69818
0.416427
0.0360079
39.6159
5.11786
0.573876
0.0543377
21.0502
3.45251
0.398505
0.0349827
33.4283
4.57367
0.522734
0.0498486
17.6053
3.05873
0.359084
0.0319847
30.6391
4.18963
0.501282
0.0499217
16.5941
2.83153
0.335737
0.0306162
29.1019
3.9722
0.502316
0.0528656
16.4123
2.67984
0.316003
0.0292868
29.6845
4.07253
0.497318
0.0499661
15.3407
2.60127
0.315434
0.0289608
29.8908
4.00988
0.492186
0.0501225
15.8511
2.63616
0.312068
0.0287124
29.7098
4.12746
0.485036
0.0473696
15.5302
2.63812
0.315784
0.0285298
29.5084
4.22006
0.496594
0.0483018
16.3326
2.72505
0.324612
0.0291378
0.0237633
0.00287843
0.000332546
3.67787e-05
3.51773e-06
0.0276087
0.00323884
0.000364314
3.94569e-05
3.71879e-06
0.0232449
0.00279732
0.000322231
3.56894e-05
3.42428e-06
0.0284128
0.00322494
0.000358222
3.86947e-05
3.65163e-06
0.0219826
0.00260027
0.000302596
3.39797e-05
3.29622e-06
0.0282723
0.00313777
0.000349317
3.80074e-05
3.61043e-06
0.0281591
0.00325864
0.000366306
3.98701e-05
3.7801e-06
0.0268924
0.00326383
0.000374073
4.09864e-05
3.89038e-06
0.0222311
0.00263314
0.000307459
3.46414e-05
3.36874e-06
0.0136554
0.00197392
0.000256069
3.06321e-05
3.08185e-06
0.0188236
0.00235692
0.000283392
3.25044e-05
3.19508e-06
0.0123065
0.00186502
0.000246113
2.96803e-05
2.9993e-06
0.0235353
0.00282579
0.000328274
3.66836e-05
3.54296e-06
0.0142
0.00208803
0.000270196
3.21546e-05
3.22067e-06
0.0238433
0.0028911
0.000338207
3.78927e-05
3.65976e-06
0.0145209
0.0021535
0.00027979
3.33223e-05
3.33491e-06
0.018493
0.00236897
0.000287673
3.30301e-05
3.23913e-06
0.0129805
0.00194798
0.000254247
3.0372e-05
3.04666e-06
0.01755
0.00226594
0.000276815
3.19617e-05
3.1491e-06
0.0123756
0.0018772
0.000246519
2.95868e-05
2.97846e-06
0.0158968
0.00208506
0.000259854
3.04777e-05
3.03489e-06
0.0113664
0.00177207
0.000236234
2.86345e-05
2.90134e-06
0.0132637
0.00189159
0.000245786
2.94334e-05
2.96357e-06
0.0108
0.00176908
0.000236812
2.87026e-05
2.9074e-06
0.0112092
0.00182814
0.000242644
2.92936e-05
2.96157e-06
31510.3
32797.3
31787.6
32774.2
32289.8
32705.7
33081.1
33343.5
33722.2
34704.1
30889.2
29130
31632.2
30930.2
30644.8
28466.7
31064.7
28241.1
32432.9
4391.98
1216.38
735.644
297.746
26637.2
7650.62
3332.05
2308.06
963.451
32711.6
4335.12
1182.85
733.821
309.172
26888.1
7730.89
3308.27
2380.88
1059.62
32961
4296.68
1153.04
725.856
313.319
27170.6
7772.44
3293.39
2401.24
1092.05
33330.3
4207.74
1100.9
693.59
302.177
27450.9
7745.14
3250.28
2379.59
1089.88
33666.2
4099.5
1060.21
669.252
292.584
27658.9
7689.7
3223.61
2367.11
1086.23
32078.4
4445.3
1266.44
823.417
362.303
25471.8
7649.13
3349.16
2488.56
1146.94
32705
4323.19
1186.59
762.648
334.342
26438.1
7702.37
3300.37
2434.53
1118.41
31717.8
4536.63
1318.83
863.185
383.104
25051.6
7646.8
3389.32
2528.27
1175.78
31931.6
4486.07
1284.13
834.464
375.673
24997.2
7598.45
3337.98
2472.88
1176.46
38545.3
74266.1
64160.3
32849.2
18391
29745
16411.2
28347.8
25894.1
60992.7
31144.8
69217.9
2.47139e-06
9.8952e-06
4.73999e-05
0.000231282
0.00113614
0.00558186
8.13581e-06
3.00231e-05
0.000129789
0.000554292
0.00230697
0.00930418
6.9817e-07
2.47293e-07
3.21349e-06
1.29864e-06
1.85833e-05
8.81767e-06
0.000115165
6.61909e-05
0.000713336
0.000481948
0.00423949
0.00285806
0.0273466
0.134527
0.675575
3.35962
10.1386
18.7785
0.0361758
0.133558
0.459318
1.39154
3.1693
5.02588
5.31643e-06
5.1354e-06
3.78892e-06
2.42489e-06
1.6543e-06
2.10943e-05
2.00288e-05
1.44843e-05
9.0792e-06
6.08514e-06
0.000100136
9.34522e-05
6.62559e-05
4.07071e-05
2.68244e-05
0.000483654
0.000442749
0.000307185
0.000184788
0.000119651
0.00234772
0.0021016
0.00142309
0.00083681
0.000531918
0.0113717
0.00991482
0.00653169
0.00374851
0.00233764
1.73758e-05
1.65578e-05
1.20249e-05
7.57011e-06
5.09215e-06
6.35354e-05
5.95058e-05
4.23718e-05
2.61454e-05
1.72911e-05
0.000272251
0.000250761
0.000175228
0.000106133
6.91067e-05
0.00115175
0.00104212
0.000714147
0.000424581
0.000272271
0.00474337
0.00420868
0.00282478
0.00164781
0.0010407
0.0189054
0.0164133
0.0107737
0.00616438
0.00383502
1.51865e-06
1.49005e-06
1.11444e-06
7.24348e-07
5.01032e-07
5.40066e-07
5.35094e-07
4.06068e-07
2.68416e-07
1.88268e-07
6.91863e-06
6.66346e-06
4.87954e-06
3.10116e-06
2.10351e-06
2.80743e-06
2.7296e-06
2.02546e-06
1.30588e-06
8.9677e-07
3.95739e-05
3.73637e-05
2.67561e-05
1.66147e-05
1.10494e-05
1.8848e-05
1.79459e-05
1.29966e-05
8.16612e-06
5.48434e-06
0.000242211
0.000223508
0.000156037
9.44605e-05
6.1492e-05
0.000139674
0.000129832
9.1484e-05
5.58838e-05
3.66414e-05
0.00147941
0.00133021
0.000902694
0.000531802
0.000338549
0.00100293
0.000908187
0.000621404
0.000368704
0.000235939
0.00865267
0.00755246
0.00496663
0.002844
0.00177012
0.00586265
0.00516779
0.003434
0.00198233
0.00124069
0.0547673
0.046275
0.0295495
0.016532
0.0101144
0.263985
0.214913
0.132551
0.0723057
0.0434541
1.29374
1.00757
0.598024
0.318588
0.188535
6.24415
4.6069
2.62234
1.37031
0.801956
18.1611
12.6326
6.99539
3.63318
2.12045
33.1531
22.5034
12.3173
6.38517
3.70183
0.0725257
0.0614449
0.0393793
0.0220977
0.0135484
0.26368
0.217311
0.135761
0.0747449
0.0452054
0.890951
0.711609
0.432716
0.234
0.139806
2.64537
2.03988
1.20692
0.642707
0.380246
5.8991
4.39397
2.54453
1.34242
0.789531
9.25217
6.76497
3.87343
2.03422
1.19064
2.4687e-06
9.89336e-06
4.73991e-05
0.00023131
0.00113605
0.00557819
8.12303e-06
2.99831e-05
0.000129589
0.000553322
0.00230209
0.00928145
6.99828e-07
2.48077e-07
3.22263e-06
1.30925e-06
1.86757e-05
8.94684e-06
0.000115961
6.77571e-05
0.000718415
0.000499227
0.00426176
0.00303311
0.027305
0.134234
0.673655
3.3491
10.1139
18.7637
0.036076
0.133153
0.45787
1.38749
3.16269
5.02277
5.31501e-06
5.1372e-06
3.78946e-06
2.42486e-06
1.65407e-06
2.10953e-05
2.00349e-05
1.4489e-05
9.08065e-06
6.08461e-06
0.000100164
9.35115e-05
6.63033e-05
4.07311e-05
2.68341e-05
0.000483874
0.00044314
0.000307505
0.000184968
0.000119744
0.00234834
0.00210318
0.00142449
0.000837626
0.000532372
0.011368
0.00991669
0.00653481
0.00375046
0.00233874
1.73617e-05
1.65541e-05
1.20202e-05
7.5657e-06
5.08829e-06
6.34731e-05
5.94666e-05
4.23411e-05
2.61203e-05
1.72689e-05
0.000271952
0.000250587
0.000175095
0.000106026
6.90133e-05
0.00115033
0.00104136
0.000713583
0.000424138
0.000271894
0.00473614
0.00420471
0.00282199
0.00164576
0.00103907
0.0188713
0.0163943
0.0107609
0.00615552
0.00382837
1.52171e-06
1.49237e-06
1.11613e-06
7.25414e-07
5.01548e-07
5.4183e-07
5.36829e-07
4.07443e-07
2.69282e-07
1.88837e-07
6.93993e-06
6.68589e-06
4.89658e-06
3.11177e-06
2.11039e-06
2.83111e-06
2.75347e-06
2.04331e-06
1.31738e-06
9.0452e-07
3.9783e-05
3.75783e-05
2.69171e-05
1.67153e-05
1.11153e-05
1.9132e-05
1.8226e-05
1.32025e-05
8.29533e-06
5.57043e-06
0.000243992
0.000225302
0.000157365
9.52846e-05
6.20327e-05
0.000143048
0.00013306
9.37972e-05
5.73053e-05
3.75756e-05
0.00149089
0.00134181
0.000911181
0.000537041
0.000341984
0.0010394
0.000941942
0.00064491
0.000382832
0.000245078
0.00870742
0.0076115
0.00501004
0.00287085
0.00178791
0.00622655
0.00549498
0.00365481
0.00211168
0.00132276
0.0546991
0.0462388
0.0295356
0.0165253
0.0101103
0.263439
0.214526
0.132348
0.0721978
0.0433903
1.29019
1.00502
0.596623
0.317838
0.188107
6.22462
4.59243
2.61382
1.36555
0.799142
18.1134
12.594
6.97034
3.61818
2.11109
33.1245
22.4787
12.2996
6.37423
3.69483
0.0723731
0.0613583
0.039323
0.0220607
0.0135222
0.263046
0.216941
0.13553
0.0745992
0.0451088
0.888626
0.710209
0.431872
0.233487
0.139486
2.63851
2.03537
1.20419
0.641054
0.379215
5.88705
4.38512
2.53898
1.339
0.787307
9.24553
6.75916
3.86973
2.03191
1.18904
201.625
70.0457
0.114421
0.0232353
0.0206882
0.0137915
0.0539161
142.677
64.5578
24.7691
17.6456
1.31997
4.95839
0.40635
0.74014
0.217953
130.737
16.9968
1.34992
1.21186
4.39481
2.0075
0.659354
0.413825
0.0880796
0.0717969
0.322804
0.328746
155.709
37.248
45.0421
10.3142
4.02742
17.0438
0.621417
0.115801
0.993378
328.123
196.633
104.581
55.1655
41.7796
117.719
73.0013
38.2745
19.8453
11.4503
0.225305
0.183799
0.112867
0.0612387
0.0366423
0.0466251
0.039416
0.0250746
0.0139671
0.00851466
0.0416119
0.0353964
0.0226945
0.0127062
0.00777474
0.0278836
0.0239206
0.0154486
0.00870052
0.00534455
0.107312
0.0894112
0.0560778
0.0308527
0.0186337
240.444
152.513
78.6853
39.8303
32.6979
106.692
63.7745
32.5631
16.4445
10.9038
42.7122
27.3829
14.1308
7.11648
4.17318
29.4836
17.7216
8.80297
4.37331
2.72351
2.42497
1.7513
0.976312
0.500416
0.293929
8.7628
5.88516
3.11547
1.5681
0.924296
0.768558
0.585179
0.339799
0.17765
0.104879
1.3804
1.02411
0.581782
0.300344
0.176647
0.418169
0.326676
0.193692
0.102467
0.060807
218.948
137.969
71.5587
36.7448
30.7135
29.7911
19.7231
10.4149
5.29116
3.08053
2.51077
1.85452
1.05261
0.544625
0.318503
2.26583
1.68949
0.966289
0.50221
0.293842
7.96782
5.61783
3.08729
1.58044
0.919831
3.77809
2.83627
1.61963
0.841277
0.490681
1.26954
0.991779
0.584227
0.308808
0.181657
0.800883
0.633595
0.378549
0.201286
0.118955
0.172561
0.140027
0.0859196
0.0465288
0.0279013
0.141462
0.115951
0.0717968
0.0391368
0.0235236
0.617156
0.479191
0.282994
0.149488
0.0883252
0.631813
0.495055
0.294559
0.156346
0.0924467
255.375
155.092
81.247
42.6565
34.326
63.516
40.3477
21.2682
10.9838
6.40735
82.9073
57.2687
28.8762
14.7207
9.29849
18.774
13.1925
7.14639
3.67389
2.13022
7.54295
5.57512
3.11962
1.61042
0.934095
31.049
21.5314
11.2971
5.73937
3.29108
1.19562
0.934547
0.551805
0.291655
0.171675
0.227265
0.184633
0.113145
0.0612048
0.0365669
1.88416
1.43797
0.834393
0.436554
0.255804
0.319665
0.54423
1.06686
1.92904
2.6943
1.473
18801.9
19522.6
17207.5
19672.1
17545.1
13599.6
13965.9
10882.7
22514.3
45141.8
24807.7
41414.9
35901.8
16415.7
51201.3
13715.8
14605.6
12959.4
14416.1
13478.1
11587.7
10747.4
8975.56
21417.9
54472.2
23727.2
49105.1
34216.3
20959.7
55249.8
8959.66
9615.53
7550.85
8062.27
9287.56
8883.21
6576.08
6083.54
19694.8
36800.2
21691.1
34830.1
27074
20133.1
38592.1
5057.58
5361.11
3595.39
3737.57
5313.45
5312.16
3212.07
3186.14
11588.7
21588.8
12491.6
19649.6
14824.3
11114.5
21430.5
2590.94
2730.07
1613.93
1654.01
2827.37
2875
1457.08
1508.19
6140.01
10587.2
6554.52
8971.8
6973.17
4527.88
9015.65
1268.2
1316.94
682.838
698.253
1237.62
1095.92
607.891
582.549
2768.85
4261.58
2889.2
3378.15
2857.41
1440.99
3152.52
12204.7
10673.7
15456.7
18431.3
9254.93
7592.82
12219.7
9740.07
6918.49
2546.19
6614.43
2475.21
5404.33
4039.88
3390.86
9153.99
8141.2
11235.5
13086.3
7065.91
5867.16
9054.41
7353.61
4345.94
1637.47
4100.45
1567.22
3123.98
2555.04
1945.99
4860.17
4361.91
6051.16
6801.63
3815.05
3189.3
5072.63
4358.04
2206.62
879.302
2028.94
807.242
1576.87
1112.32
1115.56
1905.61
1734.97
2568.21
2802.52
1509.13
1239.82
2250.9
1951.6
689.985
206.12
616.182
207.019
439.979
279.423
385.694
677.738
626.09
1016.97
1087.84
515.195
409.185
909.329
755.19
164.707
16.3433
145.301
56.3776
131.429
133.967
150.395
203.599
191.493
369.41
390.075
169.676
150.619
332.328
289.999
40.0485
18.4367
41.156
43.9001
53.3049
69.2838
78.6733
21022.8
10993.6
33646.3
24034.8
31517.6
31164.6
39019.5
61046.3
62845.2
98295.8
36435.9
37272
22076.7
17377.4
15821.6
8818.43
26879.9
16119
26887.6
18713.9
26072.1
18218.4
38220
22690.3
13280.4
12996.8
6860.22
6884.17
16392.3
14042.3
8448.92
7640.92
42768.2
39030
28459.3
16037.9
27440
22512.9
17764.1
17326.2
17587.7
18517.1
57926.7
65362.5
28105.8
32638.8
42489.4
33497.3
30659.1
17014.3
13541.4
12638.6
25307.6
45408.8
12213.4
19954.6
29414.7
55040.9
18327
30965.6
25167.2
59255.1
18747.7
42023.3
3817.12
27371.5
-1035.5
18931.9
12262.8
12665.9
15384.2
14039.5
11534.3
8220.25
14905.6
9203.32
23206.5
26602.5
21489.2
24105.3
16336.9
14919.1
15880.1
15261.7
17046
9884.63
18129.3
10237.1
21696.6
27851
18608.3
28240.9
46082
69333.8
52900.6
108433
46697.9
79697.6
50789.4
118667
44201.2
61361.9
53563.5
103131
42646.5
56064.8
54015.3
100789
22836.6
26911
62828.5
96633.1
24564.4
25760.5
70708
100957
24706.1
23321.8
77026.5
102279
18606.2
9624.01
29909.7
45441.9
94767.6
9131.17
15547.7
27295.4
36736.5
108199
7716.58
12679.1
20843.5
43251
134341
2569.06
2034.83
3108.5
13062.9
4144.75
3304.48
5571.37
14335.9
5971.49
3209.15
8779.91
15900.2
6262
3471.6
10427.1
5583.42
16595.3
8322.28
17253.9
8567.78
12917
19573.1
5210.9
2541.47
8618.68
4420.85
13738.7
7026.57
20094.2
10183.4
15231.3
20139.6
8503.36
5319.32
8251.65
5365.06
5028.15
2694.15
5004.9
2776.2
13259.3
8479.72
14418.5
8843.62
8036.29
5310.76
8136.47
5433.14
5044.32
2861.97
5144.65
2959.4
12071.2
7845.13
12462.4
7996.92
19731.2
12743.9
13570.9
16580.3
21406.2
13327.3
14504.3
17770.4
17912.8
11765.9
13005.1
15942.6
17337.1
11408.2
12299.1
15204.1
1027.1
323.252
86.6157
421.105
122.869
47.8231
1832.85
397.418
102.503
1118.39
405.462
80.2684
1524.07
398.934
121.073
2201.07
622.469
149.413
1259.44
296.636
64.2751
1948.78
477.681
107.675
2375.84
580.424
138.493
2926.27
787.887
190.476
3788.27
792.118
144.438
905.599
221.892
49.4346
1574.61
371.727
81.062
2237.5
478.188
98.2446
2931.46
664.348
141.474
3377.72
643.185
106.954
19022
15032.8
25950
17643.5
25875.9
18896.9
40543.5
24158.4
7284.68
4650.1
8296.53
4866.26
11074.2
5967.9
13015.3
6248.75
14336.3
12085.1
10686.3
9805
9021.24
9915.6
21612.8
25375.6
30423.7
36285.1
15336.3
17905.2
12020.8
13719.2
11123.1
11916.8
2462.64
799.309
2564.87
944.374
2891.06
884.634
2991.11
1022.08
3089.07
855.194
3460.47
1098.93
3993.93
1273.81
4221.69
1356.14
8146.13
3999.3
9773.09
4585.52
11459.8
6756.29
14356.5
7644.47
6853.67
2389.84
5910.14
2056.06
11520.2
5028.18
13039.5
5299.91
17144
8368.42
19005.7
8799.84
7589.73
2613.18
8257.41
2745.15
2299.68
713.025
1080.62
343.732
1800.03
554.992
905.157
282.159
2595.86
826.324
1184.63
379.137
2784.58
904.44
1238.03
394.705
181.912
50.8198
236.383
71.6019
200.308
62.8378
257.433
87.6561
219.423
93.1036
259.65
113.052
1813.07
4595.68
966.152
669.574
269.468
4243
1719.85
598.89
426.455
151.237
4273.61
2194.95
1166.14
553.285
188.868
13.8683
4.55169
23.2346
9.2236
20.582
6.49985
33.5022
13.5179
36.2077
12.1066
49.2042
21.0332
3110.95
1531.94
1171.7
493.79
434.95
171.187
236.404
91.3628
84.8831
37.4905
2663.56
1128.21
1274.34
482.035
638.616
234.626
288.08
106.323
110.485
51.2711
1381.1
414.71
1526.63
415.197
2513.06
845.612
2737.22
882.7
827.269
243.606
766.721
239.344
1713.1
410.609
1819.18
437.092
3054.97
952.309
3186.15
999.849
879.626
242.133
933.738
263.041
368.8
118.723
133.424
65.6926
355.034
116.763
137.336
62.0543
378.053
119.62
127.786
68.6639
411.087
129.987
141.652
70.8481
1.29502
0.262011
0.046134
3.6887
0.474916
0.0931941
1.08571
0.336487
0.0590125
4.97872
0.68279
0.13616
2.64772
0.743728
0.145984
7.07806
1.08124
0.213214
473.096
109.978
24.5385
145.405
32.6781
7.30688
52.8147
11.2524
2.48851
23.0923
4.35164
0.889005
11.4952
1.85713
0.357051
336.377
75.7014
15.6922
125.288
25.7872
5.14739
57.7319
10.9543
2.04182
25.8421
4.5143
0.793355
17.7749
2.40817
0.427701
126.392
14.7683
1.68387
0.182227
158.333
18.6591
2.09731
0.226037
126.758
14.6404
1.66735
0.182337
164.901
19.3884
2.23948
0.251971
116.606
13.5869
1.6908
0.195882
165.25
19.6713
2.49975