/*--------------------------------*- C++ -*----------------------------------*\
| =========                 |                                                 |
| \\      /  F ield         | OpenFOAM: The Open Source CFD Toolbox           |
|  \\    /   O peration     | Version:  2412                                  |
|   \\  /    A nd           | Website:  www.openfoam.com                      |
|    \\/     M anipulation  |                                                 |
\*---------------------------------------------------------------------------*/
FoamFile
{
    version     2.0;
    format      ascii;
    arch        "LSB;label=32;scalar=64";
    class       volScalarField;
    location    "0.1";
    object      gradTz;
}
// * * * * * * * * * * * * * * * * * * * * * * * * * * * * * * * * * * * * * //

dimensions      [0 -1 0 1 0 0 0];

internalField   nonuniform List<scalar> 
5712
(
25705.1
73168.1
20265.2
72705
12735.3
69345.3
14880.9
91453.1
21221.1
112194
24388.2
91785
27509.7
88012.6
28861
82673.2
13108
6762.39
35360.2
16466.6
11628.8
4866.65
33785.3
12832.6
22642
19550.3
63251.1
54249.2
16116.9
14717.4
58548.7
51743.2
29788.6
12954.5
20315.1
8554.24
13871.2
30987.6
98115.8
29562.9
30393.9
13724.1
103993
32346.9
24805.7
11460.6
76804.8
25510.8
36498.8
17148.5
73636.7
22645.8
27078.1
14273.9
43945.5
18636.2
23624
13815.1
42347.1
17066.8
25608.2
16436.1
24389.8
10917.7
41503.7
16545.9
16247.3
6707.53
21015.6
13033.8
14539.3
9802.84
15426.2
10510.3
10367.9
7183.82
17979.7
13017.2
22831.4
16262.1
11574
7543.5
6551.45
4692.45
8513.21
5613.64
4741.91
3599.16
14125.5
9492.65
8135.57
5227.25
19688.7
13123.1
18942.5
27790.8
25495.6
23701
25907.7
45985.3
14501.2
7292.23
12436.7
16781.9
8162.37
3448.32
5814.27
6416.91
27023.8
46937.4
19810.5
60527.8
27220.6
43664
22546.3
62122.3
30703.4
38190.9
28975.3
59581.9
15311.5
11090.6
18340.3
24027.8
35347
5622.37
11289.7
22591.6
37273
75469.9
7942.78
10204
14154
26059.3
57867.2
47585.5
27864.8
60321
32738.1
42232.7
25626.4
59090.8
32066.8
33828.9
21642.3
53599.9
30266.2
4966.3
2855.85
9160.63
5674.36
16120.5
10595.6
27444.6
17343
49316
28401.5
3783.48
2371.72
7206.67
4920
12758.7
8905.68
22751.1
15448.4
44202.1
26601.3
7581.11
2867.28
5765.36
2627.68
5075.24
2248.02
3932.29
1936.11
8584.52
4333.3
11527
4886.88
3256.33
1898.79
1182.05
658.251
2526.63
1388.62
892.58
479.326
4550.18
2937.39
1633.67
1022.23
12898.1
5971.83
21058.5
7497.53
19269.5
8240.77
32987.3
12578
7301.94
3798.76
11798.6
4100.33
4612.48
2552.86
5685.56
2678.75
13526
4693.88
1017.22
15210.4
5146.52
1144.42
12512.1
4256.83
936.888
14777.2
4955.18
1060.97
10377.6
3302.58
661.44
13924.7
4542.62
926.976
1038.57
303.828
55.855
2485.88
803.529
151.074
4956.42
1580.66
300.378
8124.57
2501.4
479.261
12771.2
3929.49
768.058
1046.63
274.328
52.5706
2255.64
703.547
142.56
4111.76
1274.59
250.328
7054.73
2082.75
394.409
11434.5
3154.42
593.062
1403.66
1186.17
3465.25
3019.61
5326.97
2911.7
11606.7
6750.62
564.856
285.009
604.49
306.695
667.889
435.271
893.123
614.265
2164.61
1121.55
2288.64
1369.58
836.005
1635.29
4479.88
1467.92
11022.6
4349.18
-1829.18
-365.323
1184.67
649.071
236.108
-123.352
1097.53
207.086
305.008
73.2694
1267.06
225.933
433.131
97.7418
1362.97
235.124
745.108
124.508
784.21
105.571
282.668
31.142
5031.25
3217.63
2696.33
2114.91
9560.15
6661.42
5936.26
4353.74
1277.9
971.966
2492.43
1394.3
2096.77
1582.94
1120.85
1002.59
4728.47
3317.28
2633.61
2136.95
830.711
707.175
374.386
444.805
527.602
104.347
392.405
78.3372
895.449
154.665
520.157
103.085
314.201
62.4813
286.948
50.1529
94.0156
13.4239
178.49
23.6637
1026.5
309.612
205.551
100.345
1176.28
368.22
208.341
103.678
1361.94
451.221
211.58
106.748
4418.39
7362.82
2324.16
889.891
148.893
3319.37
2247.16
1310.55
610.827
122.232
5057.11
2552.28
1128.33
433.577
81.6938
95.9957
29.1674
41.555
15.455
126.955
41.1258
46.9203
18.3582
183.061
66.7614
54.8602
22.9807
2623.53
1295.43
1370.95
573.98
543.628
244.88
241.262
108.496
56.769
28.2806
1837.66
1055.68
958.925
521.918
453.834
237.313
195.979
100.46
42.4108
28.4414
1151.98
435.618
786.469
279.464
2601.3
885.98
1992.67
652.424
305.114
113.282
459.541
191.964
716.343
227.077
260.825
80.9359
1547.78
488.635
545.697
173.623
306.273
90.6572
113.35
31.9072
89.0316
44.4522
21.4102
16.3406
152.946
75.0562
25.4354
20.9447
100.692
31.5268
14.2303
11.2824
34.8435
7.23523
-15.0857
-3.57797
8.55523
1.83116
0.285985
4.49937
0.709859
0.112787
13.1884
2.88827
0.463317
5.66724
0.939075
0.151519
22.1308
4.80179
0.714967
7.57966
1.31424
0.210794
398.974
101.628
17.5359
165.653
39.5449
6.55821
80.3632
17.8947
2.85404
35.857
7.62903
1.13727
10.117
1.76102
0.288034
425.706
93.6712
16.1236
197.498
40.338
6.45047
89.0758
17.657
2.66729
37.86
7.34703
1.09456
13.5951
2.20534
0.351589
23.3493
2.25775
0.241465
0.0250963
9.54564
0.972223
0.109832
0.0113373
23.7106
2.31087
0.262207
0.0283641
10.8648
1.12678
0.149502
0.0167221
25.5876
2.53848
0.309842
0.0346748
16.5413
1.72243
0.177667
0.0189789
8.13392
0.855657
0.0322542
0.00289825
3.04047
0.354
0.00152706
-0.00124208
16.2506
1.76828
0.200227
0.0227268
10.2468
1.12847
0.14915
0.0199401
21.1801
2.22277
0.274695
0.0307538
13.4087
1.43463
0.181488
0.0184709
10.2422
1.12504
0.125716
0.0177907
6.37154
0.71506
0.0976121
0.014311
3.76344
0.424109
0.03857
0.00430713
2.19569
0.253891
0.0344745
0.00499476
23.4212
2.30157
0.251078
0.0272559
14.4081
1.5805
0.191989
0.0218736
23.2694
2.28691
0.253649
0.0274864
14.4192
1.5706
0.190357
0.0212021
22.6958
2.24801
0.268458
0.0290474
13.9899
1.50117
0.184951
0.019873
16.9136
1.73435
0.22195
0.0262592
14.9847
1.58646
0.213146
0.0248267
10.3118
1.09047
0.131238
0.0131153
6.95215
0.822355
0.1005
0.0109846
1.99964
0.242649
0.0258544
0.00253019
7.5332
0.870005
0.103424
0.0108596
2.23758
0.265121
0.0277652
0.00266651
8.03831
0.891234
0.104721
0.0104449
2.46649
0.279882
0.0290558
0.00278286
7.48842
0.798361
0.0988379
0.0102455
2.52943
0.270382
0.0297742
0.00290917
6.99621
0.728614
0.0912525
0.00977877
2.49906
0.257952
0.0295889
0.0028535
5.04579
0.549242
0.0637647
0.00680967
1.84875
0.200209
0.0202559
0.0019402
6.19948
0.653185
0.0791119
0.00817343
2.2056
0.228802
0.0254012
0.00251156
3.25178
0.36859
0.0431236
0.00527722
1.22266
0.136656
0.012929
0.00130984
1.14595
0.136887
0.0168747
0.00216201
0.449185
0.0520319
0.00511612
0.000533901
0.0023288
0.000204588
1.72898e-05
1.42208e-06
1.23551e-07
0.000986881
8.66154e-05
7.35494e-06
6.0922e-07
5.3386e-08
0.00239188
0.000205508
1.74257e-05
1.46242e-06
1.31386e-07
0.00117475
0.000102158
9.04078e-06
8.00518e-07
7.6463e-08
0.00265306
0.000235671
2.09877e-05
1.86318e-06
1.78307e-07
0.00216249
0.00022278
2.21252e-05
2.1409e-06
2.20627e-07
0.00151708
0.000180469
1.90059e-05
1.88479e-06
1.96055e-07
0.000349664
5.79665e-05
7.17107e-06
7.87887e-07
8.84788e-08
0.00250332
0.000233992
2.17296e-05
2.00075e-06
1.9795e-07
0.00164735
0.000156642
1.49524e-05
1.41546e-06
1.43863e-07
0.00249961
0.000224719
2.06347e-05
1.90531e-06
1.90447e-07
0.000888209
8.98514e-05
9.38391e-06
9.61297e-07
1.04442e-07
0.00231569
0.000226629
2.14734e-05
1.98817e-06
1.96209e-07
0.00131812
0.000136625
1.37779e-05
1.35468e-06
1.41618e-07
0.000549123
6.37646e-05
7.02901e-06
7.37916e-07
8.12147e-08
0.000457719
5.42378e-05
6.12716e-06
6.5849e-07
7.4103e-08
0.00239061
0.00020332
1.68659e-05
1.36841e-06
1.17198e-07
0.00104124
8.47931e-05
6.88515e-06
5.51476e-07
4.66707e-08
0.00233692
0.000196082
1.6207e-05
1.324e-06
1.15618e-07
0.00100084
8.04697e-05
6.493e-06
5.20777e-07
4.4636e-08
0.00211192
0.000175657
1.47651e-05
1.24277e-06
1.12744e-07
0.000833217
6.88919e-05
5.82368e-06
4.95458e-07
4.56384e-08
0.00188514
0.000170146
1.57428e-05
1.46434e-06
1.47326e-07
0.000944632
8.13177e-05
7.43652e-06
6.8706e-07
6.85422e-08
0.000548686
7.32408e-05
8.70915e-06
9.6373e-07
1.10561e-07
5316.45
10257.5
5106.69
10047.7
4848.98
9304.29
4330.23
8368.56
3495.53
7731.29
987.797
3017.72
2146.02
4939.77
548.827
1853.22
247.721
851.768
74374
57399.2
52253
48888.8
46597.7
22935.2
19776.4
18134.4
16720.7
15535.4
72522.3
55403.1
50333.5
47042.1
44576.3
23280.6
20245.1
18399.4
16981.1
15919.9
67914.8
51379.7
46561.4
43444.6
41003.9
22441.9
19373.8
17560.1
16170.8
15038.7
61406.9
46027.2
41665.2
38868.8
36643.6
20873.9
17788.4
16018.8
14670.9
13538.7
52274.4
38927.4
35231.5
32872
30983
18185.7
15263.4
13675.4
12475
11455.4
30253.5
23363.9
21246.7
19837.7
18703.9
8620.91
7197.2
6433.7
5833.26
5349.05
41563.9
31660.1
28711.1
26777.8
25221.2
12524.8
10545.8
9460.2
8626.88
7922.06
19219.3
15037.6
13705.3
12792.6
12067.2
5476.86
4614.1
4164.35
3716.22
3431.06
7083.01
5578.38
5096.48
4766.63
4504.89
2260.94
1795.73
1629.54
1415.47
1302.03
-286.919
3744.38
12306.6
57.8364
1274.34
1365.62
2949.46
3889
3520.92
5663.81
6003.14
8432.76
7269.37
8975.58
3539.43
4699.25
2804.66
3263.56
1758.41
1816.15
213.418
54.7761
0.300278
-0.051916
0.0486725
0.0183769
0.140907
1091.21
240.789
179.319
92.4303
14.1147
3.44377
45.8448
5.22737
1.88683
2.00484
0.519014
573.727
108.413
13.9311
6.29237
25.8887
4.9729
2.14424
1.38521
0.414454
0.424808
3.14016
2.47839
677.706
109.744
201.133
46.7245
18.93
86.9656
1.68848
0.379815
3.16804
96.521
50.6139
24.4543
10.6071
3.02324
28.93
14.3958
6.70844
2.77463
0.654611
0.19295
0.106854
0.0516052
0.0216427
0.00572135
-0.0328244
-0.0176028
-0.00820586
-0.00334196
-0.000865186
0.0322047
0.0182263
0.00889983
0.00374981
0.000994432
0.0121688
0.0068953
0.00338629
0.0014377
0.000382802
0.0934615
0.0529789
0.0260174
0.0110302
0.0029222
493.494
253.895
117.884
49.5247
16.2141
121.911
55.5723
25.7048
10.7
2.78823
91.3611
43.353
19.8719
8.1914
2.09243
42.6117
18.4765
8.12123
3.30338
0.86296
6.38707
2.68342
1.14337
0.453935
0.122364
2.10707
1.11545
0.522192
0.214903
0.0562555
24.6925
11.9155
5.35457
2.17286
0.565031
2.98878
1.49021
0.671845
0.271304
0.07071
1.13158
0.589958
0.272759
0.111361
0.0291711
1.20562
0.627674
0.289544
0.118022
0.0308816
0.30983
0.160422
0.0735311
0.0298175
0.00779641
250.76
135.353
64.7959
27.9316
9.31416
56.3674
27.1108
12.6772
5.29831
1.34552
8.21315
4.23749
1.9671
0.808621
0.210854
3.71686
1.91827
0.890208
0.365832
0.0952882
14.5838
7.28812
3.346
1.37175
0.355703
3.32574
1.80382
0.857355
0.356201
0.0898869
1.30568
0.684228
0.320873
0.132726
0.0342816
0.889557
0.486548
0.232296
0.096643
0.0252812
0.259972
0.140722
0.066695
0.0276089
0.00726653
0.270998
0.148635
0.0710088
0.0295194
0.00777996
1.91664
1.01389
0.474151
0.194951
0.0510748
1.5314
0.81745
0.384502
0.15862
0.0415827
305.444
152.019
73.9696
32.1579
9.63305
57.6466
28.6301
13.3832
5.56417
1.36916
104.561
50.9516
23.9448
10.0772
2.40037
24.5266
12.5842
5.92479
2.47253
0.649465
11.1448
5.73635
2.68005
1.1095
0.286808
49.5693
22.9632
10.5753
4.39222
0.982068
1.06331
0.571477
0.270583
0.112222
0.0291631
0.24305
0.133332
0.0637039
0.0264911
0.00697429
2.00489
1.07463
0.507476
0.210084
0.0542914
-70826.8
-113246
-53257.7
-95480.3
-49647.4
-115199
-65994.3
-140112
-38172.1
-23659.3
-45070.6
-23006.9
-31379.5
-17791.5
-40280.5
-17826.8
-67472.9
-54679.4
-96239
-79287.9
-52614.2
-44316.7
-81962.6
-69572.8
-41499.4
-40630.5
-27248.2
-26257.9
-38265.1
-41095.7
-103087
-31009.2
-33182.8
-15077.5
-106729
-33378.6
-26861.3
-12529
-82985.5
-27181.8
-39404.1
-18500.2
-79879.8
-23958.4
-40084.5
-18130.7
-57154.7
-22772.5
-33808.1
-16443.2
-51874.6
-19842.1
-32799
-18129.4
-29628.3
-12344
-44746.9
-17494.8
-17354.1
-7077.78
-18530.6
-11562.3
-16503.7
-10173.3
-12784.9
-8458.8
-11869.8
-7434.01
-20066
-13497.2
-22485.2
-16011.3
-12772.9
-7946.86
-7264.26
-5003.87
-9404.12
-5937.75
-5288.19
-3855.78
-15396.5
-9898.08
-8871.59
-5527.92
-21651
-13803
-19446.6
-28011.8
-27446.1
-24476.2
-26442.2
-46272.5
-15597.2
-7669.95
-12768.5
-16918.8
-8774.71
-3666.37
-6043.73
-6505.53
-32729.5
-40737
-21520.8
-59421.8
-31143.4
-37692.3
-23689.4
-61145.8
-32662.5
-34162
-29565.3
-58930.7
-10774.1
-6078.08
-17157.9
-25800.6
-36078.5
-6561.53
-11952.1
-22732.5
-36495.3
-75475.5
-5841.12
-8681.62
-13738.9
-26348.7
-58189.2
-38090
-21574.5
-58472.3
-30707.8
-34320
-20238.6
-57846.3
-30597
-28996.7
-18040.3
-53066.7
-29537.5
-6905.38
-3666.27
-10493.4
-6043.95
-15525.2
-9932.64
-25060.4
-15926.8
-49108.7
-28312
-4122.21
-2622.67
-7207.56
-4893.54
-12285.6
-8512.53
-22114.2
-14886
-44283.4
-26353.2
-7061.31
-2781.23
-5686.02
-2609.22
-4489.56
-2159.77
-3801.75
-1893.56
-8596.59
-4345.89
-11247.7
-4839
-3312.77
-1911.1
-1255.87
-676.76
-2552.77
-1385.58
-948.94
-488.324
-4626.96
-2961.07
-1710.14
-1044.24
-12974.1
-6006.35
-21138.8
-7538.33
-19207.9
-8245.07
-33083
-12635.8
-7377.75
-3827.26
-11853
-4123.51
-4672.85
-2574.47
-5720.1
-2692.45
-11314.7
-3706.43
-14949.2
-4631
-10749.6
-3496.29
-15022.4
-4800.88
-9582.97
-2910.6
-14816.4
-4787.84
-1408.81
-353.427
-2708.72
-777.002
-4903.9
-1480.27
-8196.21
-2386.18
-13809.2
-4208.65
-1180.04
-265.46
-2316.46
-647.679
-4106.61
-1152.79
-7152.83
-1940.15
-11817.2
-3047.23
-7938.45
-5897.82
-7152.7
-5097.83
-16973.9
-10791.9
-15850.4
-9974.49
-4262.66
-2081.62
-1999.45
-916.421
-3876.23
-2155.98
-1896.74
-1107.66
-3087.4
-4011.71
-3369.72
-4219.28
-2414.65
-2029.78
-5456.06
-2079.89
-12403.1
-5163
1206.01
-71.3163
-1766
-1035.38
-439.657
-99.2671
-796.771
-159.111
-380.82
-68.3405
-841.394
-172.149
-483.513
-86.5401
-997.279
-186.504
-798.196
-110.424
-819.078
-100.51
-358.268
-35.9007
-3688.39
-2390.99
-3198.48
-2121.05
-7510.85
-5073.25
-6863.54
-4450.54
-1474.24
-950.873
-1826.72
-1061.03
-2480.12
-1685.75
-1382.76
-1103.31
-5329.56
-3518.88
-3023.76
-2310.16
-1019.08
-746.223
-515.965
-491.494
-549.624
-99.1074
-375.273
-73.1395
-687.734
-126.145
-415.757
-85.8508
-364.452
-64.9728
-296.579
-50.5337
-142.864
-18.402
-194.789
-25.9256
-679.18
-435.856
-160.38
-119.961
-721.615
-484.689
-156.644
-117.136
-858.451
-524.242
-161.831
-111.138
-2082.33
-3564.05
-1258.77
-572.933
-109.635
-3829.7
-2187.78
-1187.68
-549.379
-111.131
-3434.75
-1709.44
-787.234
-324.793
-63.1034
-329.583
-244.628
-91.6103
-70.9776
-361.375
-256.713
-85.0253
-64.6117
-377.782
-257.692
-75.9788
-54.5308
-4107.97
-2029.3
-2144.98
-1046.43
-891.457
-512.588
-355.164
-221.194
-66.0048
-47.4676
-2138.89
-1312.07
-1072.25
-676.099
-478.443
-304.878
-197.614
-125.052
-34.2007
-31.9122
-929.884
-405.262
-726.137
-261.563
-2184.05
-836.943
-1885.88
-622.907
-277.472
-104.322
-369.154
-176.876
-718.562
-224.268
-281.077
-84.0418
-1555.05
-484.63
-581.557
-178.369
-306.099
-89.2596
-122.822
-33.5676
-79.5632
-40.8818
-18.8636
-15.0492
-124.186
-69.1859
-18.9646
-18.8491
-100.132
-30.9818
-13.9574
-11.0287
-37.9156
-7.95936
14.2968
3.32601
-152.096
-53.9501
-36.4792
-7.33748
-155.712
-56.8529
-33.4159
-6.98193
-137.292
-43.8629
-24.4927
-4.62247
-726.274
-174.367
-390.767
-99.095
-232.292
-62.2845
-101.534
-27.5748
-21.2921
-4.15552
-552.506
-108.807
-283.45
-55.6256
-134.841
-26.8275
-56.7996
-11.1268
-19.9358
-3.47031
-19.4974
-1.98999
-0.222285
-0.0241388
-8.329
-0.848422
-0.0996253
-0.0107943
-19.5805
-2.00629
-0.23886
-0.0268629
-8.74636
-0.899636
-0.128804
-0.0151764
-21.6019
-2.22596
-0.282627
-0.0320584
-13.4845
-1.35075
-0.13004
-0.0130252
-6.32291
-0.575613
0.00847324
0.00203722
-2.43922
-0.186431
0.026783
0.0048007
-14.9963
-1.60864
-0.177978
-0.0197863
-9.47014
-1.03768
-0.138157
-0.0186806
-18.5143
-1.99383
-0.250441
-0.0273221
-11.7077
-1.28442
-0.167574
-0.0164592
-9.87496
-1.03682
-0.111298
-0.0159858
-6.21425
-0.679063
-0.0911931
-0.0133157
-3.84714
-0.382646
-0.0278717
-0.00246858
-2.30536
-0.246135
-0.0309598
-0.0042008
-20.522
-2.15794
-0.249102
-0.0281396
-16.6778
-1.79655
-0.230239
-0.0258796
-19.7853
-2.0865
-0.246395
-0.0276592
-15.9665
-1.72475
-0.220954
-0.0242427
-19.2833
-2.03046
-0.260392
-0.0291077
-14.5889
-1.57313
-0.205209
-0.0216698
-13.5182
-1.45292
-0.199301
-0.0236206
-14.0077
-1.50991
-0.21801
-0.0252861
-8.56749
-0.939063
-0.114465
-0.00938278
-11.3333
-1.14377
-0.139719
-0.0144324
-4.23781
-0.389274
-0.0375659
-0.00345956
-10.3541
-1.06412
-0.131356
-0.0133485
-3.91179
-0.368178
-0.0362862
-0.00334523
-8.85092
-0.918298
-0.11813
-0.0118292
-3.29623
-0.317199
-0.0325652
-0.00305782
-7.34563
-0.760559
-0.103986
-0.0109048
-2.85314
-0.275866
-0.0307618
-0.00291657
-6.04526
-0.63407
-0.0873544
-0.0095078
-2.23372
-0.222037
-0.0269893
-0.00255176
-4.67453
-0.508892
-0.0596672
-0.00628253
-1.5921
-0.16863
-0.0172098
-0.00161181
-5.58174
-0.59801
-0.075121
-0.00763174
-1.80569
-0.18405
-0.0214088
-0.00207959
-3.13891
-0.350175
-0.0406066
-0.0049252
-1.1492
-0.12459
-0.0115011
-0.00113954
-1.17894
-0.133773
-0.0157366
-0.00193349
-0.463904
-0.050655
-0.00466718
-0.00045816
-0.00229027
-0.000201566
-1.68969e-05
-1.36781e-06
-1.15965e-07
-0.000952477
-8.37459e-05
-7.05258e-06
-5.74275e-07
-4.90183e-08
-0.00224644
-0.000189809
-1.56652e-05
-1.26875e-06
-1.08884e-07
-0.000992559
-8.2274e-05
-6.90551e-06
-5.77484e-07
-5.16736e-08
-0.00228624
-0.000194448
-1.64537e-05
-1.38188e-06
-1.24211e-07
-0.00147427
-0.000143656
-1.34611e-05
-1.2308e-06
-1.19729e-07
-0.00099488
-0.000117244
-1.18066e-05
-1.10463e-06
-1.07083e-07
6.24003e-05
-7.15101e-06
-1.21788e-06
-1.24177e-07
-1.09254e-08
-0.00215681
-0.000191778
-1.688e-05
-1.47108e-06
-1.37134e-07
-0.00143935
-0.000129456
-1.1694e-05
-1.04945e-06
-1.00841e-07
-0.00199627
-0.000168089
-1.44559e-05
-1.25558e-06
-1.18185e-07
-0.000522082
-4.87615e-05
-4.94239e-06
-4.98129e-07
-5.36714e-08
-0.00208559
-0.000194023
-1.73791e-05
-1.51343e-06
-1.39065e-07
-0.0011374
-0.00010992
-1.03394e-05
-9.49309e-07
-9.22283e-08
-0.000287367
-2.7828e-05
-2.55193e-06
-2.18289e-07
-1.85824e-08
-0.000298156
-2.87116e-05
-2.66347e-06
-2.346e-07
-2.0983e-08
-0.00244598
-0.000205649
-1.6822e-05
-1.34025e-06
-1.1191e-07
-0.00110163
-8.73982e-05
-6.94602e-06
-5.44247e-07
-4.48323e-08
-0.00231291
-0.00018993
-1.52958e-05
-1.21047e-06
-1.01244e-07
-0.00103501
-8.07429e-05
-6.33644e-06
-4.93291e-07
-4.06374e-08
-0.00201181
-0.000161125
-1.2994e-05
-1.04404e-06
-8.94393e-08
-0.000762736
-5.84297e-05
-4.59267e-06
-3.62598e-07
-3.0612e-08
-0.00140988
-0.000116529
-9.95663e-06
-8.6322e-07
-8.14221e-08
-0.000698375
-5.21131e-05
-4.27236e-06
-3.59881e-07
-3.31084e-08
7.63004e-05
-6.17612e-06
-1.68171e-06
-2.49034e-07
-3.35005e-08
-5799.5
-10296.5
-5558.39
-10145
-5212.3
-9453.63
-4609.3
-8544.1
-3649.52
-7837.41
-1033.33
-3045.83
-2222.88
-4991.5
-573.745
-1867.51
-261.596
-859.063
-74558.3
-57417.2
-52255.5
-48889.5
-46598.1
-22956.5
-19779.9
-18135.9
-16721.4
-15536
-72686.4
-55419.1
-50335.7
-47043
-44577.2
-23309.5
-20250.4
-18400.7
-16981.6
-15920.3
-68037.1
-51391.6
-46562.8
-43445.5
-41005.2
-22474.4
-19379.1
-17561.5
-16171.8
-15039.8
-61485.6
-46034.6
-41666
-38869.7
-36645.2
-20903
-17792.5
-16019.7
-14671.7
-13539.8
-52313.2
-38930.1
-35231
-32872
-30983.4
-18205.9
-15265.8
-13675.6
-12475.6
-11456.3
-30260.6
-23364.6
-21246.9
-19838.2
-18704.7
-8626.04
-7197.6
-6433.61
-5833.58
-5349.71
-41578.9
-31660.9
-28710.7
-26777.8
-25221.5
-12533.9
-10546.5
-9459.9
-8626.92
-7922.41
-19223.9
-15039.1
-13706.5
-12793.8
-12068.4
-5479.69
-4614.71
-4164.82
-3716.82
-3431.89
-7084.21
-5578.48
-5096.57
-4766.82
-4505.03
-2262.15
-1795.74
-1629.57
-1415.66
-1301.95
-708.744
-4771.98
-13850.5
-1973.72
-9400.93
-4770.76
-8494.98
-4704.07
-20184.5
-11988
-24653.8
-14497.9
-2.83805e-05
-0.000131757
-0.000410876
-0.000967536
-0.000459526
0.0149796
-0.000123726
-0.000597296
-0.0019797
-0.00536132
-0.00960629
0.00678483
-7.14122e-06
-2.64606e-06
-3.31162e-05
-1.5409e-05
-8.13025e-05
-6.03625e-05
0.000212057
-3.79825e-05
0.00207898
0.00030927
0.0103394
0.00462289
0.151027
1.10264
6.55745
8.63822
4.91491
-2.64181
0.16384
0.903767
3.14269
5.41097
5.32099
1.67484
-2.04771e-05
-1.28663e-05
-6.91731e-06
-3.14207e-06
-8.75874e-07
-9.42809e-05
-5.8621e-05
-3.11869e-05
-1.40398e-05
-3.89203e-06
-0.000290052
-0.000177383
-9.28469e-05
-4.12373e-05
-1.13356e-05
-0.000669614
-0.000399773
-0.000204534
-8.91922e-05
-2.42368e-05
-0.00028372
-0.000143565
-6.16255e-05
-2.29843e-05
-5.5723e-06
0.0102031
0.00601566
0.0030471
0.00131883
0.00035677
-8.84621e-05
-5.498e-05
-2.92328e-05
-1.31522e-05
-3.64448e-06
-0.000423624
-0.000260689
-0.000137263
-6.1255e-05
-1.68882e-05
-0.00138757
-0.000842062
-0.000437469
-0.00019309
-5.28721e-05
-0.0037064
-0.00221409
-0.00113354
-0.000494528
-0.000134429
-0.00653253
-0.00383154
-0.00193001
-0.000831614
-0.000224289
0.00461936
0.00271882
0.00137464
0.000593955
0.000160512
-5.20302e-06
-3.29811e-06
-1.79049e-06
-8.20359e-07
-2.29894e-07
-1.9414e-06
-1.24396e-06
-6.83198e-07
-3.16194e-07
-8.91847e-08
-2.38727e-05
-1.49332e-05
-7.99815e-06
-3.62201e-06
-1.00792e-06
-1.11779e-05
-7.06506e-06
-3.8248e-06
-1.74805e-06
-4.89077e-07
-5.74685e-05
-3.50556e-05
-1.83121e-05
-8.12031e-06
-2.2299e-06
-4.30622e-05
-2.66815e-05
-1.41507e-05
-6.35327e-06
-1.75742e-06
0.00015094
9.35571e-05
4.95541e-05
2.22119e-05
6.14207e-06
-2.63467e-05
-1.592e-05
-8.22884e-06
-3.60903e-06
-9.80622e-07
0.0014453
0.000869989
0.000448658
0.000196925
5.37508e-05
0.000215544
0.000129104
6.64299e-05
2.91825e-05
7.98527e-06
0.00702878
0.00412832
0.00208455
0.000900665
0.00024337
0.00311826
0.00180659
0.000900708
0.00038552
0.000103542
0.099348
0.0564537
0.0277713
0.0117785
0.00314286
0.699667
0.384105
0.18457
0.077169
0.0203526
3.98293
2.10967
0.99541
0.412722
0.107624
4.97388
2.67718
1.27898
0.533308
0.140822
3.74578
2.20174
1.04003
0.418958
0.103233
-0.627765
-0.120509
-0.0564278
-0.0326849
-0.0029605
0.108045
0.061474
0.0302367
0.0128141
0.00341821
0.582553
0.324568
0.157313
0.0660507
0.0174936
1.97604
1.07956
0.51722
0.215764
0.0567831
3.34407
1.82051
0.87119
0.362913
0.095273
3.40885
1.88039
0.898359
0.371871
0.0964103
1.16576
0.665709
0.319405
0.131669
0.0348087
2.83884e-05
0.000131904
0.000412011
0.000974496
0.000498715
-0.0147834
0.000123527
0.000596679
0.00197768
0.00535535
0.0095988
-0.00673402
7.18321e-06
2.6807e-06
3.34208e-05
1.5717e-05
8.32478e-05
6.27524e-05
-0.000202009
4.94021e-05
-0.00200635
-0.000477226
-0.00979645
-0.00445814
-0.150131
-1.09864
-6.53276
-8.63551
-5.06875
2.45136
-0.163364
-0.901357
-3.13496
-5.40698
-5.35077
-1.72905
2.04884e-05
1.28728e-05
6.91935e-06
3.14201e-06
8.75588e-07
9.44023e-05
5.87021e-05
3.12285e-05
1.40568e-05
3.89632e-06
0.000290935
0.000177971
9.31651e-05
4.13792e-05
1.13743e-05
0.000674766
0.000403186
0.00020641
9.0053e-05
2.44783e-05
0.000311683
0.000161716
7.16054e-05
2.75991e-05
6.87705e-06
-0.0100647
-0.00592812
-0.00299938
-0.0012968
-0.000350531
8.83511e-05
5.49023e-05
2.91824e-05
1.31244e-05
3.63562e-06
0.000423271
0.000260454
0.000137113
6.11735e-05
1.68621e-05
0.00138654
0.000841393
0.000437043
0.000192858
5.27979e-05
0.00370355
0.00221234
0.00113247
0.000493961
0.000134253
0.00653004
0.00383045
0.00192935
0.000831247
0.000224177
-0.00458759
-0.00269751
-0.00136244
-0.000588141
-0.00015884
5.23406e-06
3.31824e-06
1.80136e-06
8.25132e-07
2.31221e-07
1.96747e-06
1.26081e-06
6.92513e-07
3.20462e-07
9.03902e-08
2.41011e-05
1.5081e-05
8.07857e-06
3.65867e-06
1.01815e-06
1.14055e-05
7.21031e-06
3.90358e-06
1.784e-06
4.99115e-07
5.89011e-05
3.59707e-05
1.88079e-05
8.3466e-06
2.29304e-06
4.4796e-05
2.77689e-05
1.47317e-05
6.61557e-06
1.83035e-06
-0.00014371
-8.90307e-05
-4.71254e-05
-2.11071e-05
-5.83322e-06
3.44661e-05
2.09178e-05
1.08618e-05
4.78644e-06
1.30612e-06
-0.00139397
-0.000838454
-0.000431991
-0.000189433
-5.16704e-05
-0.00033019
-0.00019629
-0.000100121
-4.36084e-05
-1.1856e-05
-0.00664874
-0.00389828
-0.00196486
-0.000847614
-0.000228802
-0.00300443
-0.00173671
-0.000863833
-0.000369016
-9.90153e-05
-0.0987386
-0.056083
-0.027572
-0.0116873
-0.00311749
-0.697031
-0.382566
-0.183759
-0.0768043
-0.0202552
-3.96656
-2.10003
-0.990334
-0.410452
-0.107024
-4.96293
-2.66638
-1.27175
-0.529458
-0.139646
-3.8378
-2.25122
-1.06475
-0.429109
-0.105555
0.50146
0.0439159
0.0159964
0.0147551
-0.00154347
-0.107787
-0.0613142
-0.0301472
-0.012772
-0.00340667
-0.581317
-0.323842
-0.156915
-0.0658693
-0.0174481
-1.9718
-1.07706
-0.515842
-0.215131
-0.056623
-3.34141
-1.81857
-0.869856
-0.362194
-0.0950652
-3.42679
-1.89075
-0.903611
-0.374066
-0.0969192
-1.20132
-0.68655
-0.330538
-0.136765
-0.0361749
-215.711
-55.3855
-0.295791
0.05451
-0.0439428
-0.00915853
-0.129911
-1068.67
-232.645
-172.558
-82.635
-2.55746
-45.4108
-1.02385
1.22556
-0.47814
-561.477
-104.7
-13.4126
-6.1854
-25.9074
-4.79488
-2.12589
-1.34791
-0.240113
-0.353261
-2.92088
-2.41
-674.472
-109.653
-200.023
-46.5296
-18.7793
-85.5826
-1.65879
-0.334015
-3.08077
-97.9287
-51.3773
-24.8468
-10.771
-3.0613
-29.3138
-14.6204
-6.82574
-2.82522
-0.666512
-0.189856
-0.104998
-0.0506364
-0.0212104
-0.00560241
0.0346949
0.0187519
0.00880979
0.00361221
0.000940244
-0.0289164
-0.0162533
-0.00788499
-0.00330362
-0.000871924
-0.00594107
-0.00326005
-0.00156009
-0.000650085
-0.000169729
-0.0858452
-0.0483731
-0.0236207
-0.00996316
-0.00262699
-494.507
-258.064
-121.16
-51.3705
-17.0746
-120.153
-54.9267
-25.6455
-10.7295
-2.67865
-89.0801
-42.5908
-19.6337
-8.12257
-2.06671
-41.4517
-19.0306
-8.89027
-3.75652
-1.00229
-1.56651
-0.831193
-0.389972
-0.16037
-0.0417336
-25.1155
-12.3984
-5.68096
-2.33881
-0.614312
-0.613693
-0.321257
-0.150166
-0.0620361
-0.0163798
0.705526
0.354087
0.16066
0.065998
0.0177622
-0.28433
-0.146976
-0.0678749
-0.0279121
-0.00740084
-242.916
-130.858
-62.5908
-27.0523
-9.13725
-53.9985
-25.7863
-12.0129
-5.01252
-1.27004
-7.91271
-4.08549
-1.89753
-0.779838
-0.203085
-3.66106
-1.89262
-0.87975
-0.362052
-0.0944071
-14.6825
-7.37663
-3.40366
-1.40201
-0.365282
-3.18382
-1.71215
-0.806756
-0.33247
-0.0830597
-1.29336
-0.676906
-0.317032
-0.13101
-0.0338193
-0.863903
-0.471323
-0.224437
-0.0931445
-0.0243108
-0.150003
-0.0810098
-0.0384091
-0.0158669
-0.00414013
-0.224874
-0.123023
-0.0586719
-0.0243518
-0.00640068
-1.78559
-0.946465
-0.443845
-0.182974
-0.0480072
-1.49084
-0.796637
-0.375175
-0.154957
-0.0406542
-303.43
-150.794
-73.3154
-31.8793
-9.56703
-57.5729
-28.576
-13.3512
-5.549
-1.36542
-103.321
-50.1312
-23.4601
-9.84005
-2.32518
-24.3613
-12.4695
-5.85825
-2.44087
-0.640782
-11.0357
-5.66883
-2.6435
-1.09279
-0.282193
-48.6451
-22.431
-10.3014
-4.27229
-0.950369
-1.04265
-0.558899
-0.263929
-0.109214
-0.0283271
-0.213154
-0.116503
-0.0555053
-0.0230358
-0.00605178
-1.94377
-1.03786
-0.488177
-0.201347
-0.051839
-0.101247
-0.375175
-0.905361
-1.9886
-4.07058
-7.44077
-45679.7
-36411.7
-29566.2
-37266.8
-29058.3
-20935.5
-22515.6
-15097.6
-47839.6
-41763.7
-39663.8
-36437.5
-33094.5
-24023.1
-33635.2
-34781.1
-29158.9
-22320.6
-26989.8
-22895
-16483.6
-17044.4
-11254.5
-38227.9
-35353.3
-33480.1
-32140
-27376.9
-20779.2
-30196.7
-22328.2
-19376.6
-14429.4
-16948.8
-15427.9
-11540.8
-11234.6
-7955.42
-24830.7
-26433.9
-22745
-25074.5
-19516.7
-15254
-23675.2
-10342.5
-9358.25
-6661.62
-7556.92
-7742.5
-6379.55
-5401.21
-4220.62
-12968.5
-16623.5
-12290.7
-15861.4
-11104.6
-9123.03
-14885.1
-4317.89
-4012.74
-2700.89
-2992.29
-3449.82
-3035.72
-2259.85
-1856.41
-6042.28
-9089.9
-5823.29
-8609.77
-5482.23
-4702.12
-8016.4
-1140.86
-1078.04
-692.572
-755.684
-961.802
-905.445
-590.829
-498.092
-1780.55
-3098.59
-1736.67
-2821.32
-1696.72
-1503.8
-2576.86
-8928.14
-8027.11
-16327.7
-19422.3
-7194.23
-5540.06
-13555.6
-9363.51
-4498.67
-1756.41
-4195.64
-1751.99
-3758.93
-3561.56
-1814.63
-7667.93
-6775.11
-13265.5
-15553.1
-5764.06
-4147.48
-10631.7
-7141.53
-3430.43
-854.432
-3126.76
-874.429
-2382.94
-2118.22
-935.622
-5301.69
-4659.2
-8898.81
-10302.6
-3895.8
-2747.33
-7112.06
-4926.39
-1933.96
-652.262
-1722.93
-709.642
-1331.5
-1209.34
-753.954
-2586.26
-2283.5
-4200.1
-4772.56
-1895.84
-1388.1
-3418.31
-2532.98
-1191.07
-510.15
-1088.26
-529.364
-883.161
-799.539
-527.016
-1055.41
-937.083
-1686.77
-1888.27
-770.704
-573.486
-1397.21
-1062.6
-548.384
-316.729
-504.115
-309.977
-425.536
-382.615
-288.219
-266.06
-238.151
-424.645
-470.1
-203.1
-162.971
-357.162
-280.296
-149.452
-117.84
-139.863
-106.919
-124.947
-115.457
-93.6129
25554.7
72215.2
20236.5
72727.2
12721.3
69355.4
14876
91455.7
21212.7
112191
24366.3
91773.5
27472.7
87987.7
28678.4
81460.8
13102.7
6762.01
35364.9
16469.1
11626.9
4866.57
33786.6
12833.6
22505.7
19431
62519.2
53613
16091.4
14703.5
58596
51804.2
29807.6
12950.2
20320.8
8554.42
13870.8
31015.5
98128.6
29565.1
30397.9
13724.7
103998
32347.2
24807.2
11460.2
76831.9
25516.6
36506.2
17150.7
73676.2
22653.1
26971.5
14150.5
43356.5
18344.4
23630.5
13811
42408.3
17081.8
25613
16435.6
24410.1
10924.1
41528.9
16554.8
16254
6710.14
21013.4
13032.6
14540
9802.88
15424.9
10509.4
10368.1
7183.71
17981.8
13017.6
22829.5
16261.2
11575.4
7543.89
6551.34
4692.29
8513.61
5613.71
4741.41
3598.86
14128.6
9493.42
8136.25
5227.34
19693.1
13124.8
18943.1
27791
25495.9
23700.7
25907.3
45984.6
14506.1
7294.28
12437.7
16782.3
8163.93
3449.05
5814.53
6417.09
27100
47171.2
19770.3
60752.9
27230.8
43622.3
22552.6
62088.9
30699.5
38173.2
28972.1
59568.6
15309.3
11089.3
18337.6
24026.8
35344.7
5621.54
11287.6
22586.9
37264.8
75462.3
7941.83
10202.7
14152.6
26057.8
57865.6
47803.4
27943
60602.2
32805.6
42193.8
25619.7
59065.5
32086.9
33813.5
21637.2
53590.8
30271.1
4965.46
2855.33
9158.76
5673.23
16116.7
10593.4
27436.6
17339.7
49311.7
28402.2
3782.89
2371.33
7205.42
4919.19
12756.7
8904.46
22748.5
15447.1
44200.7
26601
7580.17
2867
5765.03
2627.59
5074.62
2247.74
3932.02
1935.97
8584.24
4333.25
11525.9
4886.57
3256.32
1898.78
1182
658.237
2526.56
1388.57
892.49
479.298
4550.24
2937.42
1633.68
1022.24
12897.9
5971.81
21058.4
7497.46
19268.6
8240.5
32986.8
12577.8
7302.06
3798.82
11798.7
4100.35
4612.55
2552.89
5685.64
2678.77
13556.3
4703.02
1021.95
15225.6
5148.84
1145.05
12508.6
4255.91
936.506
14786.9
4957.63
1061.28
10376.2
3302.33
661.377
13928.8
4543.97
927.225
1038.39
303.784
55.8481
2485.47
803.429
151.059
4955.66
1580.5
300.356
8123.71
2501.28
479.249
12772.7
3930.07
768.182
1046.46
274.288
52.5641
2255.3
703.466
142.547
4111.29
1274.5
250.316
7054.35
2082.72
394.411
11434.8
3154.6
593.112
1403.96
1186.29
3464.48
3019.71
5326.4
2911.64
11606.4
6750.81
548.756
279.341
586.557
299.922
670.455
436.494
895.887
615.475
2167.58
1123.32
2289.27
1369.95
837.335
1637.71
4479.9
1467.78
11022.9