/*--------------------------------*- C++ -*----------------------------------*\
| =========                 |                                                 |
| \\      /  F ield         | OpenFOAM: The Open Source CFD Toolbox           |
|  \\    /   O peration     | Version:  2412                                  |
|   \\  /    A nd           | Website:  www.openfoam.com                      |
|    \\/     M anipulation  |                                                 |
\*---------------------------------------------------------------------------*/
FoamFile
{
    version     2.0;
    format      ascii;
    arch        "LSB;label=32;scalar=64";
    class       volScalarField;
    location    "0.1";
    object      gradTx;
}
// * * * * * * * * * * * * * * * * * * * * * * * * * * * * * * * * * * * * * //

dimensions      [0 -1 0 1 0 0 0];

internalField   nonuniform List<scalar> 
5712
(
-17040.1
-24851.3
-35363.4
-67882.2
-52946
-122446
-33801.9
-118299
-35556.4
-94009.5
-43916.9
-85354.4
-32840.1
-53749.9
-18077.3
-22287.8
-28018.6
-29854.1
-43224.7
-37820.6
-20716
-25095.1
-36928.8
-31964.8
-13734.2
-11646.3
-22170.1
-18559.3
-29742.8
-22682.5
-65938.4
-53815.6
-44818.9
-39496.7
-51239.5
-46241.6
-11343.7
-13337.7
-102142
-123138
-55215.5
-73042.8
-112830
-137218
-49651.2
-63303.3
-86596.6
-111740
-72705.2
-98361.7
-51195.9
-59553.5
-9991.87
-3138.07
-15890.9
-5900.56
-21347.3
-9583.46
-45458.1
-18111.6
-20713.9
-7515.75
-25331.7
-7881.55
-54581.7
-17854.6
-71434.6
-25368.6
-36575
-19800.2
-36357.6
-21367.3
-27438.8
-15504.6
-26778.2
-16115.2
-38550.9
-24843.9
-37649.4
-22412.3
-39753.2
-23120.9
-44192.9
-24495.2
-30617.2
-17430
-34744.7
-18496
-42597.9
-27188.4
-47459.1
-28915.6
-50846.3
-26192.6
-31532.1
-49559.8
-49523.7
-28841.4
-28930.9
-49419.4
-54504.1
-25210.7
-34019.5
-50000.8
-58534.3
-25953.4
-36054.9
-50927.4
-8388.95
-8605.36
-2719.09
-6863.35
-23239.9
-25161.5
-11011.4
-23423.8
-32878.4
-36263.3
-20426
-39638.8
-13616.3
-4474.01
-25885.5
-47353.7
-34315.9
-1923.29
-5021.82
-15955.9
-43197.7
-46813.1
-7276.75
-14408
-23938.2
-34808.3
-64796.1
-6184.49
-3502.23
-4323.43
-2413.94
-17272.6
-9092.95
-14319.9
-7540.3
-24017.7
-12718.6
-22660.3
-11946.6
-3305.74
-2076.51
-7683.35
-5003.32
-17274.7
-10098.9
-29775.1
-16706.5
-34031.9
-19035.5
-5244.22
-2692
-10659.6
-5106.85
-17235.9
-8277.44
-25508
-12070
-43698.4
-19176.2
-10493.3
-3101.85
-10235.6
-4023.75
-6517.61
-2814.22
-7092.06
-3233.65
-15467
-6721.77
-16579.4
-5160.66
-10631.2
-5257.14
-11606.3
-5839.43
-7734.83
-3947.67
-8592.44
-4431.51
-15792.3
-8542.95
-16943.3
-9368.77
-29112.9
-11380.1
-51436.8
-15673.3
-27929.3
-8477.41
-48360.4
-12276.3
-28879.6
-12895
-52011.7
-16122.5
-28420.3
-14196.6
-49511.5
-18072.8
-1664.25
-634.133
-175.636
-1121.18
-462.699
-147.474
-4136.45
-1283.88
-277.658
-3357.92
-1031.15
-215.51
-4915.21
-1256.73
-315.61
-5358.72
-1352.26
-324.084
-797.206
-152.821
-29.3673
-2295.95
-440.694
-71.5633
-3943.61
-808.645
-129.243
-6482.93
-1482.98
-287.83
-8492.61
-1923.22
-338.478
-1163.37
-256.142
-49.0465
-1854.28
-426.472
-72.5751
-3122.8
-693.464
-112.437
-4752.9
-1071.49
-179.048
-8244.63
-1704.04
-251.955
-8049.58
-10445.8
-8562.1
-10377.7
-11172.7
-16552.4
-12617.6
-18442.4
813.837
132.324
1280.63
368.989
42.1039
-735.438
884.774
2.77947
-53.2421
-896.685
-5125.14
-5794.83
-1382.8
-1081.96
-10679.7
-11641.5
-22010.1
-26895.4
-70.0729
3091.44
-5049.67
-4347.81
-2480.66
-1321.76
-93.4541
-82.9039
-18.1485
-78.8841
-609.837
-107.412
-229.419
-43.3828
-2293.26
-334.051
-2107.49
-369.503
-2949.94
-466.14
-3658.93
-577.72
-7010.92
-4625.84
-6579.85
-4735.4
-14672.8
-9720.98
-14565.3
-9876.6
-3388.34
-2153.52
-3289.9
-1947.37
-7110.72
-4951.05
-8287.21
-5227.55
-16193.6
-10408.3
-18537.2
-11002.6
-3479.37
-2254.22
-3724.41
-2344.13
-119.988
-33.8123
-824.425
-140.991
-154.454
-21.971
-705.899
-114.887
-216.562
-35.0909
-891.222
-157.752
-352.605
-44.5356
-922.501
-167.169
40.787
22.7759
-22.0562
-4.54482
101.675
74.3811
-32.6991
-4.50878
-132.812
-57.9509
-113.854
-56.5575
761.768
341.979
282.193
152.398
14.5196
1654.49
1602.74
394.162
256.583
22.9495
-3986.35
-2105.73
-998.846
-476.954
-86.1806
9.5063
3.90982
-1.18731
-0.00137936
25.9123
12.719
-3.7811
-0.197963
10.003
12.3222
-18.1491
-4.52889
-37.3253
-184.268
532.095
133.239
86.8442
1.77427
64.969
16.3457
3.47103
2.15485
-1815.49
-748.561
-516.332
-137.125
-185.06
-39.627
-78.4137
-11.8196
-0.290156
4.81001
-1267
-491.47
-1930.81
-620.464
-3041.97
-1095.64
-3938.07
-1302.75
-837.88
-257.143
-480.218
-204.089
-2189.11
-615.582
-2444.27
-686.983
-4504.44
-1383.89
-5070.82
-1545.6
-960.287
-234.682
-1063.12
-255.31
-298.993
-90.7419
-39.5011
-27.5262
-174.573
-76.8577
-18.5285
-20.992
-318.706
-80.1873
-49.7789
-30.2678
-381.383
-82.962
-71.6584
-24.3644
0.802633
0.117107
0.0277884
-0.114065
-0.00321283
0.000286212
2.39519
0.417655
0.132431
-0.394403
0.0112529
0.0197962
2.67242
0.874794
0.23955
-1.61661
0.0640216
0.0454625
-117.443
-13.4552
-1.60308
-16.0771
3.18236
1.68277
-10.2944
0.208746
0.569349
-1.1304
0.546298
0.347866
-1.713
-0.0238894
0.0268524
-281.92
-51.0152
-8.32403
-70.5767
-9.64889
-0.806238
-28.2372
-3.22345
-0.101729
-11.161
-1.25862
-0.0180368
-4.08501
-0.42069
-0.0248412
-0.500259
-0.0687331
-0.0109666
-0.00231009
1.68876
0.169217
0.0350184
0.00381781
-3.24232
-0.335279
-0.0295878
-0.00623331
1.77072
0.20672
0.0611521
0.00562189
-9.61617
-0.926377
-0.0818905
-0.00919487
-6.03566
-0.534087
-0.0472048
-0.00473017
-7.15136
-0.626781
-0.0766136
-0.00812758
-9.28951
-0.832603
-0.0652313
-0.00543574
-19.9137
-1.99811
-0.240967
-0.0246129
-17.2461
-1.82168
-0.232271
-0.024555
-15.1423
-1.51074
-0.168622
-0.013029
-13.5308
-1.41887
-0.188557
-0.0212588
-20.5589
-2.0439
-0.222881
-0.0228285
-19.3927
-2.05729
-0.253262
-0.0271599
-21.6992
-2.14843
-0.211714
-0.0215557
-20.5525
-2.18057
-0.266099
-0.0298817
-0.354009
-0.0537505
-0.0131241
-0.00303734
-0.0931383
-0.0255844
-0.00893702
-0.00186805
-1.72359
-0.219067
-0.0341365
-0.00687406
-0.357339
-0.0766516
-0.021959
-0.00488792
-7.54407
-0.843344
-0.107954
-0.015634
-4.95728
-0.580306
-0.0752409
-0.00863272
-6.41464
-0.722307
-0.084775
-0.00585225
-2.64177
-0.333667
-0.0488953
-0.00629226
-10.356
-1.12264
-0.14759
-0.0140058
-0.0430628
-0.00771519
-0.00251674
-0.000429534
0.129713
0.0175917
0.0013178
0.00010028
-0.549443
-0.0704341
-0.0126262
-0.00167971
0.240513
0.0327227
0.00170312
0.00011227
-1.66865
-0.202135
-0.0283035
-0.00307715
0.239369
0.0287908
0.000527727
-2.70694e-05
-2.4896
-0.291885
-0.0403132
-0.00457993
0.123063
0.0115421
-0.00294635
-0.000467571
-3.7082
-0.40603
-0.0592196
-0.00685872
-0.363678
-0.0332279
-0.00963491
-0.00104431
-9.15373
-0.938982
-0.11759
-0.0113352
-2.81677
-0.26962
-0.028743
-0.00257295
-6.4722
-0.666907
-0.0901253
-0.00918618
-1.77231
-0.159987
-0.0201015
-0.00184625
-10.7637
-1.12464
-0.137287
-0.014271
-3.28904
-0.330858
-0.0338733
-0.0032212
-11.5653
-1.23069
-0.149652
-0.0163023
-3.54648
-0.373011
-0.0375969
-0.00366499
-0.000313985
-2.88241e-05
-2.37522e-06
-1.74333e-07
-1.15549e-08
8.1657e-05
3.11545e-06
3.60047e-07
6.61954e-08
1.15593e-08
-0.000997917
-8.66688e-05
-6.74992e-06
-4.7618e-07
-3.11697e-08
-9.69614e-05
-3.10217e-06
1.10393e-06
2.61227e-07
4.35003e-08
-0.00126152
-9.62714e-05
-6.51678e-06
-3.73589e-07
-1.46056e-08
-0.000313054
-3.82982e-07
2.93811e-06
5.42397e-07
8.02373e-08
-0.000458671
-2.74254e-05
-1.1844e-06
7.84597e-09
1.18631e-08
-0.000703864
-6.31359e-05
-5.02733e-06
-3.65e-07
-2.55189e-08
-0.00143517
-9.95604e-05
-6.36381e-06
-3.46172e-07
-1.18474e-08
-0.00101293
-7.51706e-05
-5.54103e-06
-4.00914e-07
-3.00342e-08
-0.000459832
-1.05635e-05
1.74297e-06
3.88242e-07
5.9874e-08
-0.000759338
-5.15087e-05
-3.32564e-06
-1.93858e-07
-9.19137e-09
-0.00180604
-0.000143836
-1.11476e-05
-8.3844e-07
-6.51788e-08
-0.00110808
-8.35481e-05
-6.19653e-06
-4.48106e-07
-3.34346e-08
-0.00208351
-0.000175697
-1.41478e-05
-1.0949e-06
-8.74942e-08
-0.00135177
-0.000106258
-8.25091e-06
-6.28661e-07
-5.01183e-08
-0.000349186
-2.93854e-05
-2.3458e-06
-1.74912e-07
-1.26265e-08
-0.000104319
-7.36497e-06
-4.75993e-07
-2.36075e-08
-1.31814e-10
-0.000770177
-6.22565e-05
-4.66938e-06
-3.20692e-07
-2.02877e-08
-0.000242862
-1.61349e-05
-8.81561e-07
-2.27108e-08
3.96368e-09
-0.001309
-9.46885e-05
-6.57187e-06
-4.23047e-07
-2.48301e-08
-0.00015505
-1.73909e-06
7.43978e-07
1.42096e-07
2.12373e-08
-1.80716e-05
2.13714e-05
3.56218e-06
4.51209e-07
5.61734e-08
0.000213555
2.75678e-05
2.98654e-06
3.0581e-07
3.31934e-08
7.06493e-05
2.05095e-05
2.84369e-06
3.37035e-07
4.01377e-08
-179.953
-436.119
-708.995
-1538.16
-1651.27
-3152.12
-2940.73
-5484.22
-4841.53
-8004.2
-6861.44
-9230.6
-6445.2
-8811.76
-6494.93
-9057.83
-5929.91
-8563.93
-4447.24
-3265.24
-2929.43
-2710.31
-2510.13
-1101.48
-700.392
-455.907
-397.992
-116.97
-14501.5
-10681.5
-9607.74
-8913.4
-8310.15
-3618.32
-2596.85
-2199.06
-1908.15
-1396.44
-25496.3
-18875.2
-17026.3
-15838.2
-14862.2
-7297.32
-5902.36
-5232
-4728.22
-4207.73
-36456.1
-27093.1
-24517.7
-22873.3
-21546.7
-11810
-9961.71
-8979.26
-8229.69
-7557.21
-51790.5
-39008.3
-35461.8
-33198.9
-31383.2
-18722.4
-16308.9
-14879.5
-13781.3
-12838.3
-74358.8
-58309.2
-53434.7
-50256.7
-47672.1
-23066.7
-20315.7
-18646.4
-17391.2
-16308.1
-66101.6
-51122.6
-46689.1
-43815.6
-41501.3
-22219
-19601.7
-18022.7
-16832.9
-15814.9
-78226.3
-61690
-56557.8
-53226.4
-50466.3
-22972
-20104.2
-18386.1
-17136.1
-16027.7
-80587
-63388.9
-58118.8
-54838.6
-52022.4
-23343.4
-20460.9
-18691.8
-17305.3
-16185.6
-1542.19
-13109.9
-10849.3
-3886.89
3222.51
5174.09
7995.74
13202.3
4519.2
13263.2
-3142.56
1921.98
1766.13
7796.86
10927.5
19779
12034.9
16873.6
6650.22
8983.8
-1656.15
-640.642
-2.12491
-0.356952
-0.193107
-0.176639
-0.43683
-928.24
-332.043
-216.173
-96.323
-20.5208
-11.9025
-39.6315
-5.38871
-3.17692
-2.40491
-1.13684
-1367.98
-198.224
-5.08334
-13.4137
-53.9258
-15.1757
-10.1671
-3.76198
-0.537668
-0.861519
-2.64293
-3.47682
-1448.89
-406.718
-399.79
-107.959
-49.8303
-114.129
-6.57336
-2.04763
-9.41833
-726.898
-422.139
-200.876
-86.4284
-26.4299
-311.21
-150.389
-70.9433
-29.8384
-6.95032
-1.34287
-0.72667
-0.344373
-0.142574
-0.0372879
-0.23284
-0.130239
-0.0630957
-0.0264558
-0.00700034
-0.125115
-0.0696626
-0.0335551
-0.0139944
-0.00370311
-0.116944
-0.0664727
-0.0325549
-0.013734
-0.00365462
-0.282062
-0.156326
-0.075085
-0.0312763
-0.00826105
-397.045
-203.083
-92.909
-38.8665
-13.5518
-103.004
-43.4704
-16.0997
-5.87256
-1.80136
-101.064
-45.2467
-20.2322
-8.28978
-2.17962
-32.1138
-13.1111
-5.05214
-1.92415
-0.58949
-6.63937
-2.55673
-0.958881
-0.36771
-0.105356
-6.45221
-3.09896
-1.36316
-0.542717
-0.141235
-19.261
-8.72893
-3.7995
-1.51998
-0.400808
-2.57883
-1.14596
-0.48471
-0.189603
-0.0496187
-1.83316
-0.921358
-0.413823
-0.165841
-0.0431554
-1.3553
-0.668832
-0.296516
-0.117873
-0.0306077
-0.674621
-0.346611
-0.15736
-0.0632797
-0.0164865
-609.91
-310.308
-146.619
-62.4958
-20.6616
-99.6317
-47.1851
-21.7227
-9.00013
-2.33788
-2.92438
-1.47315
-0.669395
-0.271289
-0.0705614
-7.7889
-3.9631
-1.81923
-0.742573
-0.193362
-29.9354
-14.8052
-6.76409
-2.76768
-0.71772
-8.96251
-4.59797
-2.12137
-0.868354
-0.225037
-6.18809
-3.22444
-1.49892
-0.615468
-0.158668
-2.31589
-1.22933
-0.57478
-0.236022
-0.0617279
-0.331623
-0.176247
-0.0820159
-0.0334744
-0.00876371
-0.542486
-0.294205
-0.139227
-0.0574806
-0.0151207
-1.57807
-0.817342
-0.375833
-0.152841
-0.0398799
-2.10238
-1.10215
-0.511831
-0.209493
-0.0547771
-631.786
-342.938
-164.614
-70.9611
-22.0755
-200.201
-96.3644
-45.4209
-19.1277
-4.77705
-210.715
-102.376
-46.5727
-19.1319
-4.71292
-60.35
-28.6531
-13.1795
-5.45506
-1.32962
-28.9085
-14.3451
-6.57531
-2.69594
-0.675966
-63.6714
-30.1266
-13.797
-5.69141
-1.35886
-3.97589
-2.07455
-0.961853
-0.393729
-0.102347
-1.29918
-0.70736
-0.335703
-0.138889
-0.0365069
-5.69909
-2.97767
-1.38233
-0.566373
-0.147348
-14805.7
-33948.4
-24536.6
-87635.3
-20627.2
-99014.5
-14737.4
-39275.2
-19065.2
-18014.2
-42540.8
-34724.8
-15981.2
-16414.1
-40107.5
-30276.2
-10882.9
-8342.72
-26180
-21005.5
-19024.4
-11900.1
-71710.2
-57691.7
-38535.7
-22585.4
-46193.4
-28687.2
3462.78
-8108.86
-103365
-123583
-54346.8
-72938.6
-113690
-137538
-49084.7
-63198.4
-87312.9
-112207
-71492.6
-98276.2
-52549.5
-60098.2
-7346.94
-1792.79
-17011
-6030.15
-14337.1
-7569.84
-47276.1
-18508.1
-8662.13
-4583.58
-21477
-6823.58
-54379.4
-17723.4
-71603.6
-25396.2
-27515.6
-16688.6
-33961.4
-20205
-19653.2
-12485.8
-24851.7
-15123.2
-36506.4
-23843.3
-30319.9
-20039.4
-38967.9
-22706.4
-44039.7
-24399.1
-29973.3
-17082.9
-34601.1
-18414.7
-41992.2
-26818
-47350.5
-28827.1
-49489.4
-25888.6
-30775.3
-49326
-44865
-27788.5
-27108.6
-48869.5
-54144.2
-25122
-33739.3
-49909.2
-58492.8
-25942.6
-35989.5
-50906
-1816.85
-1473.31
-9.31287
-4068.71
-7807.61
-9689.06
-7147.77
-19455.9
-12113.8
-16316.7
-15991.7
-35401.7
-19164.9
-12737.5
-24787.8
-38259.5
-32627.8
-6582.08
-7657.37
-13404.6
-33489
-45410.3
-11218.3
-16218.6
-22409.1
-31069.2
-63645.3
-2750
-1930.56
-2720.06
-1721.61
-8863.04
-5217.59
-11737
-6325.93
-11745.6
-6456.72
-19895.9
-10569.4
-5353.51
-2805.48
-7602.24
-4459.25
-13770.6
-7776.26
-23195.5
-13174.7
-32770.6
-18331.2
-7225.83
-3186.17
-11030
-4878.35
-15538
-7265.33
-22962.7
-10769.4
-42892.8
-18442.2
-9961.53
-2987.04
-9780.51
-3915.83
-6454.01
-2864.73
-6779.89
-3171.53
-14956.6
-6580.77
-15625
-4876.9
-10415.2
-5202.5
-11546.4
-5824.31
-7560.42
-3903.96
-8541.21
-4417.86
-15577.6
-8487.5
-16886.7
-9354.95
-28692.5
-11250.7
-51263.8
-15598.6
-26913.5
-8152.1
-47967.3
-12078.6
-28727.6
-12850.2
-51949.2
-16099.9
-28381.3
-14186.5
-49499
-18069.3
-1280.89
-801.787
-978.415
-824.669
-3023.73
-1669.34
-3311.9
-2232.15
-3224.35
-1642.45
-5632.61
-2983.55
-1363.02
-398.161
-2603.24
-776.08
-3839.52
-1219.2
-6476.61
-2417.76
-9884.48
-3634.84
-1382.2
-313.06
-1761.67
-362.902
-2850.62
-574.654
-4399.33
-894.224
-7686.4
-1137.3
-4260.12
-6277.95
-5062.15
-8672.82
-8736.49
-10810.2
-13696.6
-17057.5
-792.9
-396.109
-625.898
-298.093
-2007.96
-1196.77
-1934.44
-1020.39
-867.06
-1019.74
-4613.92
-3785.48
-1007.97
-1318.58
-10048.9
-11498.1
-21410.1
-26741.6
24.2064
3098.94
-4758.1
-4270.3
-2346.58
-1290.37
-237.885
-114.765
-249.181
-121.744
-621.676
-144.282
-510.83
-91.4303
-1744.79
-329.092
-2071.28
-383.06
-2842.49
-458.087
-3615.2
-572.94
-4312.77
-3657.6
-5762.92
-4332.97
-9802.07
-7715.96
-13274.8
-9183.75
-3044.43
-1985.66
-2140.7
-1625.27
-6787.05
-4795.31
-8206.83
-5189.08
-15720.7
-10157.6
-18419.7
-10942.3
-3331.7
-2181.49
-3684.22
-2324.76
-163.733
-44.1793
-783.552
-138.432
-160.641
-34.7702
-652.121
-114.006
-220.283
-38.4741
-869.251
-155.75
-348.843
-45.0011
-915.986
-166.447
-148.599
-118.519
-80.267
-58.4833
-419.628
-346.916
-114.979
-84.8437
-1112.15
-924.596
-215.437
-163.063
-2328.78
-5950.49
-1043.53
-29.018
-6.84679
-2258.43
-693.281
-724.687
119.616
9.82852
-7047.41
-3372.75
-1450.88
-617.405
-106.123
-99.1508
-60.7348
-43.9191
-24.9724
-289.643
-170.974
-67.1021
-39.9606
-619.189
-342.242
-103.255
-58.353
-2153.7
-1134.3
-640.395
-435.938
-645.41
-392.075
-83.0031
-89.9101
-11.0079
-11.6463
-3655.88
-1339.93
-1423.55
-486.774
-550.109
-201.491
-201.971
-70.914
-14.5497
-4.66809
-1376.66
-576.421
-1847.82
-614.633
-3180.59
-1216.19
-3770.77
-1286.05
-810.701
-257.648
-547.656
-250.347
-2127.21
-603.582
-2424.1
-682.379
-4392.44
-1362.31
-5035.8
-1537.99
-933.591
-230.059
-1053.74
-253.322
-295.958
-92.5872
-41.713
-29.1182
-208.965
-97.6737
-27.491
-28.4057
-311.678
-79.0228
-49.4674
-30.1892
-378.341
-82.3009
-71.257
-24.2674
-29.1076
-16.484
-9.91856
-5.64297
-93.241
-45.4691
-16.6035
-8.03503
-160.627
-58.6218
-19.1731
-4.77889
-587.152
-152.043
-304.073
-75.382
-185.634
-52.4888
-58.429
-20.9758
-8.69568
-2.60696
-462.347
-77.0899
-184.125
-24.9301
-85.6644
-13.7308
-34.9646
-7.40613
-9.08932
-0.536149
-3.25382
-0.32032
-0.0345575
-0.00449248
-1.72377
-0.155018
0.00508894
0.00124428
-8.32799
-0.838945
-0.077319
-0.0106474
-3.78884
-0.357917
0.00452114
-8.03925e-05
-13.763
-1.41377
-0.136124
-0.0149508
-10.3702
-1.04524
-0.110832
-0.012604
-8.14572
-0.784664
-0.0995928
-0.0107811
-9.47273
-0.873272
-0.0716364
-0.00621168
-21.148
-2.19244
-0.271987
-0.0291593
-17.3848
-1.87361
-0.243326
-0.0262811
-17.2408
-1.81189
-0.212703
-0.0192297
-14.0772
-1.52194
-0.2074
-0.0239863
-20.9769
-2.1297
-0.23671
-0.0246013
-19.376
-2.07727
-0.258559
-0.0282021
-21.7794
-2.17173
-0.215779
-0.0221268
-20.531
-2.18531
-0.267566
-0.0301823
-2.79881
-0.275935
-0.0343871
-0.00509073
-2.23498
-0.21818
-0.0292083
-0.00383653
-6.98653
-0.707876
-0.0812725
-0.0114173
-5.48673
-0.541666
-0.0697521
-0.00946916
-12.9949
-1.38631
-0.166195
-0.02161
-10.6795
-1.12614
-0.134216
-0.0142019
-10.8879
-1.18372
-0.137818
-0.0113993
-6.89423
-0.744571
-0.0915307
-0.0100766
-12.6711
-1.37681
-0.183065
-0.0178982
-1.55466
-0.143482
-0.0141126
-0.00144939
-0.819268
-0.076616
-0.00598351
-0.000515533
-4.2158
-0.40239
-0.042553
-0.00439435
-2.16448
-0.207659
-0.0177325
-0.00154599
-5.64504
-0.575732
-0.0641868
-0.00652558
-2.60493
-0.269933
-0.0242642
-0.00218318
-5.96263
-0.634617
-0.0748649
-0.0080873
-2.5546
-0.280888
-0.0273392
-0.00258228
-6.04122
-0.644576
-0.08578
-0.00987308
-2.38781
-0.253965
-0.0286612
-0.00274133
-9.60324
-1.00947
-0.127294
-0.0125924
-3.14724
-0.315306
-0.0333251
-0.00303334
-7.86482
-0.828175
-0.1095
-0.0114341
-2.85629
-0.283178
-0.0312379
-0.00288091
-10.7943
-1.14253
-0.140666
-0.0148263
-3.33076
-0.341166
-0.035201
-0.00337858
-11.5396
-1.23235
-0.150334
-0.0164436
-3.53945
-0.373748
-0.037806
-0.00369808
-0.000549301
-5.50357e-05
-5.10503e-06
-4.45498e-07
-3.98164e-08
-0.000207469
-2.94031e-05
-3.07304e-06
-2.79584e-07
-2.5055e-08
-0.0014983
-0.000141222
-1.23576e-05
-1.02885e-06
-8.86213e-08
-0.000784776
-8.03226e-05
-7.05082e-06
-5.62409e-07
-4.42113e-08
-0.0019295
-0.000166534
-1.36568e-05
-1.07671e-06
-8.79934e-08
-0.00121663
-9.97929e-05
-7.51182e-06
-5.15638e-07
-3.28547e-08
-0.000709832
-5.44653e-05
-4.03509e-06
-2.8387e-07
-1.96779e-08
-0.000789883
-7.28632e-05
-6.09563e-06
-4.78465e-07
-3.82171e-08
-0.00192661
-0.00015107
-1.1612e-05
-8.6567e-07
-6.62097e-08
-0.00113084
-8.69883e-05
-6.69413e-06
-5.10441e-07
-4.11001e-08
-0.00118365
-8.69476e-05
-6.12905e-06
-4.00686e-07
-2.398e-08
-0.000970108
-7.32578e-05
-5.50574e-06
-4.06832e-07
-3.11318e-08
-0.00197878
-0.000160733
-1.27766e-05
-9.92174e-07
-8.05545e-08
-0.00119223
-9.23807e-05
-7.08306e-06
-5.34395e-07
-4.23283e-08
-0.00214908
-0.000182486
-1.48258e-05
-1.16087e-06
-9.42801e-08
-0.00137589
-0.000108689
-8.48049e-06
-6.49309e-07
-5.21194e-08
-0.000558947
-5.18251e-05
-4.64272e-06
-4.01053e-07
-3.60559e-08
-0.000287303
-2.73438e-05
-2.55293e-06
-2.30718e-07
-2.16806e-08
-0.00122941
-0.000110446
-9.54916e-06
-7.98847e-07
-6.9629e-08
-0.000648904
-5.94236e-05
-5.32861e-06
-4.63545e-07
-4.20301e-08
-0.00187376
-0.000151784
-1.22604e-05
-9.76703e-07
-8.19164e-08
-0.000604101
-4.9002e-05
-4.10284e-06
-3.39857e-07
-2.96233e-08
-0.000560651
-3.51741e-05
-2.25717e-06
-1.32486e-07
-6.19318e-09
-5.53259e-05
-1.74655e-06
-8.1219e-08
-4.05233e-09
-2.58659e-10
-0.000217065
-9.90695e-06
-3.21507e-07
1.7267e-08
5.89754e-09
-10.7143
-316.097
-335.023
-1264.42
-1268.85
-2860.42
-2662.13
-5242.95
-4649.52
-7813.03
-6821.7
-9197.61
-6346.85
-8720.58
-6483.1
-9048.19
-5927.39
-8561.99
-4441.14
-3263.27
-2927.68
-2708.76
-2508.73
-1083.43
-698.239
-453.932
-396.787
-116.111
-14496.7
-10681.4
-9607.24
-8913.06
-8309.98
-3580.01
-2594.17
-2199.12
-1909.51
-1398.42
-25501.3
-18877.8
-17027.9
-15839.9
-14864.3
-7253.42
-5898.52
-5231.52
-4729.06
-4209.34
-36462.6
-27093.5
-24517.2
-22873.3
-21547.2
-11771.7
-9958.11
-8978.85
-8229.95
-7557.47
-51798.1
-39010.1
-35462.7
-33200.3
-31384.9
-18694.9
-16306.5
-14879.4
-13781.8
-12838.8
-74360.7
-58309.9
-53435.3
-50257.6
-47673.1
-23061.9
-20315.5
-18646.8
-17391.4
-16307.9
-66105.9
-51123.8
-46689.9
-43816.9
-41502.9
-22205.9
-19600.9
-18023.2
-16833.4
-15815.6
-78226.5
-61690
-56557.9
-53226.5
-50466.2
-22970.2
-20103.6
-18385.7
-17135.7
-16027.1
-80588.5
-63389.7
-58119.5
-54839.4
-52023
-23343.2
-20460.8
-18691.6
-17305
-16185.3
-1456.16
-13036.6
-10553.9
-3369.21
-1801.81
-1191.59
-3308.03
-2774.29
-8671.22
-11102.1
-5611.62
-5856.51
-4.27324e-05
-0.000203374
-0.00103045
-0.00496389
-0.0229371
-0.102798
-6.32868e-05
-0.000421231
-0.00232901
-0.0110662
-0.0466985
-0.177191
-1.4741e-05
-3.66835e-06
-8.00776e-05
-2.54929e-05
-0.000486906
-0.000199974
-0.00290054
-0.00157494
-0.0157761
-0.00978151
-0.08651
-0.0534609
-0.452005
-1.94754
-8.06328
-35.667
-105.491
-210.564
-0.601139
-1.80576
-4.80939
-12.3552
-27.3154
-46.5751
-3.09798e-05
-1.9585e-05
-1.05966e-05
-4.83982e-06
-1.3539e-06
-0.000145686
-9.07504e-05
-4.83658e-05
-2.18055e-05
-6.05038e-06
-0.000728943
-0.000447214
-0.000234778
-0.000104518
-2.8772e-05
-0.00345961
-0.0020857
-0.00107684
-0.000472941
-0.000129097
-0.0157002
-0.00927396
-0.00470042
-0.00203498
-0.000550485
-0.0688277
-0.0396999
-0.0197219
-0.00841421
-0.00225458
-4.55181e-05
-2.84902e-05
-1.52586e-05
-6.90821e-06
-1.92191e-06
-0.000299204
-0.000184463
-9.73049e-05
-4.34905e-05
-1.2002e-05
-0.00163425
-0.00099309
-0.000516585
-0.000228242
-6.2537e-05
-0.00766085
-0.00458373
-0.00235016
-0.00102646
-0.000279224
-0.031844
-0.0187378
-0.0094657
-0.00408747
-0.00110395
-0.118779
-0.0686407
-0.0341547
-0.0145871
-0.00391178
-1.07824e-05
-6.8859e-06
-3.76578e-06
-1.73621e-06
-4.88546e-07
-2.7023e-06
-1.73661e-06
-9.56465e-07
-4.43775e-07
-1.25402e-07
-5.78364e-05
-3.6343e-05
-1.95455e-05
-8.8815e-06
-2.47661e-06
-1.85199e-05
-1.17096e-05
-6.33953e-06
-2.89745e-06
-8.10749e-07
-0.000346589
-0.000213922
-0.00011299
-5.05617e-05
-1.39645e-05
-0.000142983
-8.8705e-05
-4.70943e-05
-2.11634e-05
-5.85952e-06
-0.00202871
-0.00122615
-0.000634542
-0.000279224
-7.63118e-05
-0.00110587
-0.000671403
-0.000348837
-0.000153944
-4.21384e-05
-0.0108092
-0.00638008
-0.00323016
-0.00139715
-0.000377703
-0.00674012
-0.0040034
-0.00203696
-0.000883929
-0.000239438
-0.0578596
-0.0332449
-0.0164462
-0.00699357
-0.00186968
-0.0360569
-0.0209028
-0.0104066
-0.00444188
-0.00119077
-0.294716
-0.165468
-0.0805313
-0.0338908
-0.00899345
-1.23042
-0.670575
-0.320071
-0.133182
-0.0349946
-4.91123
-2.59417
-1.21852
-0.503405
-0.130936
-20.8015
-10.6223
-4.93588
-2.03555
-0.522664
-57.4272
-28.6521
-13.3347
-5.53163
-1.41069
-111.789
-55.3587
-25.7767
-10.6951
-2.63458
-0.395151
-0.22392
-0.109747
-0.0463915
-0.012353
-1.16014
-0.643503
-0.310741
-0.130147
-0.0344054
-3.00648
-1.62858
-0.775327
-0.322241
-0.0845357
-7.46135
-3.93175
-1.8472
-0.763535
-0.198491
-15.7494
-8.09494
-3.77688
-1.56011
-0.402252
-26.2411
-13.3316
-6.20153
-2.55848
-0.647672
-4.27027e-05
-0.000203256
-0.00103005
-0.00496178
-0.0229193
-0.102669
-6.32243e-05
-0.000420744
-0.00232597
-0.01105
-0.046617
-0.176841
-1.4748e-05
-3.68183e-06
-8.02651e-05
-2.57461e-05
-0.000489149
-0.000203893
-0.00291677
-0.00162581
-0.0158557
-0.0103436
-0.0867102
-0.0572277
-0.451198
-1.94279
-8.03915
-35.5296
-105.06
-210.256
-0.599794
-1.8014
-4.7967
-12.3199
-27.2392
-46.5272
-3.09683e-05
-1.95758e-05
-1.05902e-05
-4.83619e-06
-1.35275e-06
-0.000145624
-9.0709e-05
-4.83366e-05
-2.17879e-05
-6.04438e-06
-0.000728811
-0.000447135
-0.000234707
-0.000104467
-2.87531e-05
-0.003459
-0.00208546
-0.00107662
-0.000472776
-0.000129035
-0.0156923
-0.00927041
-0.00469847
-0.00203395
-0.000550167
-0.0687597
-0.039668
-0.0197066
-0.00840743
-0.0022528
-4.5482e-05
-2.84651e-05
-1.52427e-05
-6.8996e-06
-1.91923e-06
-0.000298918
-0.000184272
-9.71853e-05
-4.34264e-05
-1.19818e-05
-0.00163255
-0.000991978
-0.000515903
-0.000227884
-6.24256e-05
-0.00765219
-0.00457822
-0.00234686
-0.00102477
-0.00027871
-0.0318006
-0.0187112
-0.00945041
-0.00407995
-0.00110175
-0.118595
-0.0685312
-0.0340938
-0.0145582
-0.00390367
-1.07909e-05
-6.89069e-06
-3.76787e-06
-1.73706e-06
-4.88786e-07
-2.71168e-06
-1.74254e-06
-9.5964e-07
-4.45152e-07
-1.25762e-07
-5.79816e-05
-3.64365e-05
-1.95946e-05
-8.90259e-06
-2.48216e-06
-1.87077e-05
-1.18295e-05
-6.40411e-06
-2.92653e-06
-8.18858e-07
-0.000348288
-0.000215012
-0.000113571
-5.08195e-05
-1.40347e-05
-0.000145833
-9.04932e-05
-4.8047e-05
-2.15915e-05
-5.97793e-06
-0.00204106
-0.00123405
-0.000638763
-0.000281114
-7.68307e-05
-0.00114211
-0.000693697
-0.000360533
-0.000159147
-4.35697e-05
-0.0108731
-0.00642137
-0.00325239
-0.00140723
-0.00038053
-0.00713336
-0.00424013
-0.00215893
-0.000937468
-0.000254045
-0.0580403
-0.0333695
-0.0165166
-0.0070266
-0.00187918
-0.0386455
-0.0224364
-0.0111863
-0.00478104
-0.00128297
-0.294238
-0.165236
-0.0804236
-0.0338463
-0.00898249
-1.22765
-0.66921
-0.31945
-0.132937
-0.0349394
-4.89719
-2.58707
-1.21524
-0.502115
-0.13064
-20.7225
-10.5813
-4.91655
-2.02788
-0.520925
-57.158
-28.4982
-13.2555
-5.49792
-1.40267
-111.591
-55.2366
-25.7112
-10.6663
-2.62801
-0.394436
-0.223513
-0.109529
-0.0462921
-0.0123267
-1.15776
-0.642201
-0.310069
-0.129852
-0.0343335
-2.99895
-1.62449
-0.77326
-0.321347
-0.0843154
-7.43886
-3.91932
-1.84096
-0.760847
-0.197804
-15.6977
-8.06446
-3.76105
-1.55316
-0.400455
-26.2081
-13.3104
-6.19023
-2.55344
-0.646402
-1652.83
-639.478
-2.12277
-0.357617
-0.228166
-0.187818
-0.447783
-935.613
-440.622
-232.904
-148.969
-13.5192
-53.0894
-4.49613
-5.39882
-2.22466
-1354.96
-199.225
-5.44582
-13.6069
-54.3349
-15.2445
-10.1542
-3.79786
-0.725113
-0.954667
-2.95914
-3.56918
-1438.46
-404.372
-396.787
-107.355
-49.7128
-113.643
-6.611
-2.07138
-9.47675
-724.852
-420.738
-200.114
-86.083
-26.3441
-310.476
-149.949
-70.7091
-29.7363
-6.92972
-1.34316
-0.727658
-0.345199
-0.14306
-0.0374509
-0.233547
-0.130763
-0.0634049
-0.0266064
-0.00704509
-0.148456
-0.0830503
-0.0402003
-0.0168466
-0.00447504
-0.124581
-0.0709713
-0.0348353
-0.0147263
-0.00392487
-0.289971
-0.161224
-0.0776806
-0.0324514
-0.0085912
-420.343
-219.982
-102.991
-43.8576
-15.4408
-179.304
-90.0105
-40.9657
-17.3289
-5.90871
-115.164
-53.7898
-24.9273
-10.5043
-2.84825
-60.6607
-28.268
-12.7743
-5.74135
-1.9408
-7.57359
-3.75519
-1.71191
-0.707419
-0.190537
-27.3521
-12.9498
-5.90945
-2.48737
-0.691915
-2.66709
-1.37711
-0.635793
-0.261844
-0.06972
-3.18326
-1.63585
-0.753714
-0.310378
-0.0827194
-1.34713
-0.706591
-0.328421
-0.135369
-0.0359807
-608.837
-311.1
-147.78
-63.3838
-21.1235
-101.28
-48.4059
-22.46
-9.37595
-2.45781
-3.17992
-1.62545
-0.749454
-0.308184
-0.0812543
-7.9604
-4.08022
-1.88607
-0.774877
-0.202945
-30.4115
-15.1544
-6.97167
-2.87097
-0.74925
-9.04292
-4.65912
-2.1583
-0.886857
-0.230671
-6.19027
-3.23074
-1.50408
-0.618513
-0.1597
-2.34797
-1.25193
-0.587928
-0.242427
-0.0636224
-0.452342
-0.243357
-0.114733
-0.0474568
-0.0125625
-0.604496
-0.329799
-0.157005
-0.065191
-0.0172279
-1.78926
-0.938541
-0.436943
-0.179858
-0.0474328
-2.17248
-1.14661
-0.536002
-0.220762
-0.0580273
-625.861
-339.356
-162.797
-70.2317
-21.9113
-198.805
-95.5966
-45.0325
-18.9685
-4.74347
-210.001
-102.319
-46.7056
-19.2664
-4.7809
-60.0937
-28.5619
-13.1522
-5.45216
-1.33188
-28.9093
-14.3777
-6.60407
-2.71369
-0.682313
-63.568
-30.1485
-13.8383
-5.72302
-1.37193
-4.01434
-2.10313
-0.978926
-0.40219
-0.104885
-1.31808
-0.719907
-0.342706
-0.142192
-0.0374614
-5.75673
-3.01964
-1.40714
-0.57861
-0.151017
-0.119439
-0.444884
-1.07716
-2.35754
-4.73135
-8.39426
-4790.01
-11105
-8986.59
-4104.08
-12871
-13552.1
-10344.4
-12187.4
-3358.98
-402.285
-6754.4
2894.15
-18859.1
-21094.7
4421.69
-3100.6
-7624.82
-6149.12
-2706.07
-8850.34
-7397.39
-7063.7
-6455.99
-1528.72
2359.22
-3186.68
7622.88
-10658.7
-12135.4
7922.79
-1320.31
-3513
-2883.7
-1209.58
-3969.75
-2332.65
-3325.61
-2767.56
-283.85
1552.62
-225.298
4785.05
-4120.41
-3374.7
5740.04
-437.811
-1292.12
-1037.36
-415.739
-1208.13
-321.676
-1221.67
-975.136
56.5591
470.336
296.783
1947.06
-1424.95
-574.178
3059.68
-136.562
-464.496
-348.03
-131.89
-215.021
142.338
-437.268
-376.169
101.823
-87.4476
310.353
424.449
-500.097
-64.5746
753.16
-42.3917
-173.125
-106.962
-37.4786
-123.121
-71.0486
-141.768
-150.258
67.8627
-52.7321
106.182
43.3266
-623.328
-482.687
-266.889
-1005.63
-2208.16
-4895.84
-2234.94
-3520.36
-5029.76
-6372.37
-8519.33
-521.082
-232.273
-1589.84
-689.255
-978.195
-2798.69
-606.192
-772.273
-1717.52
-3575.83
-1585.31
-2666.08
-3371.58
-4623.58
-4895.38
-386.81
-118.785
-1128.56
-404.813
-438.12
-1889.4
-341.489
-422.636
-950.016
-1823.07
-784.315
-1425.11
-1616.25
-2336.82
-2379.89
-187.243
-93.2833
-556.127
-297.632
-266.711
-932.331
-238.68
-169.589
-404.289
-688.573
-287.778
-570.887
-600.829
-927.208
-922.48
-76.0261
-55.6109
-226.485
-164.32
-87.4456
-405.256
-124.246
-57.3741
-135.149
-229.564
-93.5429
-146.726
-179.405
-324.518
-342.733
-25.39
-40.4985
-74.9091
-99.3692
-16.3241
-140.374
-78.5486
-15.7455
-36.0569
-64.5695
-25.4976
-44.2067
-74.5276
-96.9044
-123.648
-9.10773
-23.474
-28.6627
-50.8978
-29.2306
-72.5945
-50.6132
15581.7
22559.7
35389.2
67792.6
52974.6
122425
33813.3
118297
35575.6
94009.3
43974.3
85362.9
32955
53749.9
15493.2
19118.5
28028.4
29852.3
43217.2
37815
20720.4
25094.2
36927.9
31962.9
12662.8
10767.9
20353.8
17034.5
29760.6
22684
65842.2
53734.9
44777
39491
51218.6
46226.8
11333.7
13289.8
102148
123144
55214.1
73043.4
112833
137222
49650.6
63303.4
86601.1
111746
72700.8
98363.2
51208.1
59560.9
9367.29
2974.34
14658.2
5471.61
21297.5
9591.19
45369.9
18089.2
20684.2
7506.73
25289.9
7867.26
54582.7
17854.2
71439.5
25370.2
36568.5
19796.6
36352.1
21364.2
27435.3
15502.6
26775.5
16113.5
38543
24839.8
37640.4
22407.2
39750.4
23118.9
44191.6
24493.7
30615.5
17428.7
34743.6
18494.8
42594.8
27185.9
47458.1
28913.9
50833.1
26188.6
31527.1
49557.7
49507.1
28837
28923.9
49416.5
54500.5
25209.6
34016.9
49999.7
58534.2
25953.4
36053.3
50926.7
7879.1
8061.25
2576.15
6412.06
23150.5
25018.4
11017.8
23347.8
32835.7
36212.4
20414.7
39616.2
13613.3
4473.06
25879.1
47333.9
34311.5
1922.76
5020.57
15951.8
43177.3
46807.5
7275.56
14405
23932.1
34797.2
64791.2
5687.78
3233.33
3889.05
2213.19
17265.7
9065.56
14392.4
7555.91
24004.7
12711.2