/*--------------------------------*- C++ -*----------------------------------*\
| =========                 |                                                 |
| \\      /  F ield         | OpenFOAM: The Open Source CFD Toolbox           |
|  \\    /   O peration     | Version:  2412                                  |
|   \\  /    A nd           | Website:  www.openfoam.com                      |
|    \\/     M anipulation  |                                                 |
\*---------------------------------------------------------------------------*/
FoamFile
{
    version     2.0;
    format      ascii;
    arch        "LSB;label=32;scalar=64";
    class       volScalarField;
    location    "0.1";
    object      T;
}
// * * * * * * * * * * * * * * * * * * * * * * * * * * * * * * * * * * * * * //

dimensions      [0 0 0 1 0 0 0];

internalField   nonuniform List<scalar> 
5712
(
465.063
521.811
439.625
501.422
410.854
473.836
375.902
435.573
385.052
445.374
419.278
485.265
437.15
501.994
455.516
516.362
390.436
357.827
437.121
378.944
360.302
332.942
399.718
348.375
477.463
490.758
528.597
535.159
453.812
469.022
509.035
518.06
464.777
422.803
403.918
380.933
448.025
488.087
489.435
505.408
400.357
419.487
453.112
467.753
366.251
380.732
506.786
523.402
431.028
457.399
530.462
550.432
505.103
543.408
543.292
560.801
481.901
533.775
525.528
553.599
454.178
518.163
490.317
537.872
517.444
548.135
533.748
554.587
330.851
309.292
344.862
313.959
309.435
295.681
319.281
298.919
377.819
338.23
360.846
331.124
355.94
317.44
362.873
319.414
327.656
301.375
332.845
302.819
391.132
343.299
399.112
345.904
428.822
514.764
385.606
476.947
409.37
499.992
374.058
464.367
442.843
522.178
392.703
484.175
450.615
525.411
395.992
488.544
481.224
440.214
528.599
495.792
456.314
417.848
517.223
481.337
425.395
390.368
498.205
459.735
306.655
289.18
338.276
384.118
472.579
287.873
303.163
328.064
365.195
437.874
287.637
301.197
322.541
358.741
439.051
364.162
318.93
370.292
323.384
357.001
315.354
369.551
322.86
346.306
310.766
367.164
322.152
282.869
277.742
293.996
283.912
311.448
293.088
334.244
305.138
364.969
321.668
282.508
277.27
291.869
282.42
306.525
290.23
329.767
302.371
362.996
320.014
291.833
283.29
291.764
283.373
283.038
276.903
283.341
276.897
305.216
292.393
306.045
292.489
291.865
283.424
292.437
283.817
283.787
276.957
284.256
277.159
304.618
292.076
305.379
292.645
327.632
307.224
359.616
328.841
330.139
307.705
363.148
329.344
325.064
305.942
356.347
327.268
325.804
306.289
354.655
326.592
289.795
277.926
274.436
291.386
278.348
274.576
288.662
277.417
274.246
291.194
278.09
274.411
286.206
276.419
273.877
290.71
277.582
274.166
274.458
273.34
273.076
276.716
273.873
273.194
279.967
274.645
273.365
283.982
275.654
273.615
289.753
276.996
273.9
274.285
273.292
273.062
276.306
273.797
273.176
279.03
274.424
273.307
282.877
275.25
273.473
287.855
276.334
273.695
304.091
295.007
311.259
299.101
327.253
310.191
345.647
319.151
285.589
279.413
286.71
279.949
287.651
280.518
289.32
281.296
290.126
287.584
289.343
286.128
281.203
282.674
302.808
306.909
327.5
335.265
292.308
294.472
291.467
293.359
284.261
285.227
275.683
273.598
276.271
273.743
276.168
273.611
276.822
273.777
276.491
273.589
277.526
273.825
278.264
273.939
278.728
273.999
284.469
279.2
287.356
280.245
294.318
285.552
300.247
287.569
280.412
276.282
278.756
275.756
289.493
280.943
290.993
281.353
304.887
288.993
307.938
289.829
281.398
276.602
281.995
276.771
276.094
273.572
274.326
273.289
275.343
273.43
274.1
273.237
276.572
273.669
274.466
273.32
276.833
273.727
274.539
273.332
273.845
273.271
273.284
273.114
273.983
273.346
273.286
273.122
274.122
273.497
273.28
273.142
277.321
280.982
275.256
274.114
273.238
280.08
276.453
274.44
273.65
273.149
280.175
276.662
274.716
273.749
273.173
273.084
273.027
273.041
273.015
273.123
273.041
273.05
273.019
273.204
273.076
273.065
273.027
277.31
274.806
274.876
273.701
273.785
273.308
273.341
273.136
273.086
273.04
277.28
274.69
275.049
273.765
273.922
273.345
273.392
273.148
273.109
273.054
275.479
273.805
275.661
273.84
277.882
274.602
278.289
274.615
274.218
273.409
274.137
273.385
275.816
273.858
275.971
273.919
278.731
274.602
279.061
274.705
274.274
273.425
274.335
273.454
273.469
273.18
273.142
273.067
273.47
273.167
273.135
273.064
273.462
273.191
273.144
273.069
273.507
273.202
273.146
273.074
273.006
273.001
273
273.003
273
273
273.01
273.002
273
273.004
273.001
273
273.019
273.003
273.001
273.005
273.001
273
273.487
273.106
273.023
273.181
273.038
273.008
273.077
273.015
273.003
273.033
273.006
273.001
273.008
273.001
273
273.435
273.089
273.018
273.185
273.035
273.007
273.081
273.014
273.003
273.034
273.006
273.001
273.011
273.002
273
273.075
273.008
273.001
273
273.095
273.01
273.001
273
273.074
273.008
273.001
273
273.098
273.01
273.001
273
273.069
273.007
273.001
273
273.099
273.01
273.001
273
273.111
273.012
273.001
273
273.116
273.012
273.001
273
273.072
273.008
273.001
273
273.039
273.004
273.001
273
273.053
273.006
273.001
273
273.032
273.004
273
273
273.084
273.009
273.001
273
273.043
273.005
273.001
273
273.091
273.01
273.001
273
273.045
273.005
273.001
273
273.042
273.005
273.001
273
273.02
273.003
273
273
273.042
273.005
273.001
273
273.02
273.003
273
273
273.039
273.004
273.001
273
273.022
273.003
273
273
273.032
273.004
273
273
273.021
273.003
273
273
273.024
273.003
273
273
273.008
273.001
273
273
273.004
273.001
273
273
273.009
273.001
273
273
273.005
273.001
273
273
273.011
273.001
273
273
273.006
273.001
273
273
273.013
273.002
273
273
273.008
273.001
273
273
273.016
273.002
273
273
273.01
273.001
273
273
273.02
273.002
273
273
273.013
273.002
273
273
273.019
273.002
273
273
273.012
273.002
273
273
273.021
273.003
273
273
273.013
273.002
273
273
273.021
273.003
273
273
273.014
273.002
273
273
273
273
273
273
273
273
273
273
273
273
273
273
273
273
273
273
273
273
273
273
273
273
273
273
273
273
273
273
273
273
273
273
273
273
273
273
273
273
273
273
273
273
273
273
273
273
273
273
273
273
273
273
273
273
273
273
273
273
273
273
273
273
273
273
273
273
273
273
273
273
273
273
273
273
273
273
273
273
273
273
273
273
273
273
273
273
273
273
273
273
273
273
273
273
273
273
273
273
273
273
273
273
273
273
273
273
273
273
273
273
273
273
273
273
273
273
273
273
273
273
273
273
273
273
273
372.451
356.754
373.028
357.679
373.526
358.791
373.712
359.135
372.77
357.731
366.46
353.115
369.93
355.972
363.819
350.891
363.08
350.642
502.575
522.485
526.804
529.241
530.899
438.811
469.855
480.828
488.369
493.647
505.11
524.852
529.061
531.425
533.147
440.937
472.503
483.425
490.902
496.71
507.495
527.174
531.288
533.585
535.33
443.38
475.264
486.144
493.57
499.533
510.228
529.633
533.578
535.758
537.441
445.3
477.245
487.995
495.312
501.258
511.73
530.716
534.519
536.617
538.247
445.337
477.135
487.796
495.06
500.988
496.978
517.242
521.726
524.294
526.312
432.294
463.513
474.517
482.12
488.37
503.664
523.499
527.72
530.106
531.968
438.692
470.337
481.221
488.687
494.788
492.394
512.985
517.656
520.33
522.463
428.411
459.442
470.578
478.248
484.636
492.916
513.303
517.9
520.455
522.547
428.202
459.009
470.152
477.505
483.913
320.41
367.549
359.28
315.712
293.221
295.747
299.317
304.183
309.169
316.733
333.717
352.219
340.996
360.142
317.041
324.889
308.113
313.655
300.41
303.99
274.53
273.531
273.001
273
273
273
273.001
274.107
273.42
273.182
273.089
273.017
273.01
273.035
273.006
273.003
273.003
273.001
274.028
273.135
273.012
273.011
273.037
273.018
273.006
273.004
273.001
273.001
273.003
273.003
274.191
273.29
273.387
273.088
273.036
273.144
273.006
273.001
273.009
273.769
273.37
273.176
273.074
273.019
273.286
273.143
273.067
273.028
273.007
273.001
273
273
273
273
273
273
273
273
273
273
273
273
273
273
273
273
273
273
273
273
273
273
273
273
273.558
273.255
273.117
273.048
273.013
273.194
273.084
273.037
273.015
273.004
273.097
273.047
273.021
273.008
273.002
273.04
273.017
273.007
273.003
273.001
273.008
273.003
273.001
273
273
273.006
273.003
273.001
273.001
273
273.019
273.01
273.004
273.002
273
273.003
273.002
273.001
273
273
273.002
273.001
273
273
273
273.002
273.001
273
273
273
273.001
273
273
273
273
273.527
273.246
273.115
273.048
273.013
273.076
273.038
273.017
273.007
273.002
273.007
273.004
273.002
273.001
273
273.007
273.004
273.002
273.001
273
273.022
273.011
273.005
273.002
273.001
273.011
273.006
273.003
273.001
273
273.004
273.002
273.001
273
273
273.003
273.001
273.001
273
273
273
273
273
273
273
273
273
273
273
273
273.002
273.001
273
273
273
273.002
273.001
273.001
273
273
273.602
273.286
273.136
273.058
273.015
273.159
273.08
273.037
273.015
273.004
273.221
273.104
273.048
273.02
273.005
273.052
273.027
273.012
273.005
273.001
273.022
273.012
273.005
273.002
273.001
273.084
273.042
273.019
273.008
273.002
273.004
273.002
273.001
273
273
273.001
273
273
273
273
273.006
273.003
273.001
273.001
273
399.592
500.086
382.025
476.446
357.345
448.989
371.928
472.298
363.388
340.445
429.368
372.641
339.855
319.459
395.342
343.664
422.413
448.896
511.913
522.678
407.435
433.305
494.167
507.211
454.765
393.18
397.135
362.657
422.324
479.384
487.183
504.98
397.952
418.949
451.574
467.384
364.407
380.275
504.126
522.943
428.612
456.88
528.406
550.145
483.374
536.566
536.266
558.572
462.578
528.025
519.081
551.641
440.062
514.149
484.643
536.172
515.591
547.526
533.414
554.466
324.592
307.226
341.648
312.705
304.58
294.073
316.861
297.9
374.485
337
354.423
328.923
354.629
316.869
362.555
319.252
326.655
300.904
332.597
302.684
389.784
342.748
398.783
345.748
425.994
513.803
384.622
476.562
403.581
498.014
372.07
463.57
441.722
521.786
392.282
484.014
450.346
525.313
395.875
488.5
445.086
405.32
517.759
485.01
425.426
388.9
508.637
472.882
403.945
371.443
492.496
454.397
308.168
292.952
334.91
376.482
469.739
292.474
305.307
324.27
356.291
434.556
289.808
301.557
320.439
355.44
437.656
343.295
308.26
362.137
319.24
338.598
305.689
362.952
319.308
333.02
303.33
362.804
319.534
285.154
278.609
294.407
283.507
308.055
290.695
328.107
301.422
362.303
319.834
283.608
277.598
291.904
282.28
305.109
289.512
327.684
301.377
361.805
319.25
291.314
283.105
291.404
283.251
282.876
276.903
283.105
276.848
304.8
292.229
305.215
292.133
291.699
283.368
292.39
283.801
283.661
276.929
284.218
277.151
304.446
292.011
305.332
292.628
327.28
307.06
359.406
328.725
329.26
307.291
362.632
329.035
324.93
305.879
356.268
327.228
325.767
306.273
354.637
326.583
290.775
283.628
296.49
287.553
289.298
281.869
296.209
286.029
287.229
279.776
295.559
283.693
275.131
273.75
277.468
274.666
280.911
276.043
285.755
278.128
294.106
281.16
274.556
273.545
276.808
274.392
279.846
275.462
284.398
276.958
290.634
279.049
295.1
289.321
307.21
296.688
313.896
301.326
342.047
315.816
285.983
279.06
290.247
280.939
285.21
279.237
289.981
281.451
288.943
284.003
287.957
282.946
279.506
282.203
301.748
306.631
326.107
334.895
291.632
294.263
290.807
293.171
283.917
285.11
275.9
273.708
276.667
273.846
276.059
273.669
276.913
273.825
276.188
273.606
277.381
273.83
278.143
273.932
278.683
273.995
282.734
278.777
286.313
279.887
291.226
284.618
298.604
286.909
279.904
276.134
278.04
275.627
289.02
280.759
290.87
281.297
304.177
288.675
307.757
289.736
281.147
276.517
281.926
276.744
275.958
273.564
274.285
273.286
275.223
273.436
274.087
273.243
276.488
273.662
274.437
273.316
276.807
273.724
274.529
273.331
274.907
274.291
273.494
273.328
274.961
274.34
273.452
273.302
274.921
274.331
273.393
273.266
279.093
284.216
276.14
274.454
273.298
284.059
278.833
275.693
274.138
273.23
282.171
277.662
275.133
273.904
273.205
273.833
273.45
273.208
273.111
273.868
273.459
273.194
273.103
273.854
273.44
273.17
273.09
279.614
275.866
276.46
274.468
274.7
273.796
273.734
273.362
273.156
273.085
278.431
275.108
275.756
274.063
274.261
273.508
273.529
273.221
273.142
273.079
275.52
273.853
275.597
273.833
277.902
274.661
278.164
274.599
274.193
273.407
274.171
273.414
275.772
273.848
275.957
273.916
278.651
274.588
279.036
274.7
274.254
273.42
274.328
273.452
273.463
273.18
273.142
273.068
273.492
273.182
273.143
273.071
273.456
273.189
273.143
273.069
273.504
273.202
273.145
273.074
273.225
273.121
273.039
273.023
273.235
273.114
273.037
273.02
273.202
273.083
273.032
273.015
274.018
273.33
273.536
273.173
273.308
273.103
273.146
273.051
273.029
273.011
273.624
273.201
273.312
273.096
273.152
273.047
273.068
273.022
273.022
273.007
273.093
273.01
273.001
273
273.11
273.012
273.001
273
273.086
273.009
273.001
273
273.107
273.012
273.001
273
273.075
273.008
273.001
273
273.103
273.011
273.001
273
273.112
273.012
273.001
273
273.116
273.012
273.001
273
273.072
273.008
273.001
273
273.039
273.004
273.001
273
273.056
273.006
273.001
273
273.033
273.004
273
273
273.084
273.009
273.001
273
273.043
273.005
273.001
273
273.091
273.01
273.001
273
273.045
273.005
273.001
273
273.067
273.007
273.001
273
273.044
273.005
273.001
273
273.061
273.007
273.001
273
273.04
273.005
273.001
273
273.052
273.006
273.001
273
273.036
273.004
273
273
273.039
273.004
273.001
273
273.03
273.004
273
273
273.028
273.003
273
273
273.028
273.003
273
273
273.019
273.002
273
273
273.026
273.003
273
273
273.018
273.002
273
273
273.023
273.003
273
273
273.016
273.002
273
273
273.021
273.003
273
273
273.014
273.002
273
273
273.02
273.002
273
273
273.014
273.002
273
273
273.021
273.003
273
273
273.013
273.002
273
273
273.02
273.002
273
273
273.013
273.002
273
273
273.021
273.003
273
273
273.013
273.002
273
273
273.021
273.003
273
273
273.014
273.002
273
273
273
273
273
273
273
273
273
273
273
273
273
273
273
273
273
273
273
273
273
273
273
273
273
273
273
273
273
273
273
273
273
273
273
273
273
273
273
273
273
273
273
273
273
273
273
273
273
273
273
273
273
273
273
273
273
273
273
273
273
273
273
273
273
273
273
273
273
273
273
273
273
273
273
273
273
273
273
273
273
273
273
273
273
273
273
273
273
273
273
273
273
273
273
273
273
273
273
273
273
273
273
273
273
273
273
273
273
273
273
273
273
273
273
273
273
273
273
273
273
273
273
273
273
273
273
369.869
354.757
370.898
355.997
372.058
357.577
372.803
358.337
372.315
357.327
366.377
353.05
369.726
355.799
363.789
350.87
363.073
350.638
502.345
522.469
526.804
529.243
530.901
438.491
469.823
480.824
488.369
493.648
504.919
524.839
529.062
531.427
533.149
440.666
472.477
483.424
490.903
496.711
507.362
527.167
531.291
533.588
535.333
443.182
475.245
486.143
493.569
499.531
510.146
529.628
533.579
535.759
537.442
445.172
477.233
487.995
495.311
501.255
511.689
530.713
534.52
536.618
538.247
445.269
477.128
487.796
495.059
500.986
496.968
517.24
521.725
524.293
526.311
432.282
463.512
474.515
482.118
488.368
503.643
523.497
527.72
530.105
531.967
438.662
470.334
481.221
488.685
494.785
492.39
512.984
517.655
520.328
522.462
428.407
459.441
470.577
478.247
484.635
492.916
513.304
517.9
520.455
522.547
428.201
459.009
470.153
477.506
483.913
320.011
367.106
357.671
314.122
300.107
310.418
297.801
309.566
321.812
353.626
328.292
359.66
273
273
273
273
273
273
273
273
273
273
273
273
273
273
273
273
273
273
273
273
273
273
273
273
273
273.001
273.006
273.03
273.086
273.155
273
273.001
273.005
273.013
273.029
273.045
273
273
273
273
273
273
273
273
273
273
273
273
273
273
273
273
273
273
273
273
273
273
273
273
273
273
273
273
273
273
273
273
273
273
273
273
273
273
273
273
273
273
273
273
273
273
273
273
273
273
273
273
273
273
273
273
273
273
273
273
273
273
273
273
273
273
273
273
273
273
273
273
273
273
273
273
273
273
273
273
273
273
273
273
273
273
273
273
273
273
273
273
273
273
273
273
273
273
273
273
273
273
273
273
273
273
273
273
273
273
273
273
273
273
273
273
273
273
273
273
273
273
273
273
273
273.001
273.001
273
273
273
273.004
273.002
273.001
273
273
273.018
273.01
273.005
273.002
273
273.05
273.026
273.012
273.005
273.001
273.089
273.046
273.021
273.009
273.002
273
273
273
273
273
273.001
273.001
273
273
273
273.003
273.002
273.001
273
273
273.008
273.005
273.002
273.001
273
273.018
273.01
273.005
273.002
273
273.027
273.014
273.007
273.003
273.001
273
273
273
273
273
273
273
273
273
273
273
273
273
273
273
273
273
273
273
273
273
273
273
273
273
273.001
273.006
273.03
273.085
273.154
273
273.001
273.005
273.013
273.029
273.045
273
273
273
273
273
273
273
273
273
273
273
273
273
273
273
273
273
273
273
273
273
273
273
273
273
273
273
273
273
273
273
273
273
273
273
273
273
273
273
273
273
273
273
273
273
273
273
273
273
273
273
273
273
273
273
273
273
273
273
273
273
273
273
273
273
273
273
273
273
273
273
273
273
273
273
273
273
273
273
273
273
273
273
273
273
273
273
273
273
273
273
273
273
273
273
273
273
273
273
273
273
273
273
273
273
273
273
273
273
273
273
273
273
273
273
273
273
273
273
273
273
273
273
273
273
273.001
273
273
273
273
273.004
273.002
273.001
273
273
273.018
273.01
273.005
273.002
273
273.05
273.026
273.012
273.005
273.001
273.089
273.046
273.021
273.009
273.002
273
273
273
273
273
273.001
273.001
273
273
273
273.003
273.002
273.001
273
273
273.008
273.005
273.002
273.001
273
273.018
273.009
273.005
273.002
273
273.027
273.014
273.007
273.003
273.001
274.527
273.531
273.001
273
273
273
273.001
274.119
273.492
273.193
273.135
273.012
273.04
273.004
273.007
273.002
274.02
273.136
273.012
273.011
273.038
273.018
273.006
273.004
273.001
273.001
273.003
273.003
274.184
273.288
273.385
273.088
273.036
273.143
273.006
273.001
273.009
273.768
273.368
273.175
273.074
273.019
273.285
273.142
273.066
273.028
273.007
273.001
273
273
273
273
273
273
273
273
273
273
273
273
273
273
273
273
273
273
273
273
273
273
273
273
273.579
273.27
273.125
273.053
273.015
273.248
273.115
273.053
273.023
273.006
273.106
273.052
273.024
273.01
273.003
273.068
273.031
273.014
273.006
273.002
273.007
273.004
273.002
273.001
273
273.023
273.012
273.005
273.002
273.001
273.002
273.001
273.001
273
273
273.004
273.002
273.001
273
273
273.001
273.001
273
273
273
273.526
273.247
273.116
273.049
273.014
273.077
273.039
273.018
273.007
273.002
273.007
273.004
273.002
273.001
273
273.007
273.004
273.002
273.001
273
273.022
273.011
273.005
273.002
273.001
273.011
273.006
273.003
273.001
273
273.004
273.002
273.001
273
273
273.003
273.001
273.001
273
273
273.001
273
273
273
273
273
273
273
273
273
273.002
273.001
273.001
273
273
273.002
273.001
273.001
273
273
273.598
273.284
273.135
273.057
273.015
273.158
273.079
273.037
273.015
273.004
273.22
273.104
273.048
273.02
273.005
273.052
273.027
273.012
273.005
273.001
273.022
273.012
273.005
273.002
273.001
273.084
273.042
273.019
273.008
273.002
273.004
273.002
273.001
273
273
273.001
273
273
273
273
273.006
273.003
273.001
273.001
273
273
273.001
273.002
273.004
273.008
273.013
355.131
344.537
325.396
334.454
331.085
318.766
314.212
302.79
376.886
405.397
367.7
394.033
355.929
338.773
383.837
333.55
326.711
311.597
317.556
317.085
308.697
303.715
296.042
349.245
367.174
344.042
360.867
335.883
323.94
354.565
306.517
303.617
294.167
296.825
298.957
295.376
290.339
286.828
317.038
329.356
315.006
326.685
311.529
305.849
323.611
287.774
286.814
281.995
282.908
284.998
283.689
280.577
279.274
294.294
302.445
293.567
300.767
292.012
289.207
298.885
279.099
278.801
276.512
276.801
278.108
277.608
276.02
275.533
282.626
287.354
282.388
286.581
281.723
280.297
285.392
275.352
275.261
274.237
274.319
274.986
274.773
274.079
273.917
277.141
279.925
277.032
279.463
276.671
275.918
278.625
291.978
289.773
304.876
309.787
287.186
283.493
298.759
291.297
282.072
276.628
281.264
276.604
279.624
278.934
276.596
287.399
285.703
296.84
300.321
283.674
280.883
292.272
286.929
279.186
275.615
278.577
275.674
277.455
277.069
275.673
281.15
280.221
286.213
287.933
279.09
277.658
283.832
281.223
276.909
274.811
276.582
274.805
275.955
275.74
274.754
276.449
276.076
278.528
279.159
275.573
274.958
277.611
276.546
274.835
274.006
274.69
273.96
274.409
274.27
273.888
274.294
274.168
275.082
275.287
274.002
273.786
274.771
274.391
273.748
273.508
273.694
273.462
273.592
273.526
273.405
273.42
273.386
273.687
273.743
273.342
273.276
273.598
273.481
273.282
273.222
273.262
273.192
273.221
273.19
273.16
466.396
522.737
439.631
501.356
410.854
473.809
375.902
435.564
385.062
445.368
419.309
485.253
437.214
501.98
457.085
517.491
390.422
357.813
437.1
378.929
360.295
332.934
399.709
348.367
478.551
491.714
529.31
535.782
453.78
468.961
508.937
517.958
464.731
422.768
403.895
380.91
447.976
488.032
489.427
505.404
400.347
419.48
453.107
467.75
366.246
380.727
506.771
523.397
431.016
457.393
530.448
550.429
505.972
543.848
543.866
561.059
481.821
533.754
525.434
553.569
454.13
518.146
490.272
537.856
517.427
548.128
533.742
554.584
330.842
309.286
344.852
313.954
309.43
295.678
319.276
298.916
377.805
338.223
360.83
331.117
355.933
317.436
362.867
319.411
327.652
301.372
332.841
302.817
391.123
343.294
399.106
345.9
428.803
514.756
385.6
476.944
409.348
499.983
374.05
464.363
442.833
522.174
392.699
484.173
450.608
525.408
395.989
488.543
482.048
440.872
529.116
496.309
456.216
417.744
517.201
481.302
425.344
390.328
498.189
459.724
306.649
289.177
338.264
384.096
472.571
287.871
303.157
328.053
365.175
437.869
287.635
301.192
322.533
358.731
439.047
364.474
319.022
370.532
323.45
356.985
315.342
369.602
322.891
346.291
310.761
367.178
322.166
282.867
277.742
293.992
283.91
311.441
293.085
334.234
305.135
364.972
321.674
282.506
277.27
291.866
282.418
306.521
290.228
329.762
302.369
362.995
320.015
291.83
283.288
291.762
283.372
283.037
276.902
283.34
276.896
305.213
292.392
306.042
292.487
291.864
283.423
292.436
283.816
283.786
276.957
284.255
277.159
304.617
292.076
305.377
292.645
327.63
307.223
359.615
328.84
330.135
307.703
363.147
329.344
325.062
305.941
356.346
327.268
325.803
306.288
354.654
326.592
289.83
277.941
274.444
291.398
278.355
274.581
288.659
277.415
274.245
291.202
278.091
274.41
286.205
276.419
273.877
290.715
277.583
274.166
274.458
273.34
273.076
276.716
273.873
273.194
279.966
274.645
273.365
283.982
275.654
273.615
289.755
276.997
273.9
274.285
273.292
273.062
276.305
273.797
273.176
279.03
274.424
273.307
282.877
275.25
273.473
287.856
276.334
273.695
304.089
295.005
311.259
299.099
327.25
310.188
345.643
319.147
285.432
279.343
286.514
279.863
287.636
280.509
289.306
281.288
290.121
287.579
289.341
286.125
281.198
282.67
302.806
306.908
327.497
335.262
292.306
294.471
291.466
293.357
284.259
285.227
275.654
273.594
276.235
273.738
276.164
273.61
276.818
273.776
276.489
273.588
277.524
273.824
278.263
273.939
278.728
273.999
284.468
279.199
287.355
280.244
294.316
285.551
300.245
287.568
280.411
276.282
278.755
275.755
289.492
280.943
290.992
281.352
304.885
288.992
307.936
289.828
281.397
276.602
281.995
276.771
276.093
273.572
274.326
273.289
275.342
273.43
274.1
273.237
276.571
273.669
274.466
273.32
276.833
273.727
274.539
273.332
273.837
273.268
273.282
273.113
273.982
273.346
273.286
273.122
274.121
273.497
273.279
273.142
277.321
280.981
275.256
274.114
273.238
280.079
276.452
274.439
273.65
273.149
280.174
276.661
274.716
273.749
273.173
273.083
273.026
273.041
273.015
273.123
273.041
273.05
273.019
273.204
273.076
273.065
273.027
277.309
274.806
274.876
273.701
273.785
273.308
273.341
273.136
273.085
273.04
277.279
274.689
275.049
273.764
273.922
273.345
273.392
273.148
273.109
273.054
275.479
273.805
275.661
273.84
277.881
274.601
278.288
274.614
274.218
273.409
274.136
273.385
275.816
273.858
275.971
273.919
278.731
274.602
279.06
274.705
274.274
273.425
274.334
273.454
273.469
273.18
273.142
273.067
273.47
273.167
273.135
273.064
273.462
273.191
273.144
273.069
273.507
273.202
273.146
273.074
273.006
273.001
273
273.003
273
273
273.01
273.002
273
273.004
273.001
273
273.019
273.003
273.001
273.005
273.001
273
273.487
273.106
273.023
273.181
273.038
273.008
273.077
273.015
273.003
273.033
273.006
273.001
273.008
273.001
273
273.435
273.089
273.018
273.185
273.035
273.007
273.081
273.014
273.003
273.034
273.006
273.001
273.011
273.002
273
273.075
273.008
273.001
273
273.094
273.01
273.001
273
273.074
273.008
273.001
273
273.098
273.01
273.001
273
273.069
273.007
273.001
273
273.099
273.01
273.001
273
273.111
273.012
273.001
273
273.116
273.012
273.001
273
273.072
273.008
273.001
273
273.038
273.004
273.001
273
273.053
273.006
273.001
273
273.032
273.004
273
273
273.084
273.009
273.001
273
273.043
273.005
273.001
273
273.091
273.01
273.001
273
273.045
273.005
273.001
273
273.042
273.005
273.001
273
273.02
273.003
273
273
273.041
273.005
273.001
273
273.02
273.003
273
273
273.039
273.004
273.001
273
273.022
273.003
273
273
273.032
273.004
273
273
273.021
273.003
273
273
273.024
273.003
273
273
273.008
273.001
273
273
273.004
273.001
273
273
273.009
273.001
273
273
273.005
273.001
273
273
273.011
273.001
273
273
273.006
273.001
273
273
273.013
273.002
273
273
273.008
273.001
273
273
273.016
273.002
273
273
273.01
273.001
273
273
273.02
273.002
273
273
273.013
273.002
273
273
273.019
273.002
273
273
273.012
273.002
273
273
273.021
273.003
273
273
273.013
273.002
273
273
273.021
273.003
273
273
273.014
273.002
273
273
273
273
273
273
273
273
273
273
273
273
273
273
273
273
273
273
273
273
273
273
273
273
273
273
273
273
273
273
273
273
273
273
273
273
273
273
273
273
273
273
273
273
273
273
273
273
273
273
273
273
273
273
273
273
273
273
273
273
273
273
273
273
273
273
273
273
273
273
273
273
273
273
273
273
273
273
273
273
273
273
273
273
273
273
273
273
273
273
273
273
273
273
273
273
273
273
273
273
273
273
273
273
273
273
273
273
273
273
273
273
273
273
273
273
273
273
273
273
273
273
273
273
273
273
273
372.528
356.827
373.103
357.754
373.565
358.831
373.728
359.152
372.775
357.737
366.46
353.115
369.931
355.973
363.819
350.891
363.08
350.642
502.882
522.731
527.03
529.456
531.101
438.986
470.01
480.98
488.521
493.784
505.248
524.985
529.19
531.551
533.272
441.092
472.671
483.593
491.068
496.877
507.544
527.226
531.34
533.637
535.383
443.453
475.347
486.228
493.653
499.616
510.245
529.652
533.597
535.777
537.461
445.329
477.278
488.03
495.347
501.293
511.735
530.721
534.525
536.623
538.253
445.347
477.146
487.808
495.072
501
496.978
517.242
521.726
524.295
526.313
432.295
463.514
474.517
482.121
488.371
503.666
523.501
527.722
530.108
531.97
438.695
470.34
481.225
488.691
494.791
492.394
512.985
517.656
520.33
522.463
428.411
459.442
470.579
478.248
484.636
492.916
513.303
517.9
520.455
522.547
428.202
459.009
470.152
477.505
483.913
320.408
367.546
359.277
315.71
292.915
295.322
299.314
304.193
309.168
316.736
333.716
352.217
340.999
360.142
317.044
324.895
308.118
313.666
299.84
303.241
274.53
273.531
273.001
273
273
273
273.001
274.107
273.42
273.182
273.089
273.017
273.01
273.035
273.006
273.003
273.003
273.001
274.027
273.135
273.012
273.011
273.037
273.018
273.006
273.004
273.001
273.001
273.003
273.003
274.191
273.29
273.387
273.088
273.036
273.144
273.006
273.001
273.009
273.769
273.369
273.176
273.074
273.019
273.286
273.143
273.067
273.028
273.007
273.001
273
273
273
273
273
273
273
273
273
273
273
273
273
273
273
273
273
273
273
273
273
273
273
273
273.558
273.255
273.117
273.048
273.013
273.194
273.084
273.037
273.015
273.004
273.097
273.047
273.021
273.008
273.002
273.04
273.017
273.007
273.003
273.001
273.008
273.003
273.001
273
273
273.006
273.003
273.001
273.001
273
273.019
273.01
273.004
273.002
273
273.003
273.002
273.001
273
273
273.002
273.001
273
273
273
273.002
273.001
273
273
273
273.001
273
273
273
273
273.527
273.246
273.115
273.048
273.013
273.076
273.038
273.017
273.007
273.002
273.007
273.004
273.002
273.001
273
273.007
273.004
273.002
273.001
273
273.022
273.011
273.005
273.002
273.001
273.011
273.006
273.003
273.001
273
273.004
273.002
273.001
273
273
273.003
273.001
273.001
273
273
273
273
273
273
273
273
273
273
273
273
273.002
273.001
273
273
273
273.002
273.001
273.001
273
273
273.602
273.286
273.136
273.058
273.015
273.159
273.08
273.037
273.015
273.004
273.221
273.104
273.048
273.02
273.005
273.052
273.027
273.012
273.005
273.001
273.022
273.012
273.005
273.002
273.001
273.084
273.042
273.019
273.008
273.002
273.004
273.002
273.001
273
273
273.001
273
273
273
273
273.006
273.003
273.001
273.001
273
400.361
500.744
381.983
476.294
357.336
448.875
372.655
472.975
363.351
340.421
429.302
372.611
339.836
319.443
395.298
343.644
423.085
449.58
512.479
523.211
407.384
433.243
494.039
507.102
454.701
393.135
397.1
362.628
422.273
479.321
487.163
504.973
397.935
418.941
451.558
467.379
364.394
380.268
504.106
522.937
428.594
456.872
528.389
550.142
484.122
536.973
536.801
558.819
462.501
528.01
518.984
551.611
440.016
514.134
484.596
536.156
515.573
547.519
533.408
554.464
324.577
307.217
341.632
312.698
304.57
294.066
316.851
297.894
374.467
336.992
354.404
328.914
354.618
316.864
362.548
319.249
326.647
300.9
332.592
302.682
389.772
342.742
398.776
345.745
425.975
513.795
384.616
476.559
403.559
498.006
372.062
463.567
441.711
521.781
392.277
484.012
450.339
525.31
395.872
488.499
445.709
405.761
518.227
485.472
425.351
388.824
508.63
472.863
403.904
371.412
492.486
454.391
308.158
292.945
334.895
376.463
469.733
292.467
305.297
324.258
356.274
434.553
289.802
301.549
320.429
355.431
437.653
343.491
308.303
362.308
319.269
338.586
305.677
363.005
319.335
333.009
303.325
362.82
319.547
285.15
278.607
294.401
283.504
308.047
290.691
328.098
301.419
362.308
319.84
283.605
277.597
291.899
282.278
305.103
289.51
327.68
301.375
361.805
319.252
291.31
283.103
291.401
283.25
282.873
276.902
283.103
276.847
304.797
292.228
305.211
292.131
291.697
283.367
292.389
283.801
283.66
276.929
284.217
277.15
304.444
292.01
305.33
292.627
327.277
307.059
359.405
328.725
329.257
307.29
362.631
329.035
324.929
305.879
356.268
327.228
325.766
306.272
354.637
326.583
290.807
283.666
296.501
287.584
289.292
281.864
296.217
286.028
287.227
279.775
295.564
283.695
275.13
273.75
277.468
274.666
280.91
276.043
285.754
278.128
294.109
281.161
274.556
273.544
276.808
274.392
279.845
275.462
284.398
276.958
290.635
279.049
295.107
289.321
307.218
296.687
313.895
301.321
342.039
315.808