/*--------------------------------*- C++ -*----------------------------------*\
| =========                 |                                                 |
| \\      /  F ield         | OpenFOAM: The Open Source CFD Toolbox           |
|  \\    /   O peration     | Version:  2412                                  |
|   \\  /    A nd           | Website:  www.openfoam.com                      |
|    \\/     M anipulation  |                                                 |
\*---------------------------------------------------------------------------*/
FoamFile
{
    version     2.0;
    format      ascii;
    arch        "LSB;label=32;scalar=64";
    class       volScalarField;
    location    "90/bottomWater";
    object      p_rgh;
}
// * * * * * * * * * * * * * * * * * * * * * * * * * * * * * * * * * * * * * //

dimensions      [1 -1 -2 0 0 0 0];

internalField   nonuniform List<scalar> 
1460
(
0.0034398905
0.003087351
0.0029250242
0.0027935619
0.0026692733
0.0025517982
0.0024392146
0.0023279318
0.0022148354
0.0020974565
0.0019722617
0.0018350262
0.0016817423
0.0015069302
0.0013308789
0.0011651252
0.0010153608
0.00088415073
0.00077307316
0.00067936457
0.00059789646
0.00052440265
0.0004560589
0.00039098635
0.00032791623
0.0002660137
0.00020477758
0.00014404672
8.3782405e-05
2.1390805e-05
0.0031950328
0.0030046991
0.0028707692
0.002756373
0.002643924
0.0025335007
0.0024253391
0.0023172151
0.0022058016
0.0020888747
0.0019650808
0.0018305236
0.0016805192
0.0015090221
0.0013343478
0.0011685774
0.0010163826
0.00088245949
0.00076997249
0.00067602489
0.0005947719
0.00052144485
0.0004531222
0.00038795201
0.00032471333
0.0002626466
0.00020132985
0.0001405209
7.9725036e-05
1.468059e-05
0.0032318121
0.0030414416
0.0029015263
0.0027820636
0.002665339
0.0025509709
0.0024392194
0.0023279647
0.002213814
0.0020943117
0.0019682072
0.0018322008
0.0016818581
0.001511388
0.0013378934
0.0011733986
0.0010216689
0.00088733984
0.00077472281
0.00068071546
0.00059922816
0.00052553571
0.00045682146
0.00039126659
0.00032763265
0.00026511493
0.00020322247
0.0001416757
7.9795689e-05
1.2904487e-05
0.0031950328
0.0030046991
0.0028707692
0.002756373
0.002643924
0.0025335007
0.0024253391
0.0023172151
0.0022058016
0.0020888747
0.0019650808
0.0018305236
0.0016805192
0.0015090221
0.0013343478
0.0011685774
0.0010163826
0.00088245949
0.00076997249
0.00067602489
0.0005947719
0.00052144485
0.00045312221
0.00038795201
0.00032471333
0.0002626466
0.00020132985
0.0001405209
7.9725036e-05
1.4680587e-05
0.0034398905
0.003087351
0.0029250242
0.0027935619
0.0026692733
0.0025517982
0.0024392146
0.0023279318
0.0022148354
0.0020974565
0.0019722617
0.0018350262
0.0016817423
0.0015069302
0.0013308789
0.0011651252
0.0010153608
0.00088415073
0.00077307316
0.00067936457
0.00059789646
0.00052440265
0.0004560589
0.00039098635
0.00032791623
0.0002660137
0.00020477758
0.00014404672
8.3782404e-05
2.1390802e-05
0.0032303445
0.0029982534
0.0028656425
0.0027550284
0.0026456664
0.0025384254
0.0024338798
0.0023304769
0.0022243998
0.0021103406
0.0019821797
0.0018316773
0.0016512494
0.0014233557
0.0012422368
0.0010908598
0.00095406107
0.00083079415
0.00073113489
0.00065001226
0.00057862432
0.00051232628
0.00044890245
0.00038706413
0.00032607719
0.00026547823
0.00020499184
0.00014449387
8.373045e-05
2.107842e-05
0.0029914315
0.0029238668
0.0028311563
0.0027322462
0.0026305115
0.0025277702
0.0024251353
0.0023222862
0.0022176999
0.0021064648
0.001980771
0.001832004
0.0016497134
0.0014167892
0.0012316612
0.0010821153
0.00094729029
0.00082583697
0.00072679948
0.00064683708
0.00057673123
0.00051120779
0.00044808738
0.00038629345
0.00032517411
0.00026437249
0.00020363995
0.00014266507
8.0441525e-05
1.320758e-05
0.0030262934
0.0029595466
0.0028613121
0.0027574425
0.0026520759
0.0025461215
0.0024403223
0.0023342481
0.0022271529
0.0021137172
0.0019859979
0.001834996
0.0016502215
0.0014162848
0.0012319365
0.0010844263
0.00095109058
0.00083039383
0.00073191514
0.0006518843
0.00058139429
0.00051536206
0.00045170086
0.00038938339
0.00032775216
0.00026641583
0.00020505023
0.00014324832
7.9806632e-05
1.0380738e-05
0.0029914315
0.0029238668
0.0028311563
0.0027322462
0.0026305115
0.0025277702
0.0024251353
0.0023222862
0.0022176999
0.0021064648
0.001980771
0.001832004
0.0016497134
0.0014167892
0.0012316612
0.0010821153
0.00094729029
0.00082583697
0.00072679948
0.00064683709
0.00057673123
0.00051120779
0.00044808738
0.00038629346
0.00032517411
0.00026437249
0.00020363995
0.00014266507
8.0441526e-05
1.3207574e-05
0.0032303445
0.0029982534
0.0028656425
0.0027550284
0.0026456664
0.0025384254
0.0024338798
0.0023304769
0.0022243998
0.0021103406
0.0019821797
0.0018316773
0.0016512494
0.0014233557
0.0012422368
0.0010908598
0.00095406108
0.00083079416
0.0007311349
0.00065001226
0.00057862432
0.00051232628
0.00044890246
0.00038706413
0.00032607719
0.00026547823
0.00020499184
0.00014449387
8.3730448e-05
2.1078413e-05
0.0032208224
0.002998031
0.0028725918
0.0027696709
0.0026689992
0.0025716648
0.0024780919
0.0023868709
0.0022956676
0.0021999857
0.0020919706
0.0019573851
0.0017841847
0.0014695394
0.0012327962
0.001041686
0.0008739574
0.0007263904
0.00064806197
0.00059454243
0.00054538402
0.0004950495
0.00044235446
0.00038748848
0.00033078329
0.00027254077
0.00021301154
0.00015243305
9.0942755e-05
2.8703683e-05
0.0029809956
0.0029221993
0.0028374143
0.002746355
0.0026535942
0.0025613483
0.0024710697
0.0023824586
0.0022939015
0.0022023579
0.0021008112
0.0019738569
0.001796104
0.0014643013
0.0012129015
0.0010149368
0.0008436918
0.00069562628
0.00062272024
0.00057904183
0.00053709772
0.00049126588
0.00044131157
0.00038798052
0.00033200422
0.00027394679
0.00021431274
0.00015336325
9.0817424e-05
2.5469923e-05
0.0030166391
0.0029586906
0.0028684332
0.002772493
0.0026763165
0.0025811992
0.002488363
0.0023975093
0.0023067634
0.0022136804
0.002110972
0.0019836531
0.0018064112
0.0014744779
0.0012227452
0.0010223741
0.00084527453
0.00069605949
0.00062524302
0.00058340477
0.00054177786
0.00049574279
0.00044535737
0.00039147526
0.00033493056
0.00027629746
0.0002160202
0.00015432183
9.0816982e-05
2.3936941e-05
0.0029809956
0.0029221993
0.0028374143
0.002746355
0.0026535942
0.0025613483
0.0024710697
0.0023824586
0.0022939015
0.0022023579
0.0021008112
0.0019738569
0.001796104
0.0014643013
0.0012129015
0.0010149368
0.0008436918
0.00069562628
0.00062272025
0.00057904183
0.00053709772
0.00049126589
0.00044131158
0.00038798052
0.00033200423
0.00027394679
0.00021431274
0.00015336325
9.0817423e-05
2.5469916e-05
0.0032208224
0.002998031
0.0028725918
0.0027696709
0.0026689992
0.0025716648
0.0024780919
0.0023868709
0.0022956676
0.0021999857
0.0020919706
0.0019573851
0.0017841847
0.0014695394
0.0012327962
0.001041686
0.0008739574
0.0007263904
0.00064806198
0.00059454243
0.00054538402
0.0004950495
0.00044235446
0.00038748848
0.00033078329
0.00027254077
0.00021301154
0.00015243305
9.094275e-05
2.8703675e-05
0.0031821278
0.0029678364
0.0028516901
0.0027574124
0.0026651409
0.0025766159
0.0024934288
0.0024145152
0.0023371751
0.0022546971
0.0021530364
0.0019848212
0.0016572108
0.00083461574
0.00095022668
0.00084537343
0.00070899194
0.0005222798
0.00053228383
0.0005234015
0.00050420461
0.00047343476
0.00043279969
0.0003852154
0.00033275037
0.00027684906
0.00021843817
0.00015849319
9.7935113e-05
3.8347414e-05
0.0029432816
0.0028922288
0.0028172829
0.0027351777
0.002650799
0.0025671986
0.0024869431
0.002410952
0.002338117
0.0022640493
0.0021736058
0.0020084377
0.001593249
0.00057112009
0.00081881175
0.00079096258
0.00065345928
0.00047089602
0.00049356909
0.00050352734
0.000495353
0.00047042908
0.00043335318
0.00038793285
0.00033673341
0.00028148294
0.00022361931
0.00016396639
0.00010324435
4.3024684e-05
0.0029781183
0.0029279561
0.0028477197
0.0027608051
0.002673055
0.0025865315
0.0025034847
0.0024250181
0.0023497228
0.0022726575
0.0021781271
0.0020098491
0.0015707636
0.00053473906
0.00080773835
0.00079842232
0.00066083029
0.0004868743
0.00050490385
0.00051409171
0.00050446248
0.00047757849
0.00043863484
0.00039173661
0.00033934874
0.00028311154
0.0002242886
0.00016391476
0.00010317893
4.3549495e-05
0.0029432816
0.0028922288
0.0028172829
0.0027351777
0.002650799
0.0025671986
0.0024869431
0.002410952
0.002338117
0.0022640493
0.0021736058
0.0020084377
0.001593249
0.00057112009
0.00081881175
0.00079096258
0.00065345929
0.00047089602
0.0004935691
0.00050352735
0.00049535301
0.00047042909
0.00043335319
0.00038793286
0.00033673342
0.00028148295
0.00022361931
0.00016396639
0.00010324436
4.3024682e-05
0.0031821278
0.0029678364
0.0028516901
0.0027574124
0.0026651409
0.0025766159
0.0024934288
0.0024145152
0.0023371751
0.0022546971
0.0021530364
0.0019848212
0.0016572108
0.00083461573
0.00095022668
0.00084537343
0.00070899194
0.0005222798
0.00053228383
0.0005234015
0.00050420462
0.00047343476
0.00043279969
0.0003852154
0.00033275037
0.00027684906
0.00021843817
0.00015849319
9.7935109e-05
3.8347406e-05
0.0031818945
0.0029693797
0.0028566849
0.0027670808
0.002681436
0.0026022036
0.0025333268
0.0024778029
0.0024394608
0.0024242885
0.0024467516
0.0025103499
0.0026485458
0.00019160734
0.0004070926
0.00044349283
0.00048340771
0.00047561256
0.00044535073
0.00040192472
0.00035072742
0.00029458362
0.0002351645
0.00017345908
0.00011012712
5.218842e-05
0.0029426774
0.0028931769
0.002821523
0.0027440648
0.0026662335
0.0025922435
0.0025268073
0.0024758911
0.0024479922
0.0024567798
0.0025207437
0.0026484187
0.0029478382
5.4382801e-05
0.00037077795
0.00043098321
0.00048621828
0.00048936643
0.00046231669
0.00041920824
0.0003663272
0.00030786641
0.00024632644
0.00018312043
0.00011975807
6.4018483e-05
0.0029775777
0.0029289785
0.0028520566
0.0027698392
0.0026887983
0.0026122909
0.0025445677
0.0024921169
0.0024636733
0.002473596
0.0025465885
0.0026991006
0.0030670892
4.9466726e-05
0.00037665252
0.00043872257
0.00049376994
0.00049643926
0.00046701706
0.00042173684
0.00036803487
0.00030914671
0.00024732944
0.00018409942
0.00012119536
6.7128702e-05
0.0029426774
0.0028931769
0.002821523
0.0027440648
0.0026662335
0.0025922435
0.0025268073
0.0024758911
0.0024479922
0.0024567798
0.0025207437
0.0026484187
0.0029478382
5.43828e-05
0.00037077795
0.0004309832
0.00048621828
0.00048936643
0.00046231669
0.00041920824
0.0003663272
0.0003078664
0.00024632643
0.00018312043
0.00011975807
6.401848e-05
0.0031818945
0.0029693797
0.0028566849
0.0027670808
0.002681436
0.0026022036
0.0025333268
0.0024778029
0.0024394608
0.0024242885
0.0024467516
0.0025103499
0.0026485458
0.00019160734
0.0004070926
0.00044349283
0.00048340771
0.00047561256
0.00044535073
0.00040192471
0.00035072742
0.00029458362
0.00023516449
0.00017345907
0.00011012711
5.2188417e-05
0.0031818945
0.0029693797
0.0028566849
0.0027670808
0.002681436
0.0026022036
0.0025333268
0.0024778029
0.0024394608
0.0024242885
0.0024467516
0.0025103499
0.0026485458
0.00019160739
0.00040709262
0.00044349284
0.00048340771
0.00047561255
0.00044535072
0.0004019247
0.00035072741
0.0002945836
0.00023516448
0.00017345906
0.0001101271
5.2188404e-05
0.0029426774
0.0028931769
0.002821523
0.0027440648
0.0026662335
0.0025922435
0.0025268073
0.0024758911
0.0024479922
0.0024567798
0.0025207437
0.0026484187
0.0029478382
5.4382864e-05
0.00037077798
0.00043098322
0.00048621828
0.00048936642
0.00046231668
0.00041920823
0.00036632718
0.00030786639
0.00024632642
0.00018312041
0.00011975806
6.4018468e-05
0.0029775777
0.0029289785
0.0028520566
0.0027698392
0.0026887983
0.0026122909
0.0025445677
0.0024921169
0.0024636733
0.002473596
0.0025465885
0.0026991006
0.0030670892
4.9466793e-05
0.00037665255
0.00043872258
0.00049376994
0.00049643926
0.00046701705
0.00042173682
0.00036803485
0.00030914669
0.00024732942
0.0001840994
0.00012119534
6.7128689e-05
0.0029426774
0.0028931769
0.002821523
0.0027440648
0.0026662335
0.0025922435
0.0025268073
0.0024758911
0.0024479922
0.0024567798
0.0025207437
0.0026484187
0.0029478382
5.4382857e-05
0.00037077798
0.00043098322
0.00048621828
0.00048936642
0.00046231667
0.00041920822
0.00036632718
0.00030786638
0.00024632641
0.00018312041
0.00011975805
6.4018466e-05
0.0031818945
0.0029693797
0.0028566849
0.0027670808
0.002681436
0.0026022036
0.0025333268
0.0024778029
0.0024394608
0.0024242885
0.0024467516
0.0025103499
0.0026485458
0.00019160738
0.00040709262
0.00044349284
0.00048340771
0.00047561255
0.00044535072
0.0004019247
0.00035072741
0.0002945836
0.00023516448
0.00017345906
0.0001101271
5.2188406e-05
0.0031821278
0.0029678364
0.0028516901
0.0027574124
0.0026651409
0.0025766159
0.0024934288
0.0024145152
0.0023371751
0.0022546971
0.0021530364
0.0019848212
0.0016572108
0.00083461562
0.00095022662
0.00084537337
0.0007089919
0.00052227978
0.00053228382
0.00052340149
0.00050420461
0.00047343475
0.00043279968
0.00038521539
0.00033275036
0.00027684905
0.00021843816
0.00015849318
9.7935098e-05
3.8347392e-05
0.0029432816
0.0028922288
0.0028172829
0.0027351777
0.002650799
0.0025671986
0.0024869431
0.002410952
0.002338117
0.0022640493
0.0021736058
0.0020084376
0.0015932489
0.00057111994
0.00081881167
0.00079096252
0.00065345924
0.000470896
0.00049356909
0.00050352734
0.000495353
0.00047042908
0.00043335318
0.00038793284
0.0003367334
0.00028148293
0.00022361929
0.00016396637
0.00010324434
4.302466e-05
0.0029781183
0.0029279561
0.0028477197
0.0027608051
0.002673055
0.0025865315
0.0025034847
0.0024250181
0.0023497228
0.0022726575
0.0021781271
0.002009849
0.0015707636
0.00053473889
0.00080773826
0.00079842226
0.00066083025
0.00048687429
0.00050490384
0.0005140917
0.00050446247
0.00047757848
0.00043863483
0.00039173659
0.00033934872
0.00028311151
0.00022428858
0.00016391474
0.0001031789
4.354947e-05
0.0029432816
0.0028922288
0.0028172829
0.0027351777
0.002650799
0.0025671986
0.0024869431
0.002410952
0.002338117
0.0022640493
0.0021736058
0.0020084376
0.0015932489
0.00057111993
0.00081881166
0.00079096252
0.00065345924
0.00047089599
0.00049356908
0.00050352733
0.00049535299
0.00047042907
0.00043335317
0.00038793283
0.00033673339
0.00028148292
0.00022361929
0.00016396636
0.00010324433
4.3024657e-05
0.0031821278
0.0029678364
0.0028516901
0.0027574124
0.0026651409
0.0025766159
0.0024934288
0.0024145152
0.0023371751
0.0022546971
0.0021530364
0.0019848212
0.0016572108
0.00083461562
0.00095022661
0.00084537337
0.00070899189
0.00052227978
0.00053228381
0.00052340149
0.0005042046
0.00047343474
0.00043279967
0.00038521538
0.00033275035
0.00027684904
0.00021843816
0.00015849317
9.7935096e-05
3.8347391e-05
0.0032208224
0.002998031
0.0028725918
0.0027696709
0.0026689992
0.0025716648
0.0024780919
0.0023868708
0.0022956676
0.0021999856
0.0020919706
0.0019573851
0.0017841847
0.0014695394
0.0012327962
0.0010416859
0.00087395737
0.00072639037
0.00064806196
0.00059454242
0.000545384
0.00049504949
0.00044235445
0.00038748847
0.00033078327
0.00027254076
0.00021301152
0.00015243303
9.094274e-05
2.8703664e-05
0.0029809956
0.0029221993
0.0028374143
0.002746355
0.0026535942
0.0025613483
0.0024710697
0.0023824586
0.0022939015
0.0022023579
0.0021008112
0.0019738569
0.001796104
0.0014643013
0.0012129015
0.0010149367
0.00084369176
0.00069562625
0.00062272022
0.00057904181
0.0005370977
0.00049126586
0.00044131156
0.0003879805
0.00033200421
0.00027394677
0.00021431273
0.00015336324
9.0817408e-05
2.5469897e-05
0.0030166391
0.0029586906
0.0028684332
0.002772493
0.0026763165
0.0025811992
0.002488363
0.0023975093
0.0023067634
0.0022136804
0.002110972
0.0019836531
0.0018064112
0.0014744779
0.0012227452
0.0010223741
0.0008452745
0.00069605947
0.000625243
0.00058340475
0.00054177785
0.00049574277
0.00044535735
0.00039147524
0.00033493054
0.00027629745
0.00021602018
0.00015432181
9.0816965e-05
2.3936916e-05
0.0029809956
0.0029221993
0.0028374143
0.002746355
0.0026535942
0.0025613483
0.0024710697
0.0023824586
0.0022939015
0.0022023579
0.0021008112
0.0019738569
0.001796104
0.0014643013
0.0012129015
0.0010149367
0.00084369176
0.00069562625
0.00062272022
0.00057904181
0.0005370977
0.00049126586
0.00044131155
0.0003879805
0.00033200421
0.00027394677
0.00021431272
0.00015336324
9.0817406e-05
2.5469894e-05
0.0032208224
0.002998031
0.0028725918
0.0027696709
0.0026689992
0.0025716648
0.0024780919
0.0023868708
0.0022956676
0.0021999856
0.0020919706
0.0019573851
0.0017841847
0.0014695394
0.0012327962
0.0010416859
0.00087395736
0.00072639037
0.00064806195
0.00059454241
0.000545384
0.00049504949
0.00044235444
0.00038748846
0.00033078327
0.00027254076
0.00021301152
0.00015243303
9.0942738e-05
2.8703661e-05
0.0032303445
0.0029982534
0.0028656425
0.0027550284
0.0026456664
0.0025384254
0.0024338798
0.0023304769
0.0022243998
0.0021103406
0.0019821797
0.0018316773
0.0016512494
0.0014233557
0.0012422368
0.0010908597
0.00095406105
0.00083079414
0.00073113488
0.00065001225
0.0005786243
0.00051232627
0.00044890244
0.00038706412
0.00032607718
0.00026547822
0.00020499183
0.00014449386
8.3730441e-05
2.1078401e-05
0.0029914315
0.0029238668
0.0028311563
0.0027322462
0.0026305115
0.0025277702
0.0024251353
0.0023222862
0.0022176999
0.0021064648
0.001980771
0.001832004
0.0016497134
0.0014167891
0.0012316612
0.0010821152
0.00094729027
0.00082583695
0.00072679946
0.00064683707
0.00057673122
0.00051120778
0.00044808737
0.00038629344
0.0003251741
0.00026437248
0.00020363994
0.00014266506
8.0441516e-05
1.3207556e-05
0.0030262934
0.0029595466
0.0028613121
0.0027574425
0.0026520759
0.0025461215
0.0024403223
0.0023342481
0.0022271529
0.0021137172
0.0019859979
0.001834996
0.0016502215
0.0014162848
0.0012319365
0.0010844263
0.00095109055
0.00083039381
0.00073191512
0.00065188429
0.00058139427
0.00051536205
0.00045170085
0.00038938338
0.00032775215
0.00026641582
0.00020505022
0.00014324832
7.9806622e-05
1.0380715e-05
0.0029914315
0.0029238668
0.0028311563
0.0027322462
0.0026305115
0.0025277702
0.0024251353
0.0023222862
0.0022176999
0.0021064648
0.001980771
0.001832004
0.0016497134
0.0014167891
0.0012316612
0.0010821152
0.00094729027
0.00082583695
0.00072679946
0.00064683707
0.00057673122
0.00051120778
0.00044808737
0.00038629344
0.0003251741
0.00026437248
0.00020363994
0.00014266506
8.0441516e-05
1.3207553e-05
0.0032303445
0.0029982534
0.0028656425
0.0027550284
0.0026456664
0.0025384254
0.0024338798
0.0023304769
0.0022243998
0.0021103406
0.0019821797
0.0018316773
0.0016512494
0.0014233557
0.0012422368
0.0010908597
0.00095406105
0.00083079414
0.00073113488
0.00065001225
0.0005786243
0.00051232627
0.00044890244
0.00038706412
0.00032607718
0.00026547822
0.00020499183
0.00014449386
8.373044e-05
2.1078399e-05
0.0034398905
0.003087351
0.0029250242
0.0027935619
0.0026692733
0.0025517982
0.0024392146
0.0023279318
0.0022148354
0.0020974565
0.0019722617
0.0018350262
0.0016817423
0.0015069302
0.0013308789
0.0011651252
0.0010153608
0.00088415071
0.00077307315
0.00067936456
0.00059789645
0.00052440264
0.00045605889
0.00039098633
0.00032791622
0.00026601368
0.00020477757
0.00014404671
8.3782397e-05
2.139079e-05
0.0031950328
0.0030046991
0.0028707692
0.002756373
0.002643924
0.0025335007
0.002425339
0.0023172151
0.0022058015
0.0020888747
0.0019650808
0.0018305236
0.0016805192
0.0015090221
0.0013343477
0.0011685774
0.0010163826
0.00088245947
0.00076997248
0.00067602488
0.00059477188
0.00052144484
0.00045312219
0.000387952
0.00032471332
0.00026264659
0.00020132984
0.00014052089
7.9725028e-05
1.4680572e-05
0.0032318121
0.0030414416
0.0029015263
0.0027820636
0.002665339
0.0025509709
0.0024392194
0.0023279647
0.002213814
0.0020943117
0.0019682072
0.0018322008
0.0016818581
0.001511388
0.0013378934
0.0011733986
0.0010216689
0.00088733983
0.0007747228
0.00068071545
0.00059922815
0.00052553569
0.00045682145
0.00039126658
0.00032763264
0.00026511492
0.00020322246
0.00014167569
7.979568e-05
1.2904469e-05
0.0031950328
0.0030046991
0.0028707692
0.002756373
0.002643924
0.0025335007
0.002425339
0.0023172151
0.0022058015
0.0020888747
0.0019650808
0.0018305236
0.0016805192
0.0015090221
0.0013343477
0.0011685774
0.0010163826
0.00088245947
0.00076997248
0.00067602488
0.00059477188
0.00052144484
0.00045312219
0.000387952
0.00032471332
0.00026264659
0.00020132984
0.00014052089
7.9725027e-05
1.468057e-05
0.0034398905
0.003087351
0.0029250242
0.0027935619
0.0026692733
0.0025517982
0.0024392146
0.0023279318
0.0022148354
0.0020974565
0.0019722617
0.0018350262
0.0016817423
0.0015069302
0.0013308789
0.0011651252
0.0010153608
0.00088415071
0.00077307315
0.00067936456
0.00059789645
0.00052440264
0.00045605889
0.00039098633
0.00032791622
0.00026601368
0.00020477757
0.00014404671
8.3782397e-05
2.1390789e-05
)
;

boundaryField
{
    minX
    {
        type            zeroGradient;
    }
    maxX
    {
        type            fixedValue;
        value           uniform 0;
    }
    minY
    {
        type            fixedFluxPressure;
        gradient        uniform 0;
        value           nonuniform List<scalar> 
292
(
0.0034398905
0.0032303445
0.0032208224
0.0031821278
0.0031818945
0.0031818945
0.0031821278
0.0032208224
0.0032303445
0.0034398905
0.003087351
0.0029982534
0.002998031
0.0029678364
0.0029693797
0.0029693797
0.0029678364
0.002998031
0.0029982534
0.003087351
0.0029250242
0.0028656425
0.0028725918
0.0028516901
0.0028566849
0.0028566849
0.0028516901
0.0028725918
0.0028656425
0.0029250242
0.0027935619
0.0027550284
0.0027696709
0.0027574124
0.0027670808
0.0027670808
0.0027574124
0.0027696709
0.0027550284
0.0027935619
0.0026692733
0.0026456664
0.0026689992
0.0026651409
0.002681436
0.002681436
0.0026651409
0.0026689992
0.0026456664
0.0026692733
0.0025517982
0.0025384254
0.0025716648
0.0025766159
0.0026022036
0.0026022036
0.0025766159
0.0025716648
0.0025384254
0.0025517982
0.0024392146
0.0024338798
0.0024780919
0.0024934288
0.0025333268
0.0025333268
0.0024934288
0.0024780919
0.0024338798
0.0024392146
0.0023279318
0.0023304769
0.0023868709
0.0024145152
0.0024778029
0.0024778029
0.0024145152
0.0023868708
0.0023304769
0.0023279318
0.0022148354
0.0022243998
0.0022956676
0.0023371751
0.0024394608
0.0024394608
0.0023371751
0.0022956676
0.0022243998
0.0022148354
0.0020974565
0.0021103406
0.0021999857
0.0022546971
0.0024242885
0.0024242885
0.0022546971
0.0021999856
0.0021103406
0.0020974565
0.0019722617
0.0019821797
0.0020919706
0.0021530364
0.0024467516
0.0024467516
0.0021530364
0.0020919706
0.0019821797
0.0019722617
0.0018350262
0.0018316773
0.0019573851
0.0019848212
0.0025103499
0.0025103499
0.0019848212
0.0019573851
0.0018316773
0.0018350262
0.0016817423
0.0016512494
0.0017841847
0.0016572108
0.0026485458
0.0026485458
0.0016572108
0.0017841847
0.0016512494
0.0016817423
0.0015069302
0.0014233557
0.0014695394
0.00083461574
0.00083461562
0.0014695394
0.0014233557
0.0015069302
0.0013308789
0.0012422368
0.0012327962
0.00095022668
0.00095022662
0.0012327962
0.0012422368
0.0013308789
0.0011651252
0.0010908598
0.001041686
0.00084537343
0.00084537337
0.0010416859
0.0010908597
0.0011651252
0.0010153608
0.00095406107
0.0008739574
0.00070899194
0.0007089919
0.00087395737
0.00095406105
0.0010153608
0.00088415073
0.00083079415
0.0007263904
0.0005222798
0.00019160734
0.00019160739
0.00052227978
0.00072639037
0.00083079414
0.00088415071
0.00077307316
0.00073113489
0.00064806197
0.00053228383
0.0004070926
0.00040709262
0.00053228382
0.00064806196
0.00073113488
0.00077307315
0.00067936457
0.00065001226
0.00059454243
0.0005234015
0.00044349283
0.00044349284
0.00052340149
0.00059454242
0.00065001225
0.00067936456
0.00059789646
0.00057862432
0.00054538402
0.00050420461
0.00048340771
0.00048340771
0.00050420461
0.000545384
0.0005786243
0.00059789645
0.00052440265
0.00051232628
0.0004950495
0.00047343476
0.00047561256
0.00047561255
0.00047343475
0.00049504949
0.00051232627
0.00052440264
0.0004560589
0.00044890245
0.00044235446
0.00043279969
0.00044535073
0.00044535072
0.00043279968
0.00044235445
0.00044890244
0.00045605889
0.00039098635
0.00038706413
0.00038748848
0.0003852154
0.00040192472
0.0004019247
0.00038521539
0.00038748847
0.00038706412
0.00039098633
0.00032791623
0.00032607719
0.00033078329
0.00033275037
0.00035072742
0.00035072741
0.00033275036
0.00033078327
0.00032607718
0.00032791622
0.0002660137
0.00026547823
0.00027254077
0.00027684906
0.00029458362
0.0002945836
0.00027684905
0.00027254076
0.00026547822
0.00026601368
0.00020477758
0.00020499184
0.00021301154
0.00021843817
0.0002351645
0.00023516448
0.00021843816
0.00021301152
0.00020499183
0.00020477757
0.00014404672
0.00014449387
0.00015243305
0.00015849319
0.00017345908
0.00017345906
0.00015849318
0.00015243303
0.00014449386
0.00014404671
8.3782405e-05
8.373045e-05
9.0942755e-05
9.7935113e-05
0.00011012712
0.0001101271
9.7935098e-05
9.094274e-05
8.3730441e-05
8.3782397e-05
2.1390805e-05
2.107842e-05
2.8703683e-05
3.8347414e-05
5.218842e-05
5.2188404e-05
3.8347392e-05
2.8703664e-05
2.1078401e-05
2.139079e-05
)
;
    }
    minZ
    {
        type            fixedFluxPressure;
        gradient        uniform 0;
        value           nonuniform List<scalar> 
150
(
0.0034398905
0.0031950328
0.0032318121
0.0031950328
0.0034398905
0.003087351
0.0030046991
0.0030414416
0.0030046991
0.003087351
0.0029250242
0.0028707692
0.0029015263
0.0028707692
0.0029250242
0.0027935619
0.002756373
0.0027820636
0.002756373
0.0027935619
0.0026692733
0.002643924
0.002665339
0.002643924
0.0026692733
0.0025517982
0.0025335007
0.0025509709
0.0025335007
0.0025517982
0.0024392146
0.0024253391
0.0024392194
0.0024253391
0.0024392146
0.0023279318
0.0023172151
0.0023279647
0.0023172151
0.0023279318
0.0022148354
0.0022058016
0.002213814
0.0022058016
0.0022148354
0.0020974565
0.0020888747
0.0020943117
0.0020888747
0.0020974565
0.0019722617
0.0019650808
0.0019682072
0.0019650808
0.0019722617
0.0018350262
0.0018305236
0.0018322008
0.0018305236
0.0018350262
0.0016817423
0.0016805192
0.0016818581
0.0016805192
0.0016817423
0.0015069302
0.0015090221
0.001511388
0.0015090221
0.0015069302
0.0013308789
0.0013343478
0.0013378934
0.0013343478
0.0013308789
0.0011651252
0.0011685774
0.0011733986
0.0011685774
0.0011651252
0.0010153608
0.0010163826
0.0010216689
0.0010163826
0.0010153608
0.00088415073
0.00088245949
0.00088733984
0.00088245949
0.00088415073
0.00077307316
0.00076997249
0.00077472281
0.00076997249
0.00077307316
0.00067936457
0.00067602489
0.00068071546
0.00067602489
0.00067936457
0.00059789646
0.0005947719
0.00059922816
0.0005947719
0.00059789646
0.00052440265
0.00052144485
0.00052553571
0.00052144485
0.00052440265
0.0004560589
0.0004531222
0.00045682146
0.00045312221
0.0004560589
0.00039098635
0.00038795201
0.00039126659
0.00038795201
0.00039098635
0.00032791623
0.00032471333
0.00032763265
0.00032471333
0.00032791623
0.0002660137
0.0002626466
0.00026511493
0.0002626466
0.0002660137
0.00020477758
0.00020132985
0.00020322247
0.00020132985
0.00020477758
0.00014404672
0.0001405209
0.0001416757
0.0001405209
0.00014404672
8.3782405e-05
7.9725036e-05
7.9795689e-05
7.9725036e-05
8.3782404e-05
2.1390805e-05
1.468059e-05
1.2904487e-05
1.4680587e-05
2.1390802e-05
)
;
    }
    maxZ
    {
        type            fixedFluxPressure;
        gradient        uniform 0;
        value           nonuniform List<scalar> 
150
(
0.0034398905
0.0031950328
0.0032318121
0.0031950328
0.0034398905
0.003087351
0.0030046991
0.0030414416
0.0030046991
0.003087351
0.0029250242
0.0028707692
0.0029015263
0.0028707692
0.0029250242
0.0027935619
0.002756373
0.0027820636
0.002756373
0.0027935619
0.0026692733
0.002643924
0.002665339
0.002643924
0.0026692733
0.0025517982
0.0025335007
0.0025509709
0.0025335007
0.0025517982
0.0024392146
0.002425339
0.0024392194
0.002425339
0.0024392146
0.0023279318
0.0023172151
0.0023279647
0.0023172151
0.0023279318
0.0022148354
0.0022058015
0.002213814
0.0022058015
0.0022148354
0.0020974565
0.0020888747
0.0020943117
0.0020888747
0.0020974565
0.0019722617
0.0019650808
0.0019682072
0.0019650808
0.0019722617
0.0018350262
0.0018305236
0.0018322008
0.0018305236
0.0018350262
0.0016817423
0.0016805192
0.0016818581
0.0016805192
0.0016817423
0.0015069302
0.0015090221
0.001511388
0.0015090221
0.0015069302
0.0013308789
0.0013343477
0.0013378934
0.0013343477
0.0013308789
0.0011651252
0.0011685774
0.0011733986
0.0011685774
0.0011651252
0.0010153608
0.0010163826
0.0010216689
0.0010163826
0.0010153608
0.00088415071
0.00088245947
0.00088733983
0.00088245947
0.00088415071
0.00077307315
0.00076997248
0.0007747228
0.00076997248
0.00077307315
0.00067936456
0.00067602488
0.00068071545
0.00067602488
0.00067936456
0.00059789645
0.00059477188
0.00059922815
0.00059477188
0.00059789645
0.00052440264
0.00052144484
0.00052553569
0.00052144484
0.00052440264
0.00045605889
0.00045312219
0.00045682145
0.00045312219
0.00045605889
0.00039098633
0.000387952
0.00039126658
0.000387952
0.00039098633
0.00032791622
0.00032471332
0.00032763264
0.00032471332
0.00032791622
0.00026601368
0.00026264659
0.00026511492
0.00026264659
0.00026601368
0.00020477757
0.00020132984
0.00020322246
0.00020132984
0.00020477757
0.00014404671
0.00014052089
0.00014167569
0.00014052089
0.00014404671
8.3782397e-05
7.9725028e-05
7.979568e-05
7.9725027e-05
8.3782397e-05
2.139079e-05
1.4680572e-05
1.2904469e-05
1.468057e-05
2.1390789e-05
)
;
    }
    bottomWater_to_rightSolid
    {
        type            fixedFluxPressure;
        gradient        uniform 0;
        value           nonuniform List<scalar> 
130
(
0.00088415073
0.00077307316
0.00067936457
0.00059789646
0.00052440265
0.0004560589
0.00039098635
0.00032791623
0.0002660137
0.00020477758
0.00014404672
8.3782404e-05
2.1390802e-05
0.00083079416
0.0007311349
0.00065001226
0.00057862432
0.00051232628
0.00044890246
0.00038706413
0.00032607719
0.00026547823
0.00020499184
0.00014449387
8.3730448e-05
2.1078413e-05
0.0007263904
0.00064806198
0.00059454243
0.00054538402
0.0004950495
0.00044235446
0.00038748848
0.00033078329
0.00027254077
0.00021301154
0.00015243305
9.094275e-05
2.8703675e-05
0.0005222798
0.00053228383
0.0005234015
0.00050420462
0.00047343476
0.00043279969
0.0003852154
0.00033275037
0.00027684906
0.00021843817
0.00015849319
9.7935109e-05
3.8347406e-05
0.00019160734
0.0004070926
0.00044349283
0.00048340771
0.00047561256
0.00044535073
0.00040192471
0.00035072742
0.00029458362