/*--------------------------------*- C++ -*----------------------------------*\
| =========                 |                                                 |
| \\      /  F ield         | OpenFOAM: The Open Source CFD Toolbox           |
|  \\    /   O peration     | Version:  2412                                  |
|   \\  /    A nd           | Website:  www.openfoam.com                      |
|    \\/     M anipulation  |                                                 |
\*---------------------------------------------------------------------------*/
FoamFile
{
    version     2.0;
    format      ascii;
    arch        "LSB;label=32;scalar=64";
    class       volScalarField;
    location    "90/bottomWater";
    object      T;
}
// * * * * * * * * * * * * * * * * * * * * * * * * * * * * * * * * * * * * * //

dimensions      [0 0 0 1 0 0 0];

internalField   nonuniform List<scalar> 
1460
(
300
300
300
300
300
299.99999
299.99999
299.99999
299.99999
300
300.00009
300.00174
300.01688
300.02904
300.03145
300.02968
300.02699
300.02365
300.01995
300.01617
300.01257
300.00938
300.00674
300.00467
300.00314
300.00205
300.00131
300.00081
300.0005
300.0003
300
300
300
300
300
300
300
299.99999
299.99999
299.99999
300.00001
300.00025
300.00377
300.00925
300.01424
300.01715
300.01825
300.01898
300.01926
300.01902
300.01822
300.0169
300.01513
300.01307
300.01089
300.00877
300.00684
300.00516
300.00378
300.00271
300
300
300
300
300
300
300
300.00001
300.00001
300.00001
300.00001
300.0001
300.00166
300.00465
300.00806
300.01099
300.01285
300.01467
300.01626
300.01744
300.01805
300.01798
300.01719
300.01576
300.01388
300.01174
300.00956
300.00752
300.00575
300.00433
300.00001
300.00003
300.00005
300.00007
300.00009
300.0001
300.00012
300.00015
300.00017
300.0002
300.00025
300.00046
300.00354
300.02403
300.04932
300.07648
300.10226
300.12467
300.14159
300.15131
300.15299
300.14684
300.13416
300.11686
300.0976
300.07838
300.06086
300.04633
300.03505
300.02718
300.00023
300.00043
300.00063
300.00086
300.00114
300.00151
300.00198
300.00257
300.00326
300.00406
300.00496
300.00718
300.04403
301.19724
302.07147
302.68859
303.06945
303.2347
303.21045
303.02477
302.71851
302.34123
301.9424
301.56146
301.22709
300.9495
300.7304
300.56543
300.44861
300.37479
300
300
300
300
300
299.99999
299.99999
299.99999
299.99999
300.00002
300.00078
300.01656
300.20327
300.32383
300.36337
300.35152
300.33033
300.30114
300.26665
300.22933
300.19148
300.15504
300.12159
300.09221
300.06778
300.04829
300.0334
300.02247
300.01475
300.00954
300
300
300
300
300
300
300
299.99999
299.99999
300
300.00008
300.00262
300.05372
300.11418
300.16826
300.20408
300.21044
300.2138
300.21425
300.21199
300.20714
300.19973
300.18978
300.17727
300.16249
300.14573
300.12754
300.10863
300.08982
300.07213
300
300
300
300
300
300
300.00001
300.00001
300.00001
300.00001
300.00004
300.00111
300.02761
300.06231
300.09763
300.12685
300.14106
300.14692
300.15155
300.15484
300.1566
300.15657
300.15446
300.14997
300.14305
300.13367
300.12207
300.10867
300.09412
300.07932
300.00001
300.00003
300.00005
300.00007
300.00009
300.00011
300.00014
300.00016
300.0002
300.00024
300.00032
300.00199
300.03683
300.08826
300.14338
300.19156
300.2224
300.25068
300.27405
300.29024
300.29769
300.29588
300.28522
300.26666
300.24232
300.21397
300.18366
300.15335
300.12477
300.09972
300.00024
300.00044
300.00064
300.00086
300.00114
300.0015
300.00198
300.00259
300.00335
300.0043
300.00568
300.01325
300.11073
301.1277
301.94434
302.57867
303.04644
303.33811
303.45557
303.40588
303.21045
302.90336
302.5265
302.12127
301.72815
301.37196
301.06847
300.82397
300.63798
300.50774
300
300
300
300
300
299.99999
299.99999
299.99999
300
300.00013
300.00423
300.10025
301.49959
302.24947
302.58795
302.57172
302.4991
302.33272
302.1029
301.83968
301.56558
301.29716
301.04599
300.81948
300.62416
300.46174
300.33196
300.23229
300.15856
300.10652
300
300
300
300
300
300
300
299.99999
299.99999
300.00001
300.00052
300.01975
300.51272
300.95998
301.35589
301.65748
301.74038
301.74874
301.72303
301.67031
301.59686
301.50783
301.4071
301.2971
301.18075
301.05978
300.93638
300.81296
300.69218
300.57817
300
300
300
300
300
300.00001
300.00001
300.00001
300.00001
300.00001
300.00023
300.00999
300.30915
300.60697
300.89176
301.13991
301.26984
301.28791
301.28839
301.27442
301.248
301.21032
301.16204
301.1033
301.03497
300.95765
300.87262
300.78174
300.68744
300.59362
300.00001
300.00003
300.00006
300.00008
300.0001
300.00013
300.00015
300.00019
300.00022
300.00027
300.00062
300.01353
300.35512
300.66577
300.94355
301.16564
301.25037
301.29283
301.31292
301.30683
301.27367
301.21551
301.13627
301.04036
300.93409
300.82201
300.70883
300.59864
300.49495
300.40162
300.00025
300.00046
300.00067
300.00092
300.00123
300.00165
300.00222
300.00298
300.00398
300.00535
300.00855
300.04925
300.67948
302.13561
303.21247
303.93623
304.4451
304.71049
304.75689
304.60289
304.27882
303.8282
303.30308
302.75405
302.23005
301.76026
301.36231
301.04199
300.79691
300.62231
300
300
300
300
300
299.99999
299.99999
299.99999
300.00001
300.00047
300.01464
300.37638
306.78771
309.96686
313.44106
316.7995
318.98429
316.32163
313.34223
310.63871
308.36272
306.50821
305.00883
303.79992
302.83677
302.07886
301.49523
301.05988
300.74036
300.51279
300
300
300
300
300
300
300
299.99999
300
300.00004
300.0022
300.09336
302.92956
304.93484
307.22058
309.60116
311.90746
311.52882
310.66882
309.63173
308.57692
307.58074
306.66563
305.83041
305.07156
304.38016
303.7501
303.17494
302.65367
302.19257
300
300
300
300
300
300.00001
300.00001
300.00001
300.00001
300.00003
300.00106
300.05316
301.97287
303.43816
305.0538
306.72675
308.37069
308.23325
307.81574
307.27257
306.68305
306.09114
305.51401
304.95637
304.42269
303.91279
303.42807
302.9706
302.54265
302.15192
300.00001
300.00004
300.00006
300.00008
300.00011
300.00014
300.00017
300.00021
300.00026
300.00032
300.00176
300.06429
302.05627
303.41142
304.95118
306.53572
308.03677
307.70936
307.08684
306.35511
305.60961
304.89937
304.24232
303.64154
303.10014
302.61421
302.18112
301.79775
301.46272
301.17715
300.00026
300.00049
300.00072
300.00099
300.00135
300.00184
300.00252
300.00346
300.00478
300.00676
300.01461
300.16955
303.10935
305.97706
308.83712
311.29369
312.72478
311.63548
310.16909
308.64079
307.17694
305.84017
304.65911
303.64597
302.80884
302.13548
301.60943
301.21092
300.91752
300.7122
300
300
300
300
299.99999
299.99999
299.99999
299.99999
300.00003
300.00111
300.03488
300.96078
322.16512
344.09428
319.01225
311.70211
308.10784
305.82535
304.22939
303.09356
302.26592
301.6509
301.19159
300.84983
300.59806
300.41955
300
300
300
300
300
300
299.99999
299.99999
300
300.00012
300.00614
300.28484
311.37027
338.07675
321.21839
314.98327
311.6908
309.53499
307.93419
306.63506
305.54452
304.61021
303.80403
303.10809
302.51004
302.00636
300
300
300
300
300
300.00001
300.00001
300.00001
300.00001
300.00006
300.0032
300.17596
308.24984
329.93161
317.55483
312.74335
310.10483
308.34218
307.019
305.9497
305.05109
304.27519
303.59694
303.00138
302.47902
302.02827
300.00001
300.00004
300.00006
300.00009
300.00012
300.00015
300.00019
300.00023
300.00027
300.00037
300.00445
300.19849
308.04847
323.01561
312.54926
308.78655
306.77654
305.43779
304.4367
303.63652
302.98302
302.43675
301.97627
301.58774
301.26145
300.99294
300.00026
300.0005
300.00074
300.00103
300.00142
300.00196
300.00273
300.00383
300.00544
300.00811
300.02449
300.43139
310.45668
322.70912
311.98981
308.49824
306.48133
305.02574
303.90479
303.02848
302.34445
301.80913
301.39286
301.07332
300.83356
300.66322
300
300
300
300
299.99999
299.99999
299.99999
299.99999
300.00003
300.00111
300.03488
300.96078
322.16512
344.09465
319.01247
311.7022
308.10787
305.82536
304.22938
303.09355
302.26591
301.6509
301.19159
300.84982
300.59806
300.41955
300
300
300
300
300
300
299.99999
299.99999
300
300.00012
300.00614
300.28484
311.37027
338.0769
321.21851
314.98336
311.69085
309.53502
307.93419
306.63505
305.54451
304.61021
303.80403
303.10809
302.51004
302.00636
300
300
300
300
300
300.00001
300.00001
300.00001
300.00001
300.00006
300.0032
300.17596
308.24983
329.93172
317.55493
312.74343
310.10488
308.34221
307.01901
305.94971
305.05109
304.2752
303.59695
303.00138
302.47902
302.02827
300.00001
300.00004
300.00006
300.00009
300.00012
300.00015
300.00019
300.00023
300.00027
300.00037
300.00445
300.19849
308.04847
323.01591
312.5495
308.78671
306.77664
305.43785
304.43672
303.63653
302.98303
302.43676
301.97628
301.58774
301.26145
300.99295
300.00026
300.0005
300.00074
300.00103
300.00142
300.00196
300.00273
300.00383
300.00544
300.00811
300.02449
300.43139
310.45667
322.70975
311.99018
308.49841
306.4814
305.02577
303.90477
303.02847
302.34445
301.80913
301.39286
301.07333
300.83356
300.66322
300
300
300
300
300
299.99999
299.99999
299.99999
300.00001
300.00047
300.01464
300.37638
306.7877
309.96655
313.44076
316.7993
318.98425
316.32294
313.34326
310.6393
308.36299
306.5083
305.00874
303.79987
302.83675
302.07886
301.49523
301.05988
300.74036
300.51279
300
300
300
300
300
300
300
299.99999
300
300.00004
300.0022
300.09336
302.92956
304.93478
307.22051
309.6011
311.90744
311.52923
310.66925
309.6321
308.57719
307.5809
306.66564
305.83039
305.07153
304.38015
303.7501
303.17494
302.65367
302.19257
300
300
300
300
300
300.00001
300.00001
300.00001
300.00001
300.00003
300.00106
300.05316
301.97287
303.43811
305.05375
306.7267
308.37067
308.23353
307.81604
307.27284
306.68327
306.09128
305.51406
304.95638
304.42268
303.91278
303.42807
302.97061
302.54266
302.15193
300.00001
300.00004
300.00006
300.00008
300.00011
300.00014
300.00017
300.00021
300.00026
300.00032
300.00176
300.06429
302.05626
303.41128
304.95102
306.53559
308.0367
307.7102
307.08767
306.35579
305.61009
304.89966
304.24237
303.64153
303.10013
302.61421
302.18113
301.79776
301.46273
301.17716
300.00026
300.00049
300.00072
300.00099
300.00135
300.00184
300.00252
300.00346
300.00478
300.00676
300.01461
300.16955
303.10932
305.97657
308.8367
311.29342
312.72477
311.63793
310.17088
308.6418
307.17739
305.84033
304.65878
303.64583
302.80881
302.13549
301.60945
301.21093
300.91753
300.7122
300
300
300
300
300
299.99999
299.99999
299.99999
300
300.00013
300.00423
300.10025
301.49958
302.24933
302.5878
302.5716
302.49904
302.33319
302.10334
301.84
301.56577
301.29722
301.0454
300.81961
300.62429
300.46184
300.33201
300.23232
300.15857
300.10652
300
300
300
300
300
300
300
299.99999
299.99999
300.00001
300.00052
300.01975
300.51272
300.95997
301.35587
301.65746
301.74037
301.74882
301.72313
301.67042
301.59696
301.5079
301.40682
301.29716
301.18083
301.05988
300.93648
300.81305
300.69225
300.57821
300
300
300
300
300
300.00001
300.00001
300.00001
300.00001
300.00001
300.00023
300.00999
300.30914
300.60696
300.89175
301.1399
301.26983
301.28794
301.28842
301.27446
301.24805
301.21036
301.16188
301.10334
301.03502
300.95772
300.8727
300.78183
300.68751
300.59367
300.00001
300.00003
300.00006
300.00008
300.0001
300.00013
300.00015
300.00019
300.00022
300.00027
300.00062
300.01353
300.35512
300.66573
300.9435
301.16559
301.25034
301.29301
301.31313
301.30704
301.27387
301.21564
301.13586
301.04047
300.9342
300.82214
300.70895
300.59874
300.49503
300.40167
300.00025
300.00046
300.00067
300.00092
300.00123
300.00165
300.00222
300.00298
300.00398
300.00535
300.00855
300.04925
300.67946
302.13542
303.2123
303.9361
304.44508
304.71184
304.75806
304.60371
304.27928
303.82832
303.30116
302.75459
302.23055
301.76061
301.36249
301.04208
300.79694
300.62233
300
300
300
300
300
299.99999
299.99999
299.99999
299.99999
300.00002
300.00078
300.01656
300.20327
300.32379
300.36333
300.35149
300.33032
300.30125
300.26675
300.22941
300.19152
300.15505
300.12148
300.09223
300.0678
300.0483
300.0334
300.02247
300.01475
300.00954
300
300
300
300
300
300
300
299.99999
299.99999
300
300.00008
300.00262
300.05372
300.11417
300.16826
300.20407
300.21044
300.21381
300.21427
300.21201
300.20715
300.19975
300.18973
300.17728
300.16251
300.14576
300.12756
300.10864
300.08983
300.07214
300
300
300
300
300
300
300.00001
300.00001
300.00001
300.00001
300.00004
300.00111
300.02761
300.06231
300.09763
300.12685
300.14106
300.14692
300.15155
300.15484
300.1566
300.15657
300.15443
300.14998
300.14306
300.13369
300.12209
300.10869
300.09413
300.07933
300.00001
300.00003
300.00005
300.00007
300.00009
300.00011
300.00014
300.00016
300.0002
300.00024
300.00032
300.00199
300.03683
300.08826
300.14337
300.19155
300.2224
300.25076
300.27413
300.29032
300.29776
300.29593
300.28505
300.2667
300.24237
300.21402
300.18371
300.15339
300.12479
300.09973
300.00024
300.00044
300.00064
300.00086
300.00114
300.0015
300.00198
300.00259
300.00335
300.0043
300.00568
300.01325
300.11072
301.12765
301.9443
302.57864
303.04648
303.33928
303.45653
303.40652
303.21079
302.90344
302.52493
302.12174
301.72858
301.37223
301.06861
300.82403
300.638
300.50775
300
300
300
300
300
299.99999
299.99999
299.99999
299.99999
300
300.00009
300.00174
300.01688
300.02903
300.03145
300.02968
300.02699
300.02366
300.01996
300.01617
300.01257
300.00938
300.00674
300.00468
300.00314
300.00205
300.00131
300.00081
300.0005
300.0003
300
300
300
300
300
300
300
299.99999
299.99999
299.99999
300.00001
300.00025
300.00377
300.00925
300.01424
300.01715
300.01825
300.01898
300.01926
300.01902
300.01822
300.0169
300.01512
300.01307
300.0109
300.00878
300.00684
300.00516
300.00378
300.00271
300
300
300
300
300
300
300
300.00001
300.00001
300.00001
300.00001
300.0001
300.00166
300.00465
300.00806
300.01099
300.01285
300.01467
300.01626
300.01745
300.01806
300.01798
300.01718
300.01576
300.01388
300.01174
300.00956
300.00752
300.00575
300.00433
300.00001
300.00003
300.00005
300.00007
300.00009
300.0001
300.00012
300.00015
300.00017
300.0002
300.00025
300.00046
300.00354
300.02403
300.04932
300.07647
300.10226
300.12474
300.14166
300.15136
300.15302
300.14686
300.13403
300.11689
300.09763
300.07841
300.06087
300.04634
300.03505
300.02718
300.00023
300.00043
300.00063
300.00086
300.00114
300.00151
300.00198
300.00257
300.00327
300.00406
300.00496
300.00718
300.04402
301.19721
302.07145
302.68858
303.06952
303.23602
303.21131
303.02521
302.71868
302.34121
301.94121
301.56194
301.22738
300.94962
300.73044
300.56544
300.44861
300.3748
)
;

boundaryField
{
    minX
    {
        type            fixedValue;
        value           uniform 300;
    }
    maxX
    {
        type            inletOutlet;
        inletValue      uniform 300;
        value           nonuniform List<scalar> 
50
(
300.0003
300.0027
300.00432
300.02713
300.37431
300.00952
300.07203
300.07922
300.09955
300.50707
300.10634
300.57758
300.59306
300.40109
300.62148
300.51211
302.19063
302.15004
301.17579
300.71126
300.41891
302.00404
302.0259
300.99157
300.66236
300.41891
302.00404
302.0259
300.99157
300.66237
300.51211
302.19063
302.15005
301.1758
300.71126
300.10635
300.57762
300.59311
300.40114
300.62149
300.00952
300.07204
300.07923
300.09957
300.50708
300.0003
300.0027
300.00432
300.02713
300.37432
)
;
    }
    minY
    {
        type            zeroGradient;
    }
    minZ
    {
        type            zeroGradient;
    }
    maxZ
    {
        type            zeroGradient;
    }
    bottomWater_to_rightSolid
    {
        type            compressible::turbulentTemperatureRadCoupledMixed;
        refValue        nonuniform List<scalar> 
130
(
324.18676
321.47934
318.70179
316.00479
313.49698
311.24695
309.29084
307.64138
306.29607
305.24406
304.47135
303.96461
303.71381
326.56445
323.3181
320.0664
316.9874
314.18945
311.72774
309.62147
307.86765
306.45109
305.35142
304.54792
304.02279
303.76334
331.37103
326.88315
322.60992
318.75786
315.40271
312.55117
310.17735
308.24242
306.70476
305.52546
304.67123
304.11614
303.84275
338.55231
331.72323
325.80058
320.84623
316.76837
313.44577
310.76528
308.63079
306.96364
305.7011
304.79474
304.20926
303.92185
346.93161
336.25448
328.38148
322.3779
317.70577
314.03263
311.1391
308.87252
307.12252
305.80799
304.86962
304.26572
303.96992
346.9316
336.25448
328.38149
322.3779
317.70577
314.03263
311.13911
308.87252
307.12252
305.808
304.86962
304.26573
303.96993
338.55232
331.72324
325.8006
320.84624
316.76837
313.44578
310.76529
308.63079
306.96365
305.70111
304.79474
304.20926
303.92186
331.37106
326.88318
322.60994
318.75788
315.40272
312.55117
310.17736
308.24242
306.70477
305.52547
304.67124
304.11615
303.84276
326.56449
323.31814
320.06644
316.98742
314.18947
311.72775
309.62149
307.86766
306.4511
305.35143
304.54793
304.0228
303.76335
324.18681
321.47938
318.70182
316.00482
313.497
311.24696
309.29086
307.64139
306.29608
305.24406
304.47135
303.96462
303.71381
)
;
        refGradient     uniform 0;
        valueFraction   uniform 0.99248593;
        source          uniform 0;
        logInterval     -1;
        writePrecision  8;
        updateHeader    1;
        writeToFile     0;
        useUserTime     1;
        kappaMethod     fluidThermo;
        value           nonuniform List<scalar> 
130
(
324.02931
321.34205
318.58397
315.90494
313.41314
311.17702
309.23275
307.59317
306.25588
305.21013
304.44199
303.93818
303.68871
326.38991
323.16884
319.9412
316.88386
314.10463
311.65859
309.5651
307.82151
306.41291
305.31922
304.51993
303.99735
303.73888
331.17069
326.71687
322.47459
318.64905
315.31572
312.48166
310.12155
308.19722
306.66759
305.49417
304.64395
304.09119
303.81854
338.35003
331.56125
325.67162
320.74349
316.68622
313.37973
310.71176
308.58703
306.92735
305.67034
304.7678
304.18452
303.89773
346.74955
336.07212
328.23205
322.25842
317.61047
313.95651
311.07814
308.82345
307.08259
305.77481
304.84108
304.23993
303.94507
346.74955
336.07212
328.23205
322.25842
317.61047
313.95651
311.07815
308.82345
307.08259
305.77481
304.84109
304.23993
303.94508
338.35006
331.56127
325.67164
320.74351
316.68623
313.37973
310.71177
308.58703
306.92735
305.67035
304.7678
304.18452
303.89774
331.17073
326.71691
322.47463
318.64907
315.31574
312.48165
310.12157
308.19723
306.6676
305.49418
304.64396
304.0912
303.81855
326.38996
323.16888
319.94124
316.88389
314.10465
311.65859
309.56512
307.82152
306.41292
305.31923
304.51994
303.99736
303.73888
324.02938
321.3421
318.58401
315.90497
313.41316
311.17702
309.23277
307.59319
306.2559
305.21014
304.442
303.93819
303.68872
)
;
    }
    bottomWater_to_leftSolid
    {
        type            compressible::turbulentTemperatureRadCoupledMixed;
        refValue        nonuniform List<scalar> 
130
(
300.01049
300.01136
300.01312
300.01582
300.01951
300.02424
300.03004
300.03683
300.04444
300.0525
300.06041
300.06729
300.07205
300.01076
300.01168
300.01356
300.01646
300.02048
300.02572
300.03227
300.04016
300.04933
300.05949
300.07004
300.07987
300.08715
300.01119
300.0122
300.01428
300.01753
300.02211
300.02822
300.03611
300.04602
300.05818
300.07266
300.08917
300.10661
300.12199
300.01163
300.01273
300.01502
300.01864
300.02381
300.03088
300.04029
300.05261
300.06858
300.08908
300.11506
300.14707
300.18252
300.0119
300.01307
300.01549
300.01934
300.02491
300.03262
300.04308
300.05716
300.07612
300.1019
300.13753
300.18808
300.25868
300.0119
300.01307
300.01549
300.01934
300.02491
300.03262
300.04308
300.05716
300.07612
300.1019
300.13753
300.18808
300.25868
300.01163
300.01273
300.01502
300.01864
300.02381
300.03088
300.04029
300.05261
300.06858
300.08908
300.11506
300.14707
300.18252
300.01119
300.0122
300.01428
300.01753
300.02211
300.02822
300.03611
300.04602
300.05818
300.07266
300.08917
300.10661
300.12199
300.01076
300.01168
300.01356
300.01646
300.02048
300.02572
300.03227
300.04016
300.04933
300.05949
300.07004
300.07987
300.08715
300.01049
300.01136
300.01312
300.01582
300.01951
300.02424
300.03004
300.03683
300.04444
300.0525
300.06041
300.06729
300.07205
)
;
        refGradient     uniform 0;
        valueFraction   uniform 0.99248593;
        source          uniform 0;
        logInterval     -1;
        writePrecision  8;
        updateHeader    1;
        writeToFile     0;
        useUserTime     1;
        kappaMethod     fluidThermo;
        value           nonuniform List<scalar> 
130
(
300.01042
300.01128
300.01303
300.01571
300.01937
300.02407
300.02983
300.03657
300.04413
300.05214
300.05999
300.06683
300.07183
300.01068
300.0116
300.01346
300.01635
300.02034
300.02554
300.03204
300.03988
300.04898
300.05908
300.06956
300.07937
300.08733
300.01111
300.01212
300.01418
300.01741
300.02196
300.02803
300.03586
300.0457
300.05778
300.07215
300.08856
300.10618
300.12617
300.01154
300.01264
300.01491
300.0185
300.02365
300.03066
300.04
300.05224
300.0681
300.08846
300.1143
300.14724
300.20451
300.01181
300.01297
300.01537
300.0192
300.02473
300.03239
300.04278
300.05676
300.07559
300.10119
300.13668
300.1899
300.3353
300.01181
300.01297
300.01537
300.0192
300.02473
300.03239
300.04277
300.05676
300.07559
300.10119
300.13668
300.1899
300.3353
300.01154
300.01264
300.01491
300.0185
300.02365
300.03066
300.04
300.05224
300.0681
300.08846
300.1143
300.14724
300.20451
300.01111
300.01212
300.01418
300.01741
300.02196
300.02803
300.03586
300.0457
300.05778
300.07215
300.08856
300.10618
300.12617
300.01068
300.0116
300.01346
300.01635
300.02034
300.02554
300.03204
300.03988
300.04898
300.05908
300.06956
300.07937
300.08733
300.01042
300.01128
300.01303
300.01571
300.01937
300.02407
300.02983
300.03657
300.04413
300.05214
300.05999
300.06683
300.07183
)
;
    }
    bottomWater_to_heater
    {
        type            compressible::turbulentTemperatureRadCoupledMixed;
        refValue        nonuniform List<scalar> 
92
(
330.82487
330.09041
328.66271
326.64126
334.62785
333.74567
332.01873
329.55562
342.64096
341.47057
339.11924
335.65646
483.67262
484.44275
484.48083
483.83839
455.15786
456.11134
456.12103
455.28854
430.07077
430.81832
430.63358
429.70956
408.15559
408.47613
407.80472
406.53167
355.6402
389.48048
354.13771
389.09112
350.91279
387.35309
345.69284
384.81464
483.67262
483.83839
455.15786
455.28854
430.07077
429.70956
408.15559
406.53167
389.48048
384.81464
483.67262
483.67262
484.44275
484.48083
483.83838
483.83838
455.15784
455.15784
456.11133
456.12102
455.28854
455.28854
430.07074
430.07074
430.81831
430.63357
429.70956
429.70956
408.15557
408.15557
408.47611
407.80471
406.53168
406.53168
389.48046
389.48046
389.09111
387.35309
384.81465
384.81465
355.64021
354.13771
350.9128
345.69285
342.64096
341.47057
339.11924
335.65647
334.62785
333.74567
332.01874
329.55564
330.82483
330.0904
328.66273
326.64131
)
;
        refGradient     uniform 0;
        valueFraction   uniform 0.99248593;
        source          uniform 0;
        logInterval     -1;
        writePrecision  8;
        updateHeader    1;
        writeToFile     0;
        useUserTime     1;
        kappaMethod     fluidThermo;
        value           nonuniform List<scalar> 
92
(
330.60224
329.87986
328.46753
326.46412
334.37613
333.50671
331.79751
329.35642
342.3366
341.18309
338.85486
335.42192
482.36738
483.15783
483.22086
482.59965
454.02907
454.99256
455.02007
454.21117
429.11924
429.87332
429.70253
428.79781
407.36854
407.69823
407.04377
405.79157
355.26702
388.85302
353.79731
388.48807
350.61508
386.78156
345.4451
384.27293
482.45904
482.7883
454.07743
454.40777
429.15539
428.95978
407.40338
405.90409
388.88668
384.34793
482.45903
482.36737
483.15782
483.22085
482.7883
482.59965
454.07741
454.02905
454.99255
455.02006
454.40777
454.21116
429.15537
429.11922
429.87331
429.70252
428.95978
428.79781
407.40336
407.36851
407.69822
407.04377
405.9041
405.79158
388.88666
388.853
388.48806
386.78155
384.34795
384.27294
355.26703
353.79731
350.61508
345.4451
342.3366
341.18309
338.85487
335.42194
334.37612
333.50671
331.79752
329.35644
330.60221
329.87986
328.46755
326.46418
)
;
    }
}


// ************************************************************************* //
