/*--------------------------------*- C++ -*----------------------------------*\
| =========                 |                                                 |
| \\      /  F ield         | OpenFOAM: The Open Source CFD Toolbox           |
|  \\    /   O peration     | Version:  2412                                  |
|   \\  /    A nd           | Website:  www.openfoam.com                      |
|    \\/     M anipulation  |                                                 |
\*---------------------------------------------------------------------------*/
FoamFile
{
    version     2.0;
    format      ascii;
    arch        "LSB;label=32;scalar=64";
    class       volVectorField;
    location    "90/bottomWater";
    object      U;
}
// * * * * * * * * * * * * * * * * * * * * * * * * * * * * * * * * * * * * * //

dimensions      [0 1 -1 0 0 0 0];

internalField   nonuniform List<vector> 
1460
(
(0.00091155414 5.8982124e-05 4.1893388e-05)
(0.00088261507 6.2135837e-05 4.8960004e-05)
(0.00078422552 5.3735145e-05 4.5438164e-05)
(0.00070010412 4.3304458e-05 3.8396006e-05)
(0.00063585452 3.323733e-05 3.0093158e-05)
(0.00058777226 2.4932436e-05 2.1789002e-05)
(0.00055426495 1.8761101e-05 1.3840679e-05)
(0.00053489677 1.4519622e-05 5.9370376e-06)
(0.0005296953 1.2024762e-05 -2.1303269e-06)
(0.00053759265 1.079107e-05 -9.6736095e-06)
(0.00055835527 9.6903007e-06 -1.5364388e-05)
(0.00059126631 7.9473725e-06 -1.6756528e-05)
(0.00063368917 5.0932417e-06 -1.0168593e-05)
(0.00066805807 1.8100178e-06 1.143695e-05)
(0.00068303362 -1.4423188e-06 2.8747139e-05)
(0.00068169235 -3.9608732e-06 3.7731287e-05)
(0.00066612606 -5.0314855e-06 4.1662827e-05)
(0.00063773738 -4.920863e-06 4.3384532e-05)
(0.00059992821 -4.4564755e-06 4.1974756e-05)
(0.00055851318 -4.0040032e-06 3.7737885e-05)
(0.00051868552 -3.5687199e-06 3.2087459e-05)
(0.00048329108 -3.061314e-06 2.6188042e-05)
(0.00045329208 -2.4440731e-06 2.0713054e-05)
(0.00042862075 -1.7287788e-06 1.5972742e-05)
(0.00040871119 -9.5335301e-07 1.2033448e-05)
(0.00039279746 -1.7768272e-07 8.8486758e-06)
(0.00038006249 5.4163775e-07 6.3529204e-06)
(0.00036987561 1.2244392e-06 4.5161378e-06)
(0.00036188899 1.836909e-06 3.1577542e-06)
(0.00034799618 3.7343956e-06 2.7273134e-06)
(0.00097347862 5.5462143e-05 4.6162349e-05)
(0.00099269595 5.9829807e-05 5.9201299e-05)
(0.0009748554 5.5855099e-05 5.843879e-05)
(0.00094980231 4.8216184e-05 5.351062e-05)
(0.00092694206 3.934753e-05 4.6471891e-05)
(0.00090705822 3.1112227e-05 3.8356827e-05)
(0.00089148161 2.4265729e-05 2.9787088e-05)
(0.0008826009 1.8930005e-05 2.0758913e-05)
(0.00088297137 1.5240781e-05 1.0854839e-05)
(0.00089688534 1.3168648e-05 1.5473807e-07)
(0.00092525895 1.1769432e-05 -9.7110784e-06)
(0.00096891313 1.0096824e-05 -1.6117371e-05)
(0.0010259441 7.7633675e-06 -1.4685462e-05)
(0.0010793998 4.8556475e-06 2.942823e-06)
(0.0011159576 1.9174444e-06 2.1549736e-05)
(0.0011325227 -8.2111937e-07 3.5025029e-05)
(0.001131471 -2.5519401e-06 4.3643594e-05)
(0.0011154099 -3.1415924e-06 4.8912809e-05)
(0.0010856273 -3.2588354e-06 5.0797644e-05)
(0.0010465761 -3.3329733e-06 4.9450141e-05)
(0.0010030917 -3.4329483e-06 4.5857708e-05)
(0.00095864393 -3.4730269e-06 4.1037903e-05)
(0.00091539648 -3.376218e-06 3.5735982e-05)
(0.0008746979 -3.0966761e-06 3.0441306e-05)
(0.00083733145 -2.6118689e-06 2.5448379e-05)
(0.00080365613 -1.9229955e-06 2.0918717e-05)
(0.0007737567 -1.0414985e-06 1.6965583e-05)
(0.00074752302 7.6452e-08 1.3727181e-05)
(0.00072551663 1.6576953e-06 1.1171436e-05)
(0.00069583749 4.3247598e-06 1.0417265e-05)
(0.00097818879 1.6443687e-14 4.6117547e-05)
(0.0010098519 4.007075e-14 5.9840581e-05)
(0.0010097551 1.1726294e-13 5.9893383e-05)
(0.0010013998 2.7677863e-13 5.5759585e-05)
(0.00099259498 5.4821702e-13 4.9327623e-05)
(0.00098379179 9.4754054e-13 4.158831e-05)
(0.0009763287 1.4523321e-12 3.3226581e-05)
(0.00097284899 1.9793463e-12 2.435584e-05)
(0.00097610442 2.4184355e-12 1.4503665e-05)
(0.00099113026 2.661575e-12 3.7687005e-06)
(0.0010200113 2.6488755e-12 -6.3137991e-06)
(0.0010635937 2.3643973e-12 -1.3057747e-05)
(0.0011202168 1.8789072e-12 -1.2233744e-05)
(0.0011744161 1.2390063e-12 3.7863043e-06)
(0.0012136269 5.5647504e-13 2.0965652e-05)
(0.0012346347 -7.958936e-14 3.3592761e-05)
(0.0012377793 -6.6172269e-13 4.2079431e-05)
(0.0012268139 -1.2040921e-12 4.7361755e-05)
(0.0012023568 -1.7434289e-12 4.9495936e-05)
(0.0011684011 -2.3299935e-12 4.8720878e-05)
(0.0011292121 -3.0389898e-12 4.5899749e-05)
(0.0010877703 -3.9392393e-12 4.1897276e-05)
(0.0010459864 -5.0565072e-12 3.7350776e-05)
(0.0010051889 -6.3660162e-12 3.2682797e-05)
(0.00096631634 -7.712176e-12 2.8157057e-05)
(0.00093000508 -8.8247128e-12 2.3929767e-05)
(0.0008966833 -9.4003136e-12 2.012812e-05)
(0.0008667404 -9.3458715e-12 1.6918869e-05)
(0.00084102655 -7.8066617e-12 1.4286068e-05)
(0.0008071097 -5.4657023e-12 1.3502249e-05)
(0.00097347862 -5.5462143e-05 4.6162349e-05)
(0.00099269595 -5.9829807e-05 5.9201299e-05)
(0.0009748554 -5.5855099e-05 5.843879e-05)
(0.00094980231 -4.8216184e-05 5.351062e-05)
(0.00092694206 -3.9347529e-05 4.6471891e-05)
(0.00090705822 -3.1112226e-05 3.8356827e-05)
(0.00089148161 -2.4265728e-05 2.9787088e-05)
(0.0008826009 -1.8930002e-05 2.0758913e-05)
(0.00088297138 -1.5240778e-05 1.0854839e-05)
(0.00089688534 -1.3168645e-05 1.547383e-07)
(0.00092525896 -1.1769429e-05 -9.7110781e-06)
(0.00096891314 -1.0096821e-05 -1.6117371e-05)
(0.0010259441 -7.7633652e-06 -1.4685462e-05)
(0.0010793998 -4.855646e-06 2.9428233e-06)
(0.0011159576 -1.9174439e-06 2.1549736e-05)
(0.0011325227 8.2111901e-07 3.5025029e-05)
(0.001131471 2.551939e-06 4.3643594e-05)
(0.0011154099 3.1415906e-06 4.8912808e-05)
(0.0010856273 3.258833e-06 5.0797643e-05)
(0.0010465761 3.3329702e-06 4.9450141e-05)
(0.0010030917 3.4329444e-06 4.5857707e-05)
(0.00095864393 3.4730218e-06 4.1037903e-05)
(0.00091539647 3.3762116e-06 3.5735981e-05)
(0.00087469789 3.096668e-06 3.0441304e-05)
(0.00083733144 2.6118593e-06 2.5448375e-05)
(0.00080365612 1.9229847e-06 2.0918713e-05)
(0.00077375669 1.0414876e-06 1.6965579e-05)
(0.000747523 -7.6462032e-08 1.3727179e-05)
(0.00072551661 -1.6577035e-06 1.1171436e-05)
(0.00069583747 -4.3247653e-06 1.0417267e-05)
(0.00091155414 -5.8982124e-05 4.1893388e-05)
(0.00088261507 -6.2135837e-05 4.8960004e-05)
(0.00078422552 -5.3735145e-05 4.5438164e-05)
(0.00070010412 -4.3304458e-05 3.8396006e-05)
(0.00063585452 -3.323733e-05 3.0093158e-05)
(0.00058777226 -2.4932436e-05 2.1789002e-05)
(0.00055426496 -1.8761101e-05 1.3840679e-05)
(0.00053489677 -1.4519622e-05 5.9370378e-06)
(0.0005296953 -1.2024762e-05 -2.1303266e-06)
(0.00053759266 -1.079107e-05 -9.6736092e-06)
(0.00055835528 -9.6903002e-06 -1.5364388e-05)
(0.00059126632 -7.9473721e-06 -1.6756527e-05)
(0.00063368918 -5.0932414e-06 -1.0168593e-05)
(0.00066805807 -1.8100178e-06 1.143695e-05)
(0.00068303362 1.4423188e-06 2.8747139e-05)
(0.00068169235 3.960873e-06 3.7731288e-05)
(0.00066612606 5.0314852e-06 4.1662827e-05)
(0.00063773738 4.9208626e-06 4.3384533e-05)
(0.00059992821 4.4564751e-06 4.1974756e-05)
(0.00055851318 4.0040027e-06 3.7737885e-05)
(0.00051868552 3.5687192e-06 3.2087458e-05)
(0.00048329108 3.0613132e-06 2.6188042e-05)
(0.00045329208 2.444072e-06 2.0713053e-05)
(0.00042862075 1.7287777e-06 1.5972741e-05)
(0.00040871119 9.5335182e-07 1.2033446e-05)
(0.00039279745 1.7768176e-07 8.8486739e-06)
(0.00038006248 -5.4163819e-07 6.3529191e-06)
(0.0003698756 -1.2244387e-06 4.516138e-06)
(0.00036188898 -1.8369084e-06 3.1577563e-06)
(0.00034799616 -3.7343947e-06 2.7273176e-06)
(0.0009464749 6.2252981e-05 4.7762029e-05)
(0.00094113382 6.9502156e-05 6.1032467e-05)
(0.00089225843 6.1523538e-05 6.2022917e-05)
(0.0008462934 5.1830648e-05 5.492454e-05)
(0.00081064001 4.2297711e-05 4.2580859e-05)
(0.00078345719 3.3868754e-05 2.6820044e-05)
(0.0007643259 2.7147489e-05 8.2761267e-06)
(0.00075424796 2.2100047e-05 -1.3374946e-05)
(0.00075432337 1.789087e-05 -3.8339828e-05)
(0.00076736702 1.3809741e-05 -6.6382127e-05)
(0.00079683691 9.6601299e-06 -9.6234991e-05)
(0.00084644603 5.5510329e-06 -0.00012335233)
(0.00092121464 2.4548581e-06 -0.00013584342)
(0.00097892591 4.3370086e-06 -9.5834018e-05)
(0.00099611797 6.1890119e-06 -4.9794783e-05)
(0.00099246643 6.8910749e-06 -6.9776408e-06)
(0.00097662811 6.9311364e-06 3.2121481e-05)
(0.00094626738 6.7569837e-06 6.7343399e-05)
(0.00090237823 6.2461523e-06 8.6876464e-05)
(0.0008538411 5.4137176e-06 9.2116795e-05)
(0.00080770272 4.3887817e-06 8.7901896e-05)
(0.00076698019 3.392391e-06 7.8568367e-05)
(0.00073249759 2.5657069e-06 6.7201688e-05)
(0.00070403182 1.9542422e-06 5.5687393e-05)
(0.00068087139 1.5674435e-06 4.5048154e-05)
(0.00066215209 1.3788183e-06 3.5757555e-05)
(0.00064700453 1.371605e-06 2.7983252e-05)
(0.00063467668 1.6165313e-06 2.1764104e-05)
(0.00062456359 2.2370766e-06 1.7096342e-05)
(0.00060919097 4.6602848e-06 1.3558721e-05)
(0.0010168566 5.8999845e-05 5.3053905e-05)
(0.0010676148 6.6048745e-05 7.1617618e-05)
(0.0011131534 6.1420325e-05 7.5161117e-05)
(0.001149203 5.4721333e-05 7.1705609e-05)
(0.0011788007 4.7210346e-05 6.2963753e-05)
(0.0012043332 3.9978886e-05 4.986873e-05)
(0.0012280146 3.3807364e-05 3.2769735e-05)
(0.0012526179 2.8938482e-05 1.1231704e-05)
(0.0012818477 2.4730001e-05 -1.5841638e-05)
(0.0013179796 2.0546116e-05 -4.8883499e-05)
(0.0013664558 1.620533e-05 -8.7359835e-05)
(0.0014326716 1.1569212e-05 -0.00012796221)
(0.0015230122 7.7749064e-06 -0.00015864172)
(0.0016062065 7.1279136e-06 -0.00013956274)
(0.0016575323 7.9613877e-06 -0.00010452222)
(0.0016894037 8.2516331e-06 -6.5099141e-05)
(0.001706936 7.9587592e-06 -2.4067065e-05)
(0.0017067319 7.2860463e-06 1.7811972e-05)
(0.0016887661 6.5184317e-06 4.9948385e-05)
(0.0016587823 5.5931485e-06 7.0618479e-05)
(0.0016226899 4.5254537e-06 8.2102569e-05)
(0.0015839965 3.4518867e-06 8.6930104e-05)
(0.0015446954 2.4859628e-06 8.7172008e-05)
(0.0015060413 1.6885424e-06 8.4391224e-05)
(0.0014688206 1.1044706e-06 7.9723425e-05)
(0.0014335187 7.620707e-07 7.3979441e-05)
(0.0014004734 7.0451835e-07 6.7727392e-05)
(0.001370046 1.0578839e-06 6.1393837e-05)
(0.0013428398 2.1726031e-06 5.5355503e-05)
(0.001308626 4.8300748e-06 4.9768375e-05)
(0.0010225188 1.6937491e-14 5.3763539e-05)
(0.0010877693 4.6062234e-14 7.3121807e-05)
(0.0011536588 1.3978774e-13 7.74446e-05)
(0.0012101548 3.2961929e-13 7.4961589e-05)
(0.0012585421 6.5310909e-13 6.7254976e-05)
(0.0013008639 1.1409415e-12 5.5187366e-05)
(0.0013392376 1.8022499e-12 3.9110951e-05)
(0.0013761914 2.5964381e-12 1.8724245e-05)
(0.0014158742 3.4218948e-12 -7.1265732e-06)
(0.0014606399 4.1065506e-12 -3.9065568e-05)
(0.0015151173 4.4740509e-12 -7.659983e-05)
(0.0015846625 4.3916089e-12 -0.0001168131)
(0.0016752404 3.8518868e-12 -0.00014904033)
(0.0017596066 3.0461909e-12 -0.00013656443)
(0.0018153889 2.0085616e-12 -0.00010844676)
(0.0018540781 6.9270017e-13 -7.474018e-05)
(0.001881372 -8.6147421e-13 -3.7731542e-05)
(0.0018917856 -2.5558018e-12 9.2100141e-07)
(0.0018853619 -4.3916358e-12 3.1452075e-05)
(0.0018668867 -6.343883e-12 5.2270895e-05)
(0.0018412006 -8.3915111e-12 6.5448596e-05)
(0.0018111519 -1.0561387e-11 7.3064355e-05)
(0.0017784028 -1.294399e-11 7.6749531e-05)
(0.0017440993 -1.5669295e-11 7.7697756e-05)
(0.001709094 -1.8814103e-11 7.6750295e-05)
(0.0016740657 -2.2324469e-11 7.4501883e-05)
(0.0016396368 -2.586612e-11 7.1373376e-05)
(0.0016065421 -2.8831628e-11 6.769012e-05)
(0.0015759069 -3.0448388e-11 6.3747293e-05)
(0.0015373797 -2.987146e-11 5.9626156e-05)
(0.0010168566 -5.8999845e-05 5.3053905e-05)
(0.0010676148 -6.6048745e-05 7.1617618e-05)
(0.0011131534 -6.1420325e-05 7.5161117e-05)
(0.001149203 -5.4721333e-05 7.1705609e-05)
(0.0011788007 -4.7210345e-05 6.2963753e-05)
(0.0012043332 -3.9978885e-05 4.986873e-05)
(0.0012280146 -3.3807362e-05 3.2769735e-05)
(0.0012526179 -2.8938479e-05 1.1231704e-05)
(0.0012818477 -2.4729997e-05 -1.5841637e-05)
(0.0013179796 -2.0546111e-05 -4.8883499e-05)
(0.0013664558 -1.6205324e-05 -8.7359834e-05)
(0.0014326717 -1.1569206e-05 -0.00012796221)
(0.0015230122 -7.7749016e-06 -0.00015864172)
(0.0016062065 -7.1279099e-06 -0.00013956273)
(0.0016575323 -7.9613854e-06 -0.00010452221)
(0.0016894037 -8.2516325e-06 -6.5099139e-05)
(0.0017069361 -7.9587606e-06 -2.4067064e-05)
(0.0017067319 -7.2860499e-06 1.7811973e-05)
(0.0016887661 -6.5184376e-06 4.9948386e-05)
(0.0016587823 -5.5931567e-06 7.061848e-05)
(0.0016226899 -4.5254644e-06 8.2102569e-05)
(0.0015839965 -3.4518998e-06 8.6930103e-05)
(0.0015446954 -2.4859787e-06 8.7172006e-05)
(0.0015060412 -1.6885615e-06 8.439122e-05)
(0.0014688206 -1.1044933e-06 7.9723419e-05)
(0.0014335187 -7.620977e-07 7.3979433e-05)
(0.0014004734 -7.045498e-07 6.7727382e-05)
(0.001370046 -1.0579192e-06 6.1393826e-05)
(0.0013428397 -2.172641e-06 5.5355492e-05)
(0.0013086259 -4.8301126e-06 4.9768366e-05)
(0.0009464749 -6.2252981e-05 4.7762029e-05)
(0.00094113382 -6.9502156e-05 6.1032467e-05)
(0.00089225843 -6.1523538e-05 6.2022917e-05)
(0.0008462934 -5.1830648e-05 5.492454e-05)
(0.00081064001 -4.2297711e-05 4.2580859e-05)
(0.0007834572 -3.3868754e-05 2.6820044e-05)
(0.0007643259 -2.7147489e-05 8.2761267e-06)
(0.00075424796 -2.2100047e-05 -1.3374946e-05)
(0.00075432337 -1.789087e-05 -3.8339827e-05)
(0.00076736702 -1.380974e-05 -6.6382126e-05)
(0.00079683692 -9.660129e-06 -9.623499e-05)
(0.00084644604 -5.5510322e-06 -0.00012335233)
(0.00092121465 -2.4548576e-06 -0.00013584342)
(0.00097892593 -4.3370083e-06 -9.5834017e-05)
(0.00099611799 -6.1890118e-06 -4.9794782e-05)
(0.00099246644 -6.891075e-06 -6.9776394e-06)
(0.00097662812 -6.9311368e-06 3.2121483e-05)
(0.00094626739 -6.7569843e-06 6.73434e-05)
(0.00090237823 -6.2461531e-06 8.6876465e-05)
(0.00085384111 -5.4137186e-06 9.2116795e-05)
(0.00080770273 -4.3887828e-06 8.7901896e-05)
(0.00076698019 -3.3923921e-06 7.8568365e-05)
(0.00073249759 -2.5657081e-06 6.7201685e-05)
(0.00070403181 -1.9542434e-06 5.5687388e-05)
(0.00068087138 -1.5674449e-06 4.5048148e-05)
(0.00066215207 -1.3788201e-06 3.5757548e-05)
(0.00064700451 -1.3716075e-06 2.7983244e-05)
(0.00063467665 -1.6165348e-06 2.1764097e-05)
(0.00062456355 -2.2370808e-06 1.7096338e-05)
(0.00060919092 -4.66029e-06 1.3558719e-05)
(0.0009452204 6.2419158e-05 1.3612378e-05)
(0.00093863893 7.0157297e-05 2.2336955e-05)
(0.00089286419 6.2405189e-05 2.5058175e-05)
(0.00085113765 5.2894182e-05 2.2149155e-05)
(0.0008191318 4.3444628e-05 1.4002715e-05)
(0.00079399185 3.4855205e-05 8.51936e-07)
(0.00077437837 2.7459074e-05 -1.7394278e-05)
(0.00076046363 2.112336e-05 -4.1067412e-05)
(0.00075382038 1.5350768e-05 -7.1369529e-05)
(0.00075816544 9.0437908e-06 -0.00010984366)
(0.00078121256 8.0424023e-07 -0.00015764223)
(0.00083499533 -9.1624248e-06 -0.00020870757)
(0.00095258942 -1.5363273e-05 -0.00022914603)
(0.0010517125 -4.8549123e-06 -7.2407731e-05)
(0.0010754148 4.323444e-06 -3.6262927e-06)
(0.0010763651 1.156699e-05 4.7145045e-05)
(0.0010612374 1.7308825e-05 9.2113062e-05)
(0.0010171911 2.227618e-05 0.00014557566)
(0.00094698206 2.3203094e-05 0.00016449143)
(0.00087988476 2.0887919e-05 0.00016331523)
(0.00082508872 1.7005976e-05 0.00014972748)
(0.00078316904 1.2863971e-05 0.0001303189)
(0.00075210742 9.1012222e-06 0.00010960704)
(0.00072949576 5.9858167e-06 9.0061657e-05)
(0.00071328047 3.5740483e-06 7.2818469e-05)
(0.00070182254 1.8165199e-06 5.8226159e-05)
(0.00069383133 6.1333039e-07 4.6222699e-05)
(0.00068831495 -6.4061071e-08 3.6459916e-05)
(0.00068435276 -9.7871869e-08 2.8477275e-05)
(0.00067969646 1.0960311e-06 2.1633355e-05)
(0.0010162085 5.9283862e-05 1.5856048e-05)
(0.0010668292 6.693884e-05 2.7753135e-05)
(0.0011172464 6.2519154e-05 3.330673e-05)
(0.0011606954 5.5991706e-05 3.3155437e-05)
(0.0011980048 4.8558625e-05 2.7547629e-05)
(0.0012302078 4.1151511e-05 1.6387195e-05)
(0.0012584719 3.4265048e-05 -8.6974834e-07)
(0.0012842557 2.7942761e-05 -2.5171074e-05)
(0.0013095499 2.1947647e-05 -5.7796927e-05)
(0.0013380854 1.5339186e-05 -0.00010131119)
(0.0013770822 6.7668108e-06 -0.00015877969)
(0.0014371713 -5.0596084e-06 -0.00022769523)
(0.0015493777 -1.5029244e-05 -0.00027635059)
(0.0016675472 -9.5445269e-06 -0.00014251728)
(0.0017223181 -1.3389449e-06 -7.8064226e-05)
(0.0017549572 6.2167217e-06 -2.8519889e-05)
(0.0017805611 1.3588611e-05 2.563583e-05)
(0.0017759136 2.0014382e-05 8.9878368e-05)
(0.0017407721 2.3690926e-05 0.00013006661)
(0.0016980725 2.4029692e-05 0.00015222594)
(0.0016579039 2.2291925e-05 0.00016134374)
(0.001622409 1.9480527e-05 0.00016171242)
(0.0015915562 1.6249331e-05 0.00015654881)
(0.0015647937 1.301804e-05 0.00014811337)
(0.0015415103 1.0029257e-05 0.00013793649)
(0.0015211337 7.4213393e-06 0.00012701117)
(0.0015031838 5.2686482e-06 0.00011589368)
(0.0014873857 3.6598511e-06 0.00010485661)
(0.0014736463 2.8234394e-06 9.3882008e-05)
(0.0014581721 3.3043723e-06 8.2631778e-05)
(0.0010219823 1.373229e-14 1.6143785e-05)
(0.0010875162 4.0598209e-14 2.8536885e-05)
(0.0011588616 1.3559407e-13 3.4678948e-05)
(0.001223524 3.3028041e-13 3.5292629e-05)
(0.0012806078 6.6046396e-13 3.0636955e-05)
(0.0013307908 1.1556844e-12 2.0624466e-05)
(0.0013751245 1.8185138e-12 4.719809e-06)
(0.0014150872 2.5903834e-12 -1.8141969e-05)
(0.0014523182 3.3424451e-12 -4.8944234e-05)
(0.0014900646 3.8485607e-12 -8.9988958e-05)
(0.001534681 3.8350942e-12 -0.00014417093)
(0.0015967072 3.0213646e-12 -0.00021023025)
(0.0017037683 1.5178221e-12 -0.00025943405)
(0.0018187212 2.9683263e-13 -0.00013876388)
(0.0018764033 -9.0375467e-13 -8.4324633e-05)
(0.0019151464 -2.3710927e-12 -4.4264925e-05)
(0.0019486362 -4.108468e-12 2.8717513e-06)
(0.0019591584 -6.1485857e-12 6.1171224e-05)
(0.0019406591 -8.6443697e-12 0.00010001721)
(0.0019139243 -1.1612318e-11 0.00012391514)
(0.0018875225 -1.4965054e-11 0.0001370623)
(0.001862917 -1.863746e-11 0.00014289924)
(0.0018400943 -2.2563967e-11 0.0001438588)
(0.0018187566 -2.6690387e-11 0.00014159287)
(0.001798631 -3.0965132e-11 0.0001372324)
(0.0017795217 -3.5272953e-11 0.00013153729)
(0.0017613196 -3.9269393e-11 0.00012495827)
(0.0017441094 -4.2494453e-11 0.00011766441)
(0.0017282375 -4.4422064e-11 0.00010948974)
(0.0017097817 -4.4383282e-11 9.9922795e-05)
(0.0010162085 -5.9283862e-05 1.5856048e-05)
(0.0010668292 -6.693884e-05 2.7753135e-05)
(0.0011172464 -6.2519154e-05 3.330673e-05)
(0.0011606954 -5.5991706e-05 3.3155437e-05)
(0.0011980048 -4.8558624e-05 2.7547629e-05)
(0.0012302078 -4.115151e-05 1.6387195e-05)
(0.001258472 -3.4265046e-05 -8.6974835e-07)
(0.0012842557 -2.7942758e-05 -2.5171073e-05)
(0.0013095499 -2.1947643e-05 -5.7796927e-05)
(0.0013380854 -1.5339181e-05 -0.00010131119)
(0.0013770822 -6.7668058e-06 -0.00015877969)
(0.0014371713 5.0596123e-06 -0.00022769523)
(0.0015493777 1.5029246e-05 -0.00027635059)
(0.0016675473 9.5445271e-06 -0.00014251728)
(0.0017223181 1.3389437e-06 -7.8064223e-05)
(0.0017549572 -6.2167247e-06 -2.8519886e-05)
(0.0017805611 -1.3588617e-05 2.5635833e-05)
(0.0017759136 -2.001439e-05 8.987837e-05)
(0.0017407721 -2.3690937e-05 0.00013006662)
(0.0016980725 -2.4029707e-05 0.00015222594)
(0.0016579039 -2.2291943e-05 0.00016134374)
(0.0016224089 -1.9480549e-05 0.00016171242)
(0.0015915562 -1.6249358e-05 0.0001565488)
(0.0015647936 -1.3018071e-05 0.00014811336)
(0.0015415103 -1.0029293e-05 0.00013793648)
(0.0015211336 -7.4213812e-06 0.00012701115)
(0.0015031837 -5.2686958e-06 0.00011589365)
(0.0014873856 -3.659904e-06 0.00010485658)
(0.0014736462 -2.8234962e-06 9.3881975e-05)
(0.001458172 -3.3044305e-06 8.2631742e-05)
(0.0009452204 -6.2419158e-05 1.3612378e-05)
(0.00093863893 -7.0157297e-05 2.2336955e-05)
(0.00089286419 -6.2405189e-05 2.5058175e-05)
(0.00085113765 -5.2894182e-05 2.2149155e-05)
(0.0008191318 -4.3444628e-05 1.4002715e-05)
(0.00079399185 -3.4855205e-05 8.5193594e-07)
(0.00077437837 -2.7459074e-05 -1.7394278e-05)
(0.00076046364 -2.1123359e-05 -4.1067412e-05)
(0.00075382038 -1.5350767e-05 -7.1369528e-05)
(0.00075816544 -9.0437899e-06 -0.00010984365)
(0.00078121257 -8.0423941e-07 -0.00015764223)
(0.00083499534 9.1624252e-06 -0.00020870757)
(0.00095258943 1.5363273e-05 -0.00022914603)
(0.0010517125 4.854912e-06 -7.2407728e-05)
(0.0010754148 -4.3234444e-06 -3.6262897e-06)
(0.0010763651 -1.156699e-05 4.7145047e-05)
(0.0010612374 -1.7308826e-05 9.2113063e-05)
(0.0010171911 -2.2276181e-05 0.00014557566)
(0.00094698207 -2.3203095e-05 0.00016449143)
(0.00087988476 -2.0887921e-05 0.00016331523)
(0.00082508872 -1.7005979e-05 0.00014972747)
(0.00078316903 -1.2863973e-05 0.00013031889)
(0.00075210741 -9.1012247e-06 0.00010960703)
(0.00072949574 -5.9858194e-06 9.0061642e-05)
(0.00071328045 -3.5740519e-06 7.281845e-05)
(0.00070182251 -1.8165248e-06 5.8226136e-05)
(0.00069383129 -6.1333718e-07 4.6222673e-05)
(0.0006883149 6.40526e-08 3.645989e-05)
(0.0006843527 9.786259e-08 2.847725e-05)
(0.00067969639 -1.0960412e-06 2.1633331e-05)
(0.00094264063 6.2566427e-05 9.342668e-06)
(0.00092956248 7.0439438e-05 1.5384942e-05)
(0.00087843145 6.2544408e-05 1.6911825e-05)
(0.00083285647 5.2798591e-05 1.4186615e-05)
(0.00079761963 4.3136943e-05 7.1526862e-06)
(0.00076851954 3.4407424e-05 -4.6809721e-06)
(0.00074342673 2.6988933e-05 -2.2674183e-05)
(0.00072192685 2.0407455e-05 -4.9313899e-05)
(0.00070513083 1.3435305e-05 -8.8634279e-05)
(0.00069664416 3.8449818e-06 -0.00014749401)
(0.00071062435 -1.1119157e-05 -0.00023833638)
(0.00076363812 -3.0707052e-05 -0.00037359264)
(0.00091299761 -3.1962745e-05 -0.00052340781)
(0.00096555607 3.4759836e-05 -0.00025390246)
(0.00077711943 4.6286007e-05 -0.00010666308)
(0.00073652248 4.1936633e-05 -2.1602212e-05)
(0.00074140082 4.2729646e-05 5.668353e-05)
(0.00073356332 4.7398583e-05 0.00020752919)
(0.00065779647 4.3034018e-05 0.00022525187)
(0.00061861918 3.4772451e-05 0.00021284744)
(0.00059791633 2.5576623e-05 0.00017906372)
(0.00059127574 1.7579679e-05 0.00014379758)
(0.00059306913 1.1070802e-05 0.00011274482)
(0.00059945064 5.9730038e-06 8.7291617e-05)
(0.00060821851 2.0893393e-06 6.7074016e-05)
(0.00061811941 -8.0917974e-07 5.1306462e-05)
(0.00062837018 -2.9765048e-06 3.9180355e-05)
(0.00063902597 -4.4221981e-06 3.0046263e-05)
(0.00064898076 -4.9774007e-06 2.3142097e-05)
(0.000663403 -5.4444417e-06 1.6663772e-05)
(0.0010135909 5.9300996e-05 1.0630456e-05)
(0.0010572901 6.7214067e-05 1.8552876e-05)
(0.0011019757 6.2722422e-05 2.1908879e-05)
(0.0011414727 5.6007335e-05 2.0959031e-05)
(0.0011755759 4.8392177e-05 1.5610005e-05)
(0.0012039964 4.0849344e-05 5.1667544e-06)
(0.0012264947 3.3890589e-05 -1.1924552e-05)
(0.0012436577 2.7244387e-05 -3.8591563e-05)
(0.0012566441 2.0026349e-05 -8.007373e-05)
(0.0012683157 1.0246067e-05 -0.0001453754)
(0.0012862797 -5.3207404e-06 -0.0002497899)
(0.0013261683 -3.0323845e-05 -0.00041471598)
(0.0014271311 -4.4433884e-05 -0.00064257174)
(0.0014940398 2.5454374e-05 -0.00040889203)
(0.0012896689 4.9928527e-05 -0.00025546488)
(0.0012286639 4.8526945e-05 -0.0001545718)
(0.0012231242 4.9099234e-05 -4.7514248e-05)
(0.0012405183 5.3883994e-05 0.00013629447)
(0.0012026036 5.3876435e-05 0.00019484712)
(0.0011908459 4.8043929e-05 0.00021927099)
(0.0011954491 4.0138568e-05 0.00021626261)
(0.0012098892 3.2184452e-05 0.00020164297)
(0.0012290049 2.4880795e-05 0.00018325486)
(0.0012497792 1.8423871e-05 0.00016455101)
(0.0012705953 1.2845541e-05 0.00014706205)
(0.0012905751 8.1123207e-06 0.00013125481)
(0.0013092157 4.1279165e-06 0.00011708881)
(0.0013257702 8.3975832e-07 0.00010422413)
(0.0013403891 -1.80046e-06 9.2152571e-05)
(0.0013590086 -3.7556276e-06 7.9503085e-05)
(0.00101937 1.2063471e-14 1.0926857e-05)
(0.0010780457 3.5802497e-14 1.9215138e-05)
(0.0011438582 1.2976014e-13 2.2973682e-05)
(0.0012048449 3.247977e-13 2.2551661e-05)
(0.001259047 6.5615825e-13 1.7895486e-05)
(0.0013059227 1.1501908e-12 8.3563346e-06)
(0.0013450304 1.801578e-12 -7.549225e-06)
(0.0013769199 2.535458e-12 -3.264833e-05)
(0.0014026272 3.1764712e-12 -7.205769e-05)
(0.0014243822 3.4155957e-12 -0.00013451534)
(0.0014488053 2.8558997e-12 -0.00023591794)
(0.0014907782 8.6550896e-13 -0.00040038848)
(0.0015719176 -2.1339541e-12 -0.00064283307)
(0.0016328421 -2.4929923e-12 -0.00042797558)
(0.0014348763 -3.2694327e-12 -0.00028583405)
(0.0013736968 -4.9867249e-12 -0.00019227445)
(0.0013667325 -7.2461997e-12 -8.8705462e-05)
(0.0013858232 -1.1027683e-11 8.95873e-05)
(0.0013596561 -1.6312155e-11 0.00015324253)
(0.0013577994 -2.2364097e-11 0.00018650522)
(0.0013720179 -2.8743927e-11 0.00019403748)
(0.0013950795 -3.505842e-11 0.00018935609)
(0.0014215222 -4.1043183e-11 0.00017976844)
(0.0014482929 -4.6460469e-11 0.00016846655)
(0.0014739091 -5.0936719e-11 0.00015686949)
(0.0014976363 -5.3838575e-11 0.0001456188)
(0.0015190751 -5.4771099e-11 0.00013487398)
(0.0015379123 -5.5129352e-11 0.00012447573)
(0.0015539173 -5.506083e-11 0.00011390017)
(0.0015729385 -5.2485355e-11 0.00010170877)
(0.0010135909 -5.9300996e-05 1.0630456e-05)
(0.0010572901 -6.7214067e-05 1.8552876e-05)
(0.0011019757 -6.2722422e-05 2.1908879e-05)
(0.0011414727 -5.6007335e-05 2.0959031e-05)
(0.0011755759 -4.8392176e-05 1.5610005e-05)
(0.0012039964 -4.0849343e-05 5.1667543e-06)
(0.0012264947 -3.3890587e-05 -1.1924552e-05)
(0.0012436577 -2.7244384e-05 -3.8591563e-05)
(0.0012566441 -2.0026345e-05 -8.007373e-05)
(0.0012683157 -1.0246063e-05 -0.0001453754)
(0.0012862797 5.320744e-06 -0.0002497899)
(0.0013261683 3.0323846e-05 -0.00041471597)
(0.0014271311 4.4433881e-05 -0.00064257174)
(0.0014940398 -2.5454377e-05 -0.00040889203)
(0.0012896689 -4.992853e-05 -0.00025546488)
(0.0012286639 -4.8526951e-05 -0.0001545718)
(0.0012231242 -4.9099242e-05 -4.7514248e-05)
(0.0012405183 -5.3884006e-05 0.00013629447)
(0.0012026036 -5.3876453e-05 0.00019484712)
(0.0011908458 -4.8043953e-05 0.00021927099)
(0.0011954491 -4.0138599e-05 0.0002162626)
(0.0012098892 -3.2184489e-05 0.00020164296)
(0.0012290048 -2.4880839e-05 0.00018325484)
(0.0012497791 -1.8423921e-05 0.00016455099)
(0.0012705952 -1.2845597e-05 0.00014706201)
(0.001290575 -8.1123821e-06 0.00013125476)
(0.0013092156 -4.127983e-06 0.00011708876)
(0.00132577 -8.3982656e-07 0.00010422407)
(0.001340389 1.800394e-06 9.2152504e-05)
(0.0013590084 3.7555657e-06 7.9503011e-05)
(0.00094264063 -6.2566427e-05 9.342668e-06)
(0.00092956248 -7.0439438e-05 1.5384942e-05)
(0.00087843145 -6.2544408e-05 1.6911825e-05)
(0.00083285647 -5.2798591e-05 1.4186615e-05)
(0.00079761964 -4.3136943e-05 7.1526861e-06)
(0.00076851954 -3.4407424e-05 -4.6809721e-06)
(0.00074342673 -2.6988932e-05 -2.2674183e-05)
(0.00072192685 -2.0407455e-05 -4.9313899e-05)
(0.00070513084 -1.3435305e-05 -8.8634279e-05)
(0.00069664417 -3.844981e-06 -0.000147494)
(0.00071062436 1.1119157e-05 -0.00023833638)
(0.00076363813 3.0707051e-05 -0.00037359264)
(0.00091299762 3.1962744e-05 -0.00052340781)
(0.00096555608 -3.4759837e-05 -0.00025390246)
(0.00077711944 -4.6286008e-05 -0.00010666308)
(0.00073652248 -4.1936634e-05 -2.1602212e-05)
(0.00074140083 -4.2729647e-05 5.6683529e-05)
(0.00073356332 -4.7398585e-05 0.00020752919)
(0.00065779646 -4.303402e-05 0.00022525186)
(0.00061861917 -3.4772454e-05 0.00021284744)
(0.00059791631 -2.5576626e-05 0.00017906371)
(0.00059127571 -1.7579682e-05 0.00014379757)
(0.0005930691 -1.1070805e-05 0.0001127448)
(0.0005994506 -5.9730072e-06 8.7291588e-05)
(0.00060821846 -2.0893442e-06 6.7073982e-05)
(0.00061811936 8.091715e-07 5.1306422e-05)
(0.00062837012 2.9764929e-06 3.918031e-05)
(0.00063902589 4.4221871e-06 3.0046212e-05)
(0.00064898067 4.9773939e-06 2.3142042e-05)
(0.0006634029 5.4444361e-06 1.6663716e-05)
(0.00094182808 6.2663081e-05 4.5995229e-07)
(0.00092620085 7.0618067e-05 6.6243564e-07)
(0.00087139442 6.2772372e-05 -9.8278033e-09)
(0.00082125252 5.3033874e-05 -1.9442299e-06)
(0.00078015227 4.3350655e-05 -5.6302367e-06)
(0.00074277284 3.4408005e-05 -1.1680387e-05)
(0.00070438276 2.6466436e-05 -2.1434664e-05)
(0.00066075094 1.8508026e-05 -3.7470039e-05)
(0.00060654512 7.6801878e-06 -6.4622711e-05)
(0.00053541601 -1.1314494e-05 -0.00011278003)
(0.00044446897 -4.5587506e-05 -0.00020278514)
(0.00030378464 -9.8679132e-05 -0.00036193708)
(0.00013412616 -0.00014014434 -0.00049793071)
(5.5678572e-05 6.7921741e-05 0.00018628049)
(8.2262023e-05 4.8671571e-05 0.00017279904)
(0.00020049503 3.2047009e-05 0.00014596836)
(0.00026792964 1.5624546e-05 0.00010798317)
(0.00033923324 3.4628995e-06 7.8495925e-05)
(0.00039853189 -4.6884919e-06 5.6789835e-05)
(0.00044944696 -9.6296614e-06 4.1293715e-05)
(0.0004928117 -1.2150824e-05 3.0099998e-05)
(0.00052977264 -1.3084781e-05 2.1945889e-05)
(0.00056139082 -1.3120585e-05 1.6008269e-05)
(0.00058857433 -1.278726e-05 1.1843038e-05)
(0.00061084003 -1.216781e-05 9.1232205e-06)
(0.00064489729 -1.3430683e-05 6.4107052e-06)
(0.0010127436 5.9401839e-05 6.6759918e-07)
(0.0010537558 6.7480965e-05 1.191891e-06)
(0.0010946035 6.3113561e-05 8.794979e-07)
(0.0011292965 5.6442068e-05 -6.9747149e-07)
(0.0011571206 4.8776728e-05 -4.0413967e-06)
(0.0011766636 4.0937867e-05 -9.883071e-06)
(0.0011853107 3.3351193e-05 -1.9505982e-05)
(0.001178838 2.5190509e-05 -3.5623976e-05)
(0.0011502082 1.3940417e-05 -6.3725405e-05)
(0.0010854576 -5.878412e-06 -0.00011526368)
(0.0009618853 -4.3661193e-05 -0.00021487055)
(0.00071045353 -0.0001114613 -0.00040729502)
(0.00034521136 -0.00019137208 -0.00064261331)
(0.00012926231 9.6497954e-05 0.00024333223)
(0.00022042319 7.499532e-05 0.00022702852)
(0.00042558034 5.3451483e-05 0.0002053236)
(0.00056070398 3.481476e-05 0.00017248091)
(0.00068494504 1.8969326e-05 0.00014324024)
(0.00079173334 7.4493749e-06 0.00011944379)
(0.00088134995 -8.0439125e-07 0.00010022665)
(0.00095758671 -6.6297353e-06 8.4891302e-05)
(0.0010231197 -1.0606045e-05 7.2629497e-05)
(0.0010799705 -1.3263392e-05 6.2743334e-05)
(0.0011294524 -1.5106006e-05 5.4609605e-05)
(0.0011714577 -1.6755444e-05 4.7606008e-05)
(0.0012251919 -1.9011367e-05 4.0461413e-05)
(0.0010185179 8.9399512e-15 6.8947541e-07)
(0.0010745441 2.5934889e-14 1.2737623e-06)
(0.0011366417 1.0960627e-13 1.0581692e-06)
(0.0011929961 2.876855e-13 -3.701327e-07)
(0.001241097 5.9219853e-13 -3.5024722e-06)
(0.0012793048 1.0432623e-12 -9.0699226e-06)
(0.0013049183 1.6225e-12 -1.8246602e-05)
(0.0013135245 2.2201992e-12 -3.3617236e-05)
(0.0012975027 2.5739506e-12 -6.0422833e-05)