/*--------------------------------*- C++ -*----------------------------------*\
| =========                 |                                                 |
| \\      /  F ield         | OpenFOAM: The Open Source CFD Toolbox           |
|  \\    /   O peration     | Version:  2412                                  |
|   \\  /    A nd           | Website:  www.openfoam.com                      |
|    \\/     M anipulation  |                                                 |
\*---------------------------------------------------------------------------*/
FoamFile
{
    version     2.0;
    format      ascii;
    arch        "LSB;label=32;scalar=64";
    class       volVectorField;
    location    "0.5/chip";
    object      gradT;
}
// * * * * * * * * * * * * * * * * * * * * * * * * * * * * * * * * * * * * * //

dimensions      [0 -1 0 1 0 0 0];

internalField   nonuniform List<vector> 
6620
(
(254 254 4677.55)
(-312 250 4670.68)
(250 -312 4670.68)
(-308 -310 4677.55)
(215 215 782.497)
(-320 210 808.325)
(210 -320 808.325)
(-315 -315 823.468)
(300 300 3915.23)
(272 300 4876.84)
(-272 300 4876.84)
(-300 300 3915.23)
(300 272 4876.84)
(300 -272 4876.84)
(272 272 5865.94)
(-272 272 5865.94)
(272 -272 5865.94)
(-272 -272 5865.94)
(-300 272 4876.84)
(-300 -272 4876.84)
(300 -300 3915.23)
(272 -300 4876.84)
(-272 -300 4876.84)
(-300 -300 3915.23)
(308 310 4677.55)
(315.585 315.599 1755.78)
(250 312 4670.68)
(-250 312 4670.68)
(210.061 321.908 1745.66)
(-210.06 321.909 1745.66)
(-308 310 4677.55)
(-315.586 315.6 1755.78)
(312 250 4670.68)
(312 -250 4670.68)
(321.905 211.06 1745.67)
(321.906 -211.062 1745.67)
(-254 254 4677.55)
(254 -254 4677.55)
(-254 -254 4677.55)
(215.104 215.102 1734.83)
(-215.103 215.102 1734.83)
(215.104 -215.104 1734.84)
(-215.104 -215.102 1734.83)
(-312 -250 4670.68)
(-320.909 211.06 1745.67)
(-321.905 -211.06 1745.67)
(308 -308 4677.55)
(315.591 -315.588 1755.77)
(-250 -312 4670.68)
(211.062 -321.905 1745.67)
(-211.061 -321.908 1745.66)
(-315.587 -315.597 1755.78)
(315 315 823.468)
(210 320 808.325)
(-210 320 808.323)
(-315 315 823.467)
(320 210 808.326)
(320 -210 808.325)
(-215 215 782.496)
(215 -215 782.498)
(-215 -215 782.497)
(-320 -210 808.326)
(315 -315 823.468)
(-210 -320 808.325)
(343.526 343.051 3498.66)
(377.718 377.718 4904.22)
(35.5786 241.017 3388.1)
(240 321.554 4774.47)
(34 323.554 4753.73)
(240.056 283.893 3390.55)
(-386.418 332.192 3452.49)
(-298 317.504 4781.43)
(-390 358.189 4836.86)
(-296.932 193.71 3413.54)
(241.104 35.6111 3388.42)
(319.504 240 4774.46)
(323.554 34 4767.02)
(282.034 238.102 3389.97)
(77 77 3582.57)
(38 258 4636.34)
(258 38 4636.34)
(217 217 3582.36)
(38 38 4650.08)
(75 220 3589.3)
(220 75 3585.87)
(-369.726 71 3567.98)
(-364 242 4732.5)
(-318 38 4643.21)
(-326 212 3585.53)
(-370 36 4718.76)
(-365.419 207 3571.87)
(-330 74 3595.82)
(332.847 -386.516 3451.11)
(317.504 -298 4774.57)
(358.189 -390 4836.58)
(194.605 -297.005 3413.84)
(71 -369.727 3567.97)
(38 -318 4643.21)
(242 -364 4739.37)
(212 -326 3588.96)
(36 -368 4725.63)
(74 -330 3595.82)
(207 -365.422 3571.87)
(-361.909 -362.076 3580.45)
(-360 -300 4718.76)
(-300 -360 4718.76)
(-320 -320 3596.37)
(-374 -374 4794.32)
(-360.457 -316 3582.67)
(-316 -361.476 3582.66)
(316.297 316.186 1185.47)
(238.003 363.739 1134.79)
(33.9475 315.003 1134.79)
(-295.777 261.164 1109.68)
(-367.734 387.716 1182.2)
(361.99 236.009 1135.89)
(315.002 33.9467 1134.8)
(75 218 778.885)
(218 75 778.885)
(76 76 764.904)
(-354.441 206 846.623)
(-324 73 790.964)
(-358.119 71 846.851)
(262.042 -295.785 1111.09)
(387.785 -367.744 1182.87)
(73 -324 790.964)
(206 -354.441 857.239)
(71 -358.453 839.875)
(-349.059 -312 877.714)
(-312 -350.067 877.715)
(-351.352 -351.365 928.281)
(388 388 3915.23)
(288 344 4025.13)
(384 376 5192.81)
(344 288 4038.87)
(376 388 5192.81)
(288 364 5179.07)
(360 288 5179.07)
(376 376 6456.65)
(260 344 4973.01)
(16 348 4464.73)
(-260 344 4931.8)
(-16 348 4464.73)
(256 360 6140.69)
(20 308 4396.04)
(16 372 5632.4)
(-256 360 6140.69)
(-20 308 4396.04)
(-16 372 5632.4)
(-288 344 4025.13)
(-384 376 5192.81)
(-388 388 3915.23)
(-288 364 5179.07)
(-360 288 5179.07)
(-376 376 6456.65)
(-344 288 4038.87)
(-376 388 5192.81)
(344 256 4931.8)
(352 20 4478.46)
(360 260 6140.69)
(308 20 4396.04)
(368 20 5646.14)
(344 -256 4931.8)
(352 -20 4478.46)
(308 -20 4396.04)
(360 -256 6140.69)
(368 -20 5646.14)
(20 276 5385.13)
(276 20 5343.92)
(20 20 4821.9)
(-20 276 5385.13)
(-276 20 5343.92)
(-20 20 4821.9)
(276 -20 5343.92)
(20 -276 5343.92)
(20 -20 4821.9)
(-276 -20 5343.92)
(-20 -276 5343.92)
(-20 -20 4821.9)
(-360 260 6140.69)
(-308 20 4396.04)
(-368 20 5646.14)
(-344 256 4931.8)
(-352 20 4478.46)
(-308 -20 4396.04)
(-360 -260 6140.69)
(-368 -20 5646.14)
(-344 -256 4931.8)
(-352 -20 4478.46)
(344 -288 4038.87)
(376 -384 5192.81)
(360 -288 5179.07)
(288 -360 5179.07)
(376 -376 6456.65)
(388 -388 3915.23)
(288 -344 4038.87)
(384 -376 5192.81)
(20 -308 4396.04)
(256 -360 6140.69)
(16 -372 5632.4)
(-20 -308 4396.04)
(-256 -360 6140.69)
(-16 -372 5632.4)
(256 -344 4931.8)
(16 -348 4464.73)
(-260 -344 4931.8)
(-16 -348 4464.73)
(-360 -288 5179.07)
(-288 -364 5179.07)
(-376 -376 6456.65)
(-344 -288 4038.87)
(-376 -388 5192.81)
(-288 -344 4025.13)
(-384 -376 5192.81)
(-388 -388 3915.23)
(386.418 332.192 3452.49)
(298 317.504 4781.43)
(390 358.189 4836.86)
(296.93 193.71 3413.56)
(331.406 386.441 3450.74)
(317.504 298 4767.73)
(358.189 392 4829.66)
(192.762 297.08 3392.93)
(361.906 362.076 3580.46)
(300 360 4718.76)
(360 300 4718.76)
(320 320 3596.37)
(374 374 4794.32)
(316 361.478 3582.66)
(360.456 316 3582.67)
(335.219 336.859 3066.41)
(313.344 315.067 1616.63)
(383.191 428.329 3055.44)
(294.956 221.957 1518.21)
(295.905 289.164 2983.45)
(366.701 329.503 1524.48)
(426.657 384.948 3077.49)
(220.462 295.06 1544.12)
(289.497 294.137 2962.89)
(330.238 368.725 1526.08)
(356.097 356.966 2721.52)
(314.625 314.641 2644.58)
(312.775 353.377 1730.69)
(353.105 312.815 1731.39)
(312.669 356.723 2688.39)
(356.487 312.722 2687.81)
(353.677 354.429 1722.93)
(-35.5786 241.017 3388.1)
(-240 321.554 4774.47)
(-34 323.554 4753.73)
(-240.054 283.893 3390.53)
(71 369.725 3567.98)
(242 364 4739.37)
(38 318 4643.21)
(212 326 3588.96)
(36 368 4725.63)
(207 365.426 3571.87)
(74 330 3595.82)
(-71 369.725 3567.98)
(-242 364 4739.37)
(-38 318 4643.21)
(-212 326 3588.96)
(-36 368 4725.63)
(-207 365.425 3571.87)
(-74 330 3595.82)
(35.0783 337.09 2968.47)
(236.08 303.475 1541.02)
(238.325 378.898 2985.34)
(35.67 265.183 1513.48)
(-35.0783 337.09 2968.47)
(-236.08 303.475 1541.02)
(-238.325 378.898 2985.34)
(-35.67 265.183 1513.48)
(71.0308 366.734 2683.56)
(211.893 320.729 2635.67)
(206.545 358.24 1735.23)
(72.9925 323.941 1735.52)
(205.939 362.249 2673.95)
(73.9876 324.707 2625.2)
(71.8694 362.247 1735.24)
(-71.0308 366.734 2683.56)
(-211.892 320.731 2635.68)
(-206.545 358.239 1735.23)
(-72.9924 323.941 1735.52)
(-205.937 362.25 2673.95)
(-73.9877 324.707 2625.2)
(-71.8693 362.247 1735.24)
(-343.526 343.051 3498.66)
(-377.718 377.718 4904.22)
(-361.906 362.076 3580.46)
(-300 360 4718.76)
(-360 300 4718.76)
(-320 320 3596.38)
(-374 374 4794.32)
(-316 361.478 3582.67)
(-360.456 316 3582.67)
(-331.406 386.441 3450.74)
(-317.504 298 4767.73)
(-358.189 392 4829.66)
(-192.762 297.08 3392.94)
(-383.191 428.329 3055.44)
(-294.956 221.957 1518.21)
(-295.905 289.164 2983.45)
(-366.699 329.5 1524.48)
(-335.219 336.859 3066.41)
(-313.345 315.067 1616.63)
(-356.098 356.966 2721.52)
(-314.626 314.642 2644.59)
(-312.777 353.376 1730.69)
(-353.104 313.812 1731.39)
(-312.67 356.723 2688.4)
(-356.487 312.722 2687.81)
(-353.677 354.43 1722.93)
(-426.657 384.948 3077.49)
(-220.462 295.06 1544.12)
(-289.494 294.134 2962.9)
(-330.238 368.725 1526.08)
(369.726 71 3567.98)
(364 242 4732.5)
(318 38 4643.21)
(326 212 3585.53)
(370 36 4718.76)
(365.419 207 3571.87)
(330 74 3595.82)
(241.057 -35.5625 3388.2)
(321.554 -240 4774.47)
(323.554 -34 4767.26)
(281.947 -238.081 3389.99)
(369.725 -71 3567.98)
(318 -38 4643.21)
(364 -242 4739.37)
(326 -212 3588.96)
(370 -36 4718.76)
(330 -74 3595.82)
(365.423 -207 3571.87)
(337.122 35.0916 2968.71)
(303.518 238.113 1541.4)
(379.04 238.389 2985.53)
(265.178 35.6704 1513.38)
(366.737 71.0306 2683.58)
(320.726 211.893 2635.66)
(357.977 206.557 1735.42)
(323.943 73.9928 1735.43)
(362.263 205.953 2673.89)
(324.716 73.988 2635.5)
(363.274 71.8699 1735.21)
(337.107 -35.0814 2968.58)
(303.495 -238.097 1541.26)
(378.978 -238.368 2985.38)
(265.181 -35.6715 1513.4)
(366.733 -71.0314 2683.59)
(320.726 -211.894 2635.66)
(323.943 -73.9926 1735.43)
(357.973 -206.553 1735.38)
(324.716 -73.9878 2635.5)
(362.259 -205.947 2673.91)
(363.273 -71.8706 1735.21)
(-77 77 3582.57)
(-38 258 4636.34)
(-258 38 4636.34)
(-217 217 3582.36)
(-38 38 4650.08)
(-75 220 3585.87)
(-220 75 3585.87)
(77 -77 3582.57)
(258 -38 4636.34)
(38 -258 4636.34)
(217 -217 3582.36)
(38 -38 4650.08)
(220 -75 3585.87)
(75 -220 3585.87)
(-77 -77 3582.57)
(-258 -38 4636.34)
(-38 -258 4636.34)
(-217 -217 3582.36)
(-38 -38 4650.08)
(-220 -75 3585.87)
(-75 -220 3585.87)
(-241.104 35.6133 3388.4)
(-319.504 240 4774.46)
(-323.554 34 4767.02)
(-282.034 238.102 3389.97)
(-369.724 -71 3567.98)
(-318 -38 4643.21)
(-364 -242 4732.5)
(-326 -212 3585.53)
(-370 -36 4718.76)
(-330 -74 3595.82)
(-365.42 -207 3571.88)
(-241.057 -35.563 3388.17)
(-319.504 -240 4774.48)
(-323.554 -34 4767.26)
(-282.022 -238.106 3389.96)
(-366.737 71.0314 2683.59)
(-320.727 211.891 2635.67)
(-358.273 206.556 1734.99)
(-323.943 73.9928 1735.43)
(-362.341 205.952 2684.27)
(-324.715 73.9881 2635.5)
(-363.273 70.8726 1735.21)
(-337.122 35.0918 2968.72)
(-304.697 238.113 1540.97)
(-379.04 238.389 2985.53)
(-265.179 35.668 1513.37)
(-366.734 -71.03 2683.59)
(-320.726 -211.893 2635.66)
(-323.942 -73.9928 1735.43)
(-357.975 -206.557 1735.4)
(-324.716 -73.988 2635.5)
(-362.262 -205.953 2673.91)
(-363.272 -71.8699 1735.2)
(-337.104 -35.0744 2968.63)
(-303.514 -238.113 1541.31)
(-379.033 -238.392 2985.44)
(-265.179 -35.6679 1513.36)
(362.002 -361.984 3580.45)
(360 -300 4718.76)
(300 -360 4718.76)
(320 -320 3596.37)
(374 -374 4794.32)
(361.136 -316 3582.66)
(316 -361.128 3582.67)
(343.308 -343.271 3498.66)
(377.718 -377.718 4904.22)
(386.243 -330.859 3452.54)
(298 -317.504 4774.55)
(390 -358.189 4836.4)
(297.018 -194.639 3414.09)
(426.496 -382.862 3075.76)
(220.374 -295.007 1543.36)
(289.322 -296.044 2962.96)
(329.566 -366.644 1526.08)
(356.71 -356.676 2721.64)
(314.63 -314.63 2644.6)
(353.427 -312.798 1731.05)
(312.792 -353.412 1730.93)
(356.78 -312.703 2688.12)
(312.689 -356.763 2688.23)
(354.176 -354.161 1722.78)
(335.061 -334.963 3066.41)
(313.204 -313.25 1616.75)
(383.053 -428.523 3076.76)
(295.005 -220.383 1543.12)
(296.003 -289.28 2963.52)
(366.731 -329.528 1525.59)
(-71 -369.727 3567.97)
(-38 -318 4643.21)
(-242 -364 4739.37)
(-212 -326 3588.96)
(-36 -368 4725.63)
(-74 -330 3595.82)
(-207 -365.425 3571.87)
(35.59 -241.136 3388.44)
(240 -321.554 4774.45)
(34 -323.554 4753.34)
(238.078 -281.966 3390.05)
(-35.5897 -241.135 3388.44)
(-240 -321.554 4774.45)
(-34 -323.554 4753.34)
(-240.053 -283.912 3390.5)
(71.028 -366.738 2683.58)
(211.894 -320.726 2635.66)
(73.9926 -323.943 1735.43)
(206.55 -358.245 1735.26)
(73.9877 -324.716 2635.5)
(205.944 -362.258 2673.94)
(71.8697 -363.275 1735.21)
(-71.0288 -366.739 2683.56)
(-211.893 -320.729 2635.67)
(-73.9924 -323.943 1735.43)
(-206.548 -358.239 1735.23)
(-73.9876 -324.716 2635.5)
(-205.939 -362.252 2673.95)
(-71.8695 -363.275 1735.23)
(35.0827 -337.137 2968.69)
(236.097 -303.499 1541.19)
(238.349 -378.973 2985.54)
(35.6722 -265.181 1513.45)
(-35.0842 -337.136 2968.67)
(-236.086 -303.481 1541.08)
(-238.321 -378.912 2985.41)
(-35.672 -265.181 1513.44)
(-331.448 -386.381 3450.96)
(-317.504 -298 4767.72)
(-358.189 -392 4829.46)
(-192.762 -297.088 3392.97)
(-386.368 -332.256 3452.68)
(-298 -317.504 4781.41)
(-390 -358.189 4836.65)
(-296.939 -193.737 3413.48)
(-343.523 -343.057 3498.66)
(-377.718 -377.718 4904.22)
(-356.096 -356.972 2721.54)
(-314.626 -314.639 2644.58)
(-353.099 -312.814 1731.36)
(-312.78 -353.382 1730.73)
(-356.486 -312.719 2687.83)
(-312.674 -356.729 2688.38)
(-353.66 -354.448 1722.92)
(-426.685 -384.914 3077.42)
(-220.447 -295.049 1543.98)
(-289.492 -294.134 2962.87)
(-330.241 -368.701 1526.01)
(-383.173 -428.345 3055.55)
(-294.966 -221.975 1518.33)
(-295.91 -289.179 2983.55)
(-366.717 -329.506 1524.59)
(-335.214 -336.863 3066.41)
(-313.311 -315.099 1616.63)
(295.777 261.164 1109.68)
(367.734 387.716 1182.2)
(262.091 293.797 1132.95)
(385.752 367.947 1162.4)
(312 350.069 877.716)
(349.057 312 877.712)
(351.013 351.371 928.278)
(-238.003 363.739 1134.79)
(-33.9475 315.003 1134.79)
(206 354.442 857.238)
(73 324 801.358)
(71 358.453 839.873)
(-206 354.442 857.238)
(-73 324 801.358)
(-71 358.453 839.873)
(-316.297 316.186 1185.47)
(-312 350.069 877.715)
(-349.057 312 877.712)
(-351.013 351.371 928.278)
(-262.091 293.797 1132.95)
(-385.752 367.947 1162.4)
(354.441 206 857.239)
(324 73 790.964)
(358.453 71 846.851)
(363.748 -236.006 1134.87)
(315.001 -33.9466 1134.79)
(324 -73 790.964)
(354.442 -206 857.24)
(358.453 -71 843.361)
(-75 218 778.885)
(-218 75 778.885)
(-76 76 764.904)
(218 -75 778.885)
(75 -218 778.885)
(76 -76 764.904)
(-218 -75 778.885)
(-75 -218 778.885)
(-76 -76 764.904)
(-361.99 236.009 1135.89)
(-315.001 33.9467 1134.79)
(-324 -73 790.964)
(-354.441 -206 857.237)
(-358.119 -71 846.849)
(-361.986 -236.009 1135.88)
(-315.001 -33.9467 1134.79)
(349.731 -312 877.72)
(312 -349.728 877.711)
(351.364 -351.354 928.281)
(316.22 -316.263 1185.47)
(295.789 -262.06 1111.17)
(367.781 -387.833 1183.47)
(-73 -324 790.964)
(-206 -354.442 857.239)
(-71 -358.453 839.875)
(236.008 -363.756 1134.87)
(33.9476 -315.003 1134.8)
(-238.003 -363.742 1134.8)
(-33.9475 -315.003 1134.8)
(-262.081 -293.794 1132.9)
(-387.675 -367.967 1161.64)
(-295.781 -261.178 1109.77)
(-367.751 -387.752 1182.62)
(-316.273 -316.21 1185.47)
(186 186 3475.53)
(186 258 4663.82)
(258 186 4663.82)
(254 254 5007.25)
(188 188 4650.08)
(184 256 4251.69)
(256 186 4251.69)
(-358 180 4457.75)
(-358 248 4698.16)
(-314 184 4650.08)
(-310 250 4045.63)
(-360 182 4684.42)
(-356 248 5206.44)
(-314 184 3303.81)
(182 -358 4457.75)
(184 -314 4650.08)
(248 -358 4677.55)
(250 -312 4045.63)
(182 -360 4684.42)
(184 -314 3303.81)
(248 -356 5199.57)
(-350 -350 5412.5)
(-356 -306 4691.29)
(-306 -356 4684.42)
(-308 -308 3125.23)
(-350 -352 4691.29)
(-354 -306 4265.43)
(-304 -354 4286.04)
(296 372 5110.38)
(372 296 5137.86)
(368 368 6278.06)
(268 376 6072)
(168 304 4107.55)
(164 376 5316.44)
(-268 376 6072)
(-168 304 4107.55)
(-164 376 5316.44)
(-296 372 5110.38)
(-372 296 5137.86)
(-368 368 6278.06)
(372 268 6072)
(304 168 4107.55)
(376 164 5316.44)
(304 -168 4107.55)
(376 -268 6072)
(376 -164 5316.44)
(168 276 5096.64)
(276 168 5096.64)
(172 172 4327.35)
(-168 276 5096.64)
(-276 168 5096.64)
(-172 172 4327.35)
(276 -168 5096.64)
(168 -276 5096.64)
(172 -172 4327.35)
(-280 -168 5096.64)
(-168 -276 5096.64)
(-172 -172 4327.35)
(-372 268 6072)
(-304 168 4107.55)
(-376 164 5316.44)
(-304 -168 4107.55)
(-372 -268 6072)
(-376 -164 5316.44)
(372 -296 5137.86)
(296 -372 5137.86)
(368 -368 6278.06)
(168 -304 4107.55)
(268 -376 6072)
(164 -376 5316.44)
(-168 -304 4107.55)
(-268 -376 6072)
(-164 -376 5316.44)
(-372 -296 5137.86)
(-296 -372 5110.38)
(-368 -368 6278.06)
(350 350 5412.5)
(306 356 4684.42)
(356 306 4691.29)
(308 308 3125.23)
(350 352 4691.29)
(304 354 4286.04)
(354 306 4265.43)
(182 358 4457.75)
(250 358 4677.55)
(184 314 4650.08)
(250 312 4045.63)
(184 314 3303.81)
(182 360 4684.42)
(248 356 5199.57)
(-182 358 4457.75)
(-250 358 4677.55)
(-184 314 4650.08)
(-250 312 4045.63)
(-182 360 4684.42)
(-248 356 5199.57)
(-184 314 3303.81)
(-350 350 5412.5)
(-306 356 4684.42)
(-356 306 4691.29)
(-308 308 3125.23)
(-354 306 4265.43)
(-350 352 4691.29)
(-304 354 4286.04)
(358 180 4457.75)
(358 248 4698.16)
(314 184 4650.08)
(310 250 4045.63)
(314 184 3303.81)
(360 182 4684.42)
(356 248 5206.44)
(358 -182 4457.75)
(314 -184 4650.08)
(358 -248 4677.55)
(312 -250 4045.63)
(360 -182 4684.42)
(314 -184 3303.81)
(356 -248 5199.57)
(-186 186 3475.53)
(-186 258 4663.82)
(-258 186 4663.82)
(-254 254 5007.25)
(-256 186 4251.69)
(-188 188 4650.08)
(-186 256 4251.69)
(186 -186 3475.53)
(258 -186 4663.82)
(186 -258 4663.82)
(254 -254 5007.25)
(186 -256 4251.69)
(188 -188 4650.08)
(256 -186 4251.69)
(-186 -186 3475.53)
(-258 -186 4656.95)
(-186 -258 4663.82)
(-254 -254 5007.25)
(-188 -188 4650.08)
(-256 -186 4251.69)
(-186 -256 4251.69)
(-358 -180 4457.75)
(-314 -184 4650.08)
(-358 -248 4698.16)
(-310 -250 4045.63)
(-356 -248 5206.44)
(-360 -182 4684.42)
(-314 -184 3303.81)
(350 -350 5412.5)
(356 -306 4691.29)
(306 -356 4691.29)
(308 -308 3125.23)
(304 -354 4265.43)
(352 -352 4691.29)
(354 -304 4265.43)
(-182 -358 4457.75)
(-184 -314 4650.08)
(-250 -358 4677.55)
(-250 -312 4045.63)
(-248 -356 5199.57)
(-182 -360 4684.42)
(-184 -314 3303.81)
(236.818 236.818 4987.21)
(355.764 355.473 3956.35)
(358.597 169.25 3633.76)
(169.256 359.715 3654.11)
(367.58 179.826 4126.17)
(179.833 368.977 4126.16)
(177.614 177.614 3997.16)
(273.25 273.25 5315.62)
(365.791 365.699 4430.25)
(374.294 203.207 4954.22)
(203.178 373.653 4953.9)
(402.986 407.514 6471.87)
(375.71 188.561 4601.31)
(188.567 377.501 4601.3)
(105.958 102.234 3962.84)
(35.7791 358.646 3870.84)
(35.5594 96.7637 3464.59)
(106.268 263.98 3388.02)
(35.7592 101.92 3983.45)
(106.002 381.931 3850.65)
(106.233 96.8952 3464.39)
(173.957 120.811 4578.9)
(237.025 160.25 5062.77)
(176 321.554 4754.18)
(238.065 303.267 4331.38)
(173.292 160.25 5062.87)
(238.033 122.708 4601.27)
(173.99 303.165 4330.89)
(103.945 122.902 4578.93)
(33.8899 307.353 4330.66)
(35.8183 160.37 5062.64)
(106 323.604 4774.7)
(105.543 162.367 5076.79)
(33.8777 122.698 4578.16)
(105.964 305.235 4310.52)
(171.787 102.251 3963.69)
(173.51 217.55 3388.65)
(240.03 400.629 3851.86)
(237.901 97.1945 3465.7)
(237.923 100.127 3965.73)
(173.866 334.775 3871.51)
(173.418 97.0128 3464.76)
(-410.01 112.753 4016.12)
(-387.562 459.716 3940.13)
(-423.02 139.706 3606.79)
(-376.808 185.452 3418.41)
(-428.978 147.852 4118.97)
(-379.31 306.169 3910.45)
(-401.417 107.613 3503.61)
(-354.188 123.348 4606.39)
(-296.807 158.324 5083.79)
(-350 319.554 4802.29)
(-297.837 299.126 4331.9)
(-354.549 160.313 5075.7)
(-297.83 120.836 4581.74)
(-349.965 302.86 4335.34)
(-416.927 127.614 4622.09)
(-387.584 344.123 4410.35)
(-424.624 189.365 5031.63)
(-386 325.647 4788.83)
(-412.49 164.476 5095.93)
(-432.314 161.744 4646)
(-384.735 306.666 4379.12)
(-351.714 101.7 3979.24)
(-345.154 297.654 3401.78)
(-297.478 311.279 3854.51)
(-296.592 95.6368 3488.93)
(-297.347 100.416 3969.11)
(-345.646 416.191 3859.96)
(-350.513 99.1744 3477.99)
(102.025 105.887 3962.77)
(358.803 35.866 3850.57)
(264.081 106.241 3388.35)
(96.6429 35.5895 3464.91)
(382.123 105.924 3850.68)
(101.716 35.8491 3983.39)
(96.7651 106.218 3464.71)
(120.791 173.934 4578.56)
(158.316 237.025 5070.5)
(321.554 176 4754.09)
(303.286 238.064 4331.22)
(160.25 171.316 5062.75)
(122.699 238.043 4580.17)
(303.2 173.961 4330.68)
(122.819 103.88 4578.25)
(307.52 35.963 4330.39)
(323.604 106 4767.5)
(160.37 35.8183 5062.26)
(162.367 105.543 5076.39)
(305.346 107.899 4309.97)
(124.702 33.9572 4578.3)
(102.19 171.771 3963.44)
(217.631 173.506 3388.73)
(400.723 238.045 3851.55)
(95.1145 236.037 3465.53)
(99.9873 235.981 3985.2)
(334.861 173.831 3871.38)
(96.802 171.437 3484.66)
(114 190 3983.81)
(114 258 4643.21)
(38 190 4622.6)
(38 258 4492.1)
(114 190 4636.34)
(112 256 4753.11)
(38 190 3722.8)
(188 114 3983.81)
(258 114 4656.95)
(190 38 4622.6)
(258 36 4492.1)
(190 114 4636.34)
(256 112 4759.98)
(190 38 3722.8)
(116 116 4505.84)
(40 40 3990.68)
(38 116 4629.47)
(116 38 4629.47)
(116 116 4650.08)
(38 118 4244.83)
(118 38 4244.83)
(-378 178 3255.73)
(-378 246 4698.16)
(-366 176 4718.76)
(-356.293 242 5282)
(-382 178 4691.29)
(-376 246 3983.81)
(-360.278 176 4567.65)
(-362 110 4966.04)
(-316 114 4656.95)
(-364 36 4663.82)
(-316 36 3530.48)
(-364 110 4677.55)
(-316 112 3798.36)
(-362 36 4718.77)
(-380 108 3736.54)
(-360.261 36 4801.19)
(-366 108 4718.76)
(-384 38 4677.55)
(-384 110 4684.42)
(-360.27 108 5048.46)
(-380 36 3468.66)
(110.314 -409.946 4030.1)
(459.953 -387.574 3938.72)
(184.524 -376.71 3415.54)
(139.76 -424.694 3620.75)
(304.685 -379.307 3887.51)
(147.684 -430.946 4093.37)
(105.69 -403.234 3494.02)
(123.259 -354.168 4606.05)
(158.197 -296.807 5070.09)
(319.554 -350 4795.42)
(299.149 -297.837 4331.75)
(160.313 -352.573 5076.08)
(120.695 -297.822 4602.43)
(302.926 -347.981 4334.89)
(129.413 -414.943 4621.48)
(342.18 -389.548 4409.14)
(323.597 -386 4809.15)
(189.308 -426.662 5045.18)
(162.542 -412.491 5096.99)
(306.893 -384.784 4378.29)
(159.611 -432.306 4643.88)
(101.386 -351.813 3996.68)
(296.185 -347.286 3400.02)
(309.399 -297.497 3874.06)
(97.6864 -296.796 3467.72)
(98.3472 -297.394 3968.29)
(416.46 -345.704 3858.88)
(97.0695 -348.941 3474.22)
(110 -362 4966.04)
(114 -316 4656.95)
(36 -366 4663.82)
(36 -316 3530.48)
(110 -364 4677.55)
(112 -316 3798.36)
(36 -362 4718.77)
(178 -378 3255.73)
(246 -378 4705.03)
(176 -366 4718.76)
(242 -356.294 5282)
(178 -382 4691.29)
(246 -374 3983.81)
(176 -360.279 4567.65)
(108 -380 3736.54)
(36 -362.24 4801.19)
(36 -384 4670.68)
(108 -366 4725.63)
(108 -384 4684.42)
(36 -380 3489.27)
(108 -360.271 5048.46)
(-368 -348 4189.88)
(-376 -302 4684.42)
(-360 -348 4759.98)
(-352.312 -298 4361.59)
(-372 -350 4711.9)
(-372 -302 3077.15)
(-352.292 -346 5481.19)
(-348 -368 4189.88)
(-302 -374 4684.42)
(-348 -360 4766.85)
(-298 -352.317 4361.59)
(-350 -372 4711.9)
(-302 -372 3077.15)
(-346 -352.308 5481.19)
(-368 -368 3015.33)
(-369.183 -369.246 5597.96)
(-358 -376 4753.11)
(-376 -360 4759.98)
(-372 -372 4705.03)
(-352.358 -374 4286.04)
(-374 -354.385 4286.04)
(92.0682 92.0682 344.513)
(318.279 318.279 147.913)
(369.293 54.1672 788.993)
(54.3957 369.34 762.772)
(87.9971 87.9971 578.479)
(310.617 312.657 684.654)
(328.707 144.303 1193.06)
(144.306 330.509 1213.5)
(100.191 100.191 1401.49)
(326.856 138.32 863.062)
(136.413 327.534 862.382)
(121.893 64.6649 0.394505)
(33.8386 292.879 147.69)
(16.2796 58.5255 235.612)
(103.492 292.219 167.532)
(173.294 114.573 757.353)
(235.992 95.7457 1087.83)
(171.933 287.009 1135.36)
(238 311.524 645.235)
(171.95 91.9991 1090.3)
(235.116 116.563 771.474)
(172 241.474 667.053)
(103.568 114.629 772.402)
(36 267.524 646.015)
(35.9581 93.721 1089.49)
(106.048 342.031 1135.89)
(104.046 95.5449 1110.82)
(33.8429 116.627 757.331)
(106 289.474 645.296)
(158.279 52.4418 427.139)
(236.871 290.925 167.573)
(255.308 70.5641 -208.688)
(171.169 292.219 167.532)
(-381.83 41.1242 793.025)
(-366.719 306.259 163.773)
(-393.151 84.9507 -425.373)
(-370.28 292.22 167.567)
(-344.675 116.563 770.189)
(-293.705 90.1595 1111.27)
(-341.45 379.7 1149.25)
(-294 218.09 666.847)
(-347.057 94.4827 1102.76)
(-292.859 112.52 757.093)
(-342 327.523 666.272)
(-376.608 116.554 794.166)
(-368 345.627 694.585)
(-379.952 117.286 1159.18)
(-373.779 256.269 1134.46)
(-379.151 99.0311 1107.32)
(-382.97 123.13 801.399)
(-372 214.185 663.644)
(-364.826 76.2229 -391.634)
(-292.567 287.491 168.878)
(-284.038 46.5427 636.221)
(-340.362 290.925 167.573)
(64.6649 121.893 0.394505)
(293.619 35.8142 167.532)
(292.219 105.467 167.532)
(58.5255 16.2796 235.612)
(114.573 171.318 757.342)
(93.4754 236.013 1111.71)
(286.49 171.934 1111.68)
(309.474 236 645.231)
(91.9837 171.953 1090.38)
(114.573 235.052 757.318)
(241.474 172 667.051)
(114.637 103.568 750.426)
(267.524 36 667.071)
(340.257 106.049 1136.86)
(93.7187 33.9566 1089.48)
(93.301 104.047 1112.07)
(289.474 106 645.295)
(116.627 33.8429 757.323)
(52.386 158.28 470.829)
(290.224 236.871 167.573)
(70.5641 255.652 -208.688)
(292.219 171.169 167.532)
(114 114 -153.498)
(38 38 376.769)
(38 114 111.635)
(114 38 111.635)
(184 184 893.081)
(250 250 -613.993)
(182 252 139.544)
(252 182 139.544)
(114 186 376.769)
(38 254 -125.59)
(112 254 -390.723)
(38 186 641.902)
(186 114 376.769)
(254 38 -125.59)
(254 112 -390.723)
(186 38 641.902)
(-364.067 110 683.756)
(-338.669 36 -310.484)
(-338.669 106 -561.792)
(-366.066 36 934.932)
(-349.999 178 -41.8632)
(-304 246 348.86)
(-347.999 244 -781.446)
(-306 180 1088.44)
(-362.065 178 1158.2)
(-332.661 240 -785.135)
(-360.065 240 432.58)
(-334.669 174 -59.1757)
(-349.999 110 -558.176)
(-308 38 851.218)
(-308 112 586.085)
(-351.999 38 -293.042)
(45.1011 -381.83 793.025)
(306.259 -366.719 163.773)
(290.853 -370.343 168.22)
(84.9507 -393.151 -425.373)
(116.563 -344.675 770.285)
(92.3804 -293.743 1088.23)
(379.795 -343.462 1149.91)
(218.09 -294 645.086)
(94.4767 -347.12 1104.43)
(112.52 -294.835 757.116)
(327.523 -342 666.277)
(116.554 -376.608 801.592)
(345.627 -368 694.563)
(256.436 -373.768 1135.64)
(117.315 -379.871 1161.11)
(99.0521 -379.134 1110.71)
(214.185 -372 663.647)
(123.127 -380.99 801.414)
(76.2229 -364.826 -391.634)
(286.824 -292.631 169.53)
(46.5427 -284.038 636.221)
(290.925 -340.362 167.573)
(108 -364.066 669.802)
(36 -336.669 -310.484)
(36 -366.066 920.977)
(106 -336.669 -561.792)
(178 -349.999 -41.8632)
(246 -304 348.86)
(180 -306 1088.44)
(244 -347.999 -781.446)
(110 -351.999 -558.176)
(38 -308 851.218)
(112 -308 586.085)
(38 -353.999 -293.042)
(176 -362.065 1158.2)
(240 -332.661 -785.135)
(240 -360.065 432.58)
(174 -334.669 -59.1757)
(-356.063 -356.063 1451.22)
(-348.649 -348.649 -1011.62)
(-332.668 -362.051 248.01)
(-362.051 -332.668 248.01)
(-341.999 -341.999 -948.899)
(-300 -300 1283.8)
(-343.999 -298 167.453)
(-298 -343.999 167.453)
(-356.065 -341.999 265.13)
(-332.661 -294 150.289)
(-358.065 -294 1367.51)
(-332.661 -339.999 -952.674)
(-341.999 -356.065 265.13)
(-294 -332.661 150.289)
(-294 -358.065 1367.51)
(-339.999 -332.661 -952.674)
(386.039 145.297 5048.84)
(145.266 386.042 5007.39)
(467.086 467.086 7060.15)
(265.885 130.514 5092.47)
(364 344 5151.59)
(399.627 140.368 6201.1)
(451.883 161.625 6357.36)
(380 344 3901.49)
(383.29 124.671 4925.65)
(126.348 261.952 5107.87)
(344 364 5151.59)
(144.295 399.627 6159.67)
(161.592 455.711 6315.92)
(344 380 3887.75)
(128.871 379.222 4951.68)
(292 380 3846.54)
(364 360 6333.01)
(364 380 5000.48)
(380 296 3846.54)
(360 364 6346.75)
(380 364 5000.48)
(380 360 5069.17)
(360 380 5069.17)
(380 380 3750.38)
(286.049 138.452 5992.87)
(160 348 4217.45)
(132.029 132.224 5316.11)
(-10.2021 138.546 5534.97)
(124 352 4712)
(148.125 136.502 5743.21)
(-286.049 138.452 5992.87)
(-160 348 4217.45)
(-132.029 132.224 5316.11)
(10.2021 138.546 5534.97)
(-124 352 4712)
(-148.125 136.502 5743.21)
(264 384 4808.16)
(164 364 5398.87)
(164 388 4038.86)
(136 308 4629.57)
(20 380 5577.45)
(132 380 5852.2)
(124 364 5893.41)
(20 392 4258.66)
(128 392 4533.41)
(-264 384 4808.16)
(-164 364 5398.87)
(-164 388 4038.86)
(-136 308 4629.57)
(-20 380 5577.45)
(-132 380 5852.2)
(-124 364 5893.41)
(-20 392 4258.66)
(-128 392 4533.41)
(-265.885 130.514 5092.47)
(-364 344 5151.59)
(-399.627 140.368 6201.1)
(-451.883 161.625 6357.36)
(-380 344 3901.49)
(-383.29 124.671 4925.65)
(-386.039 145.297 5048.84)
(-145.266 386.042 5007.39)
(-467.086 467.086 7060.15)
(-292 380 3846.54)
(-364 360 6333.01)
(-364 380 5000.48)
(-380 296 3846.54)
(-360 364 6346.75)
(-380 364 5000.48)
(-380 360 5069.17)
(-360 380 5069.17)
(-376 380 3750.38)
(-126.348 261.952 5107.87)
(-344 364 5151.59)
(-144.295 399.627 6159.67)
(-161.592 455.711 6315.92)
(-344 380 3887.75)
(-128.871 379.222 4951.68)
(138.658 282.117 5977.47)
(348 160 4217.45)
(132.224 132.029 5316.11)
(348 124 4712)
(138.546 -10.2021 5534.97)
(136.502 148.125 5743.21)
(384 264 4821.9)
(364 160 5398.87)
(388 164 4038.86)
(304 136 4629.57)
(380 20 5577.45)
(380 132 5852.2)
(364 124 5893.41)
(392 20 4286.14)
(392 128 4533.41)
(138.418 -281.876 5951.44)
(348 -160 4217.45)
(132.224 -132.029 5316.11)
(138.546 10.2021 5534.97)
(352 -124 4712)
(136.502 -148.125 5743.21)
(304 -136 4629.57)
(380 -20 5577.45)
(380 -132 5852.2)
(384 -264 4808.16)
(364 -160 5398.87)
(388 -164 4038.86)
(392 -20 4286.14)
(364 -124 5893.41)
(392 -128 4533.41)
(132 280 5618.66)
(16 172 4574.62)
(136 172 4849.37)
(280 136 5618.66)
(172 16 4574.62)
(172 136 4849.37)
(20 140 5096.64)
(140 20 5096.64)
(136 136 5371.39)
(-132 280 5618.66)
(-16 172 4574.62)
(-136 172 4849.37)
(-280 136 5618.66)
(-172 16 4574.62)
(-172 136 4849.37)
(-20 140 5096.64)
(-140 20 5096.64)
(-136 136 5371.39)
(280 -136 5618.66)
(172 -16 4574.62)
(172 -136 4849.37)
(132 -280 5618.66)
(16 -172 4574.62)
(136 -172 4849.37)
(140 -20 5096.64)
(20 -140 5096.64)
(136 -136 5371.39)
(-280 -136 5618.66)
(-172 -16 4574.62)
(-172 -136 4849.37)
(-132 -280 5618.66)
(-16 -172 4574.62)
(-136 -172 4849.37)
(-140 -20 5096.64)
(-20 -140 5096.64)
(-136 -136 5371.39)
(-384 264 4821.9)
(-364 160 5398.87)
(-388 164 4038.86)
(-304 136 4629.57)
(-380 20 5577.45)
(-380 132 5852.2)
(-368 124 5893.41)
(-392 20 4286.14)
(-392 128 4533.41)
(-138.658 282.117 5977.47)
(-348 160 4217.45)
(-132.224 132.029 5316.11)
(-348 124 4712)
(-138.546 -10.2021 5534.97)
(-136.502 148.125 5743.21)
(-304 -136 4629.57)
(-380 -20 5577.45)
(-380 -132 5852.2)
(-384 -264 4821.9)
(-364 -160 5398.87)
(-388 -164 4038.86)
(-392 -20 4286.14)
(-368 -124 5893.41)
(-392 -128 4533.41)
(-138.658 -282.117 5977.47)
(-348 -160 4217.45)
(-132.224 -132.029 5316.11)
(-138.546 10.2021 5534.97)
(-348 -124 4712)
(-136.502 -148.125 5743.21)
(126.348 -261.952 5107.87)
(344 -364 5151.59)
(140.334 -399.627 6159.67)
(344 -380 3901.49)
(161.592 -455.711 6315.92)
(128.871 -383.05 4951.68)
(380 -292 3846.54)
(360 -364 6333.01)
(380 -364 5000.48)
(292 -380 3846.54)
(364 -360 6333.01)
(364 -380 5000.48)
(360 -380 5069.17)
(380 -360 5069.17)
(380 -380 3750.38)
(145.297 -386.039 5048.84)
(386.042 -145.266 5007.39)
(467.086 -467.086 7060.15)
(261.952 -126.348 5107.87)
(364 -344 5151.59)
(399.627 -140.334 6159.67)
(380 -344 3860.28)
(455.711 -161.592 6315.92)
(383.05 -128.871 4951.68)
(136 -304 4629.57)
(20 -380 5577.45)
(132 -380 5852.2)
(264 -384 4808.16)
(160 -364 5398.87)
(164 -388 4038.86)
(20 -392 4258.66)
(124 -364 5893.41)
(128 -392 4533.41)