/*--------------------------------*- C++ -*----------------------------------*\
| =========                 |                                                 |
| \\      /  F ield         | OpenFOAM: The Open Source CFD Toolbox           |
|  \\    /   O peration     | Version:  2412                                  |
|   \\  /    A nd           | Website:  www.openfoam.com                      |
|    \\/     M anipulation  |                                                 |
\*---------------------------------------------------------------------------*/
FoamFile
{
    version     2.0;
    format      ascii;
    arch        "LSB;label=32;scalar=64";
    class       volScalarField;
    location    "40/bottomWater";
    object      p;
}
// * * * * * * * * * * * * * * * * * * * * * * * * * * * * * * * * * * * * * //

dimensions      [1 -1 -2 0 0 0 0];

internalField   nonuniform List<scalar> 
1460
(
353.16348
353.16312
353.16296
353.16283
353.16271
353.16259
353.16248
353.16237
353.16226
353.16215
353.16202
353.16188
353.16173
353.16155
353.16138
353.16121
353.16106
353.16093
353.16082
353.16072
353.16064
353.16057
353.1605
353.16043
353.16036
353.1603
353.16023
353.16016
353.1601
353.16003
274.68323
274.68304
274.68291
274.68279
274.68268
274.68257
274.68247
274.68236
274.68225
274.68214
274.68202
274.68188
274.68173
274.68156
274.68138
274.68121
274.68106
274.68092
274.68081
274.68072
274.68064
274.68056
274.68049
274.68042
274.68036
274.68029
274.68023
274.68016
274.68009
274.68003
196.20327
196.20308
196.20294
196.20282
196.2027
196.20259
196.20248
196.20237
196.20226
196.20214
196.20202
196.20189
196.20173
196.20156
196.20138
196.20122
196.20106
196.20093
196.20082
196.20072
196.20064
196.20057
196.2005
196.20043
196.20036
196.20029
196.20023
196.20016
196.20009
196.20003
117.72323
117.72304
117.72291
117.72279
117.72268
117.72257
117.72247
117.72236
117.72225
117.72214
117.72202
117.72188
117.72173
117.72156
117.72138
117.72121
117.72106
117.72092
117.72081
117.72072
117.72064
117.72056
117.72049
117.72042
117.72036
117.72029
117.72023
117.72016
117.72009
117.72003
39.243475
39.243125
39.242961
39.24283
39.242707
39.242591
39.24248
39.242371
39.242261
39.242146
39.242022
39.241885
39.241729
39.241553
39.241375
39.241208
39.241058
39.240927
39.240816
39.240722
39.24064
39.240566
39.240496
39.240428
39.240361
39.240295
39.240229
39.240163
39.240097
39.24003
353.16327
353.16304
353.1629
353.16279
353.16268
353.16258
353.16248
353.16238
353.16227
353.16216
353.16203
353.16188
353.1617
353.16147
353.16129
353.16113
353.161
353.16087
353.16077
353.16069
353.16062
353.16056
353.16049
353.16043
353.16036
353.1603
353.16023
353.16016
353.1601
353.16003
274.68303
274.68296
274.68287
274.68277
274.68267
274.68257
274.68247
274.68237
274.68227
274.68216
274.68203
274.68188
274.6817
274.68146
274.68128
274.68112
274.68099
274.68087
274.68077
274.68069
274.68062
274.68056
274.68049
274.68043
274.68036
274.6803
274.68023
274.68016
274.68009
274.68003
196.20306
196.203
196.2029
196.20279
196.20269
196.20258
196.20248
196.20238
196.20227
196.20216
196.20204
196.20189
196.2017
196.20146
196.20128
196.20113
196.20099
196.20087
196.20077
196.2007
196.20063
196.20056
196.20049
196.20043
196.20036
196.2003
196.20023
196.20016
196.20009
196.20002
117.72303
117.72296
117.72287
117.72277
117.72267
117.72257
117.72247
117.72237
117.72227
117.72216
117.72203
117.72188
117.7217
117.72146
117.72128
117.72112
117.72099
117.72087
117.72077
117.72069
117.72062
117.72056
117.72049
117.72043
117.72036
117.7203
117.72023
117.72016
117.72009
117.72003
39.243266
39.243035
39.242902
39.242792
39.242683
39.242578
39.242476
39.242375
39.242272
39.242159
39.242032
39.241881
39.241698
39.241471
39.241287
39.241134
39.240997
39.240873
39.240774
39.240694
39.240623
39.240556
39.240491
39.240426
39.240361
39.240296
39.240231
39.240164
39.240097
39.24003
353.16326
353.16303
353.16291
353.16281
353.16271
353.16261
353.16252
353.16243
353.16234
353.16224
353.16213
353.162
353.16182
353.16151
353.16127
353.16108
353.16091
353.16077
353.16069
353.16064
353.1606
353.16055
353.16049
353.16043
353.16037
353.16031
353.16024
353.16018
353.16011
353.16003
274.68302
274.68296
274.68287
274.68278
274.68269
274.6826
274.68251
274.68242
274.68234
274.68225
274.68214
274.68202
274.68183
274.6815
274.68125
274.68105
274.68088
274.68074
274.68067
274.68063
274.68059
274.68054
274.68049
274.68044
274.68038
274.68031
274.68025
274.68018
274.6801
274.68003
196.20305
196.20299
196.2029
196.20281
196.20271
196.20262
196.20253
196.20244
196.20235
196.20225
196.20215
196.20202
196.20184
196.20151
196.20126
196.20106
196.20088
196.20074
196.20067
196.20063
196.20059
196.20055
196.2005
196.20044
196.20038
196.20031
196.20025
196.20018
196.2001
196.20003
117.72302
117.72296
117.72287
117.72278
117.72269
117.7226
117.72251
117.72242
117.72234
117.72225
117.72214
117.72202
117.72183
117.7215
117.72125
117.72105
117.72088
117.72074
117.72067
117.72063
117.72059
117.72054
117.72049
117.72044
117.72038
117.72031
117.72025
117.72018
117.7201
117.72003
39.243256
39.243035
39.242908
39.242806
39.242706
39.24261
39.242517
39.242427
39.242337
39.242243
39.242135
39.242
39.241823
39.24151
39.241272
39.24108
39.240913
39.240767
39.240692
39.240642
39.240595
39.240546
39.240492
39.240434
39.240373
39.24031
39.240244
39.240175
39.240105
39.240034
353.16322
353.163
353.16289
353.16279
353.1627
353.16261
353.16253
353.16246
353.16238
353.1623
353.1622
353.16203
353.16169
353.1609
353.16099
353.16089
353.16075
353.16055
353.16057
353.16057
353.16055
353.16053
353.16048
353.16043
353.16038
353.16032
353.16025
353.16018
353.16011
353.16004
274.68298
274.68293
274.68285
274.68277
274.68269
274.6826
274.68253
274.68245
274.68238
274.68231
274.68222
274.68205
274.68164
274.68065
274.68086
274.68083
274.68069
274.68049
274.68053
274.68055
274.68055
274.68052
274.68049
274.68044
274.68039
274.68032
274.68025
274.68018
274.68011
274.68004
196.20301
196.20296
196.20288
196.2028
196.20271
196.20262
196.20254
196.20246
196.20239
196.20231
196.20222
196.20205
196.20162
196.20062
196.20086
196.20084
196.2007
196.2005
196.20054
196.20056
196.20056
196.20053
196.20049
196.20044
196.20039
196.20032
196.20025
196.20018
196.20011
196.20004
117.72298
117.72293
117.72285
117.72277
117.72269
117.7226
117.72253
117.72245
117.72238
117.72231
117.72222
117.72205
117.72164
117.72065
117.72086
117.72083
117.72069
117.72049
117.72053
117.72055
117.72055
117.72052
117.72049
117.72044
117.72039
117.72032
117.72025
117.72018
117.72011
117.72004
39.243218
39.243005
39.242888
39.242794
39.242702
39.242615
39.242533
39.242455
39.242379
39.242297
39.242195
39.242026
39.241688
39.240896
39.240988
39.240887
39.240746
39.240552
39.240572
39.240569
39.240554
39.240525
39.240484
39.240434
39.240378
39.240316
39.24025
39.240182
39.240111
39.240039
353.16322
353.16301
353.16289
353.1628
353.16272
353.16264
353.16257
353.16252
353.16248
353.16247
353.16249
353.16254
353.16267
353.16022
353.16046
353.1605
353.16055
353.16054
353.16051
353.16046
353.1604
353.16034
353.16027
353.1602
353.16012
353.16005
274.68298
274.68293
274.68286
274.68278
274.6827
274.68263
274.68256
274.68251
274.68249
274.6825
274.68255
274.68267
274.68294
274.68007
274.68043
274.68049
274.68056
274.68057
274.68053
274.68048
274.68042
274.68035
274.68028
274.6802
274.68013
274.68005
196.20301
196.20296
196.20289
196.20281
196.20272
196.20265
196.20258
196.20253
196.2025
196.20251
196.20257
196.2027
196.20301
196.20007
196.20043
196.2005
196.20057
196.20057
196.20054
196.20049
196.20042
196.20035
196.20028
196.2002
196.20013
196.20005
117.72298
117.72293
117.72286
117.72278
117.7227
117.72263
117.72256
117.72251
117.72249
117.7225
117.72255
117.72267
117.72294
117.72007
117.72043
117.72049
117.72056
117.72057
117.72053
117.72048
117.72042
117.72035
117.72028
117.7202
117.72013
117.72005
39.243217
39.243006
39.242892
39.242803
39.242718
39.242639
39.242571
39.242517
39.242479
39.242465
39.242487
39.242544
39.24267
39.240218
39.24046
39.240503
39.240549
39.240543
39.240512
39.240464
39.240405
39.240339
39.240269
39.240195
39.240121
39.240046
353.16322
353.16301
353.16289
353.1628
353.16272
353.16264
353.16257
353.16252
353.16248
353.16247
353.16249
353.16254
353.16267
353.16022
353.16046
353.1605
353.16055
353.16054
353.16051
353.16046
353.1604
353.16034
353.16027
353.1602
353.16012
353.16005
274.68298
274.68293
274.68286
274.68278
274.6827
274.68263
274.68256
274.68251
274.68249
274.6825
274.68255
274.68267
274.68294
274.68007
274.68043
274.68049
274.68056
274.68057
274.68053
274.68048
274.68042
274.68035
274.68028
274.6802
274.68013
274.68005
196.20301
196.20296
196.20289
196.20281
196.20272
196.20265
196.20258
196.20253
196.2025
196.20251
196.20257
196.2027
196.20301
196.20007
196.20043
196.2005
196.20057
196.20057
196.20054
196.20049
196.20042
196.20035
196.20028
196.2002
196.20013
196.20005
117.72298
117.72293
117.72286
117.72278
117.7227
117.72263
117.72256
117.72251
117.72249
117.7225
117.72255
117.72267
117.72294
117.72007
117.72043
117.72049
117.72056
117.72057
117.72053
117.72048
117.72042
117.72035
117.72028
117.7202
117.72013
117.72005
39.243217
39.243006
39.242892
39.242803
39.242718
39.242639
39.242571
39.242517
39.242479
39.242465
39.242487
39.242544
39.24267
39.240218
39.24046
39.240503
39.240549
39.240543
39.240512
39.240464
39.240405
39.240339
39.240269
39.240195
39.240121
39.240046
353.16322
353.163
353.16289
353.16279
353.1627
353.16261
353.16253
353.16246
353.16238
353.1623
353.1622
353.16203
353.16169
353.1609
353.16099
353.16089
353.16075
353.16055
353.16057
353.16057
353.16055
353.16053
353.16048
353.16043
353.16038
353.16032
353.16025
353.16018
353.16011
353.16004
274.68298
274.68293
274.68285
274.68277
274.68269
274.6826
274.68253
274.68245
274.68238
274.68231
274.68222
274.68205
274.68164
274.68065
274.68086
274.68083
274.68069
274.68049
274.68053
274.68055
274.68055
274.68052
274.68049
274.68044
274.68039
274.68032
274.68025
274.68018
274.68011
274.68004
196.20301
196.20296
196.20288
196.2028
196.20271
196.20262
196.20254
196.20246
196.20239
196.20231
196.20222
196.20205
196.20162
196.20062
196.20086
196.20084
196.2007
196.2005
196.20054
196.20056
196.20056
196.20053
196.20049
196.20044
196.20039
196.20032
196.20025
196.20018
196.20011
196.20004
117.72298
117.72293
117.72285
117.72277
117.72269
117.7226
117.72253
117.72245
117.72238
117.72231
117.72222
117.72205
117.72164
117.72065
117.72086
117.72083
117.72069
117.72049
117.72053
117.72055
117.72055
117.72052
117.72049
117.72044
117.72039
117.72032
117.72025
117.72018
117.72011
117.72004
39.243218
39.243005
39.242888
39.242794
39.242702
39.242615
39.242533
39.242455
39.242379
39.242297
39.242195
39.242026
39.241688
39.240896
39.240988
39.240887
39.240746
39.240552
39.240572
39.240569
39.240554
39.240525
39.240484
39.240434
39.240378
39.240316
39.24025
39.240182
39.240111
39.240039
353.16326
353.16303
353.16291
353.16281
353.16271
353.16261
353.16252
353.16243
353.16234
353.16224
353.16213
353.162
353.16182
353.16151
353.16127
353.16108
353.16091
353.16077
353.16069
353.16064
353.1606
353.16055
353.16049
353.16043
353.16037
353.16031
353.16024
353.16018
353.16011
353.16003
274.68302
274.68296
274.68287
274.68278
274.68269
274.6826
274.68251
274.68242
274.68234
274.68225
274.68214
274.68202
274.68183
274.6815
274.68125
274.68105
274.68088
274.68074
274.68067
274.68063
274.68059
274.68054
274.68049
274.68044
274.68038
274.68031
274.68025
274.68018
274.6801
274.68003
196.20305
196.20299
196.2029
196.20281
196.20271
196.20262
196.20253
196.20244
196.20235
196.20225
196.20215
196.20202
196.20184
196.20151
196.20126
196.20106
196.20088
196.20074
196.20067
196.20063
196.20059
196.20055
196.2005
196.20044
196.20038
196.20031
196.20025
196.20018
196.2001
196.20003
117.72302
117.72296
117.72287
117.72278
117.72269
117.7226
117.72251
117.72242
117.72234
117.72225
117.72214
117.72202
117.72183
117.7215
117.72125
117.72105
117.72088
117.72074
117.72067
117.72063
117.72059
117.72054
117.72049
117.72044
117.72038
117.72031
117.72025
117.72018
117.7201
117.72003
39.243256
39.243035
39.242908
39.242806
39.242706
39.24261
39.242517
39.242427
39.242337
39.242243
39.242135
39.242
39.241823
39.24151
39.241272
39.24108
39.240913
39.240767
39.240692
39.240642
39.240595
39.240546
39.240492
39.240434
39.240373
39.24031
39.240244
39.240175
39.240105
39.240034
353.16327
353.16304
353.1629
353.16279
353.16268
353.16258
353.16248
353.16238
353.16227
353.16216
353.16203
353.16188
353.1617
353.16147
353.16129
353.16113
353.161
353.16087
353.16077
353.16069
353.16062
353.16056
353.16049
353.16043
353.16036
353.1603
353.16023
353.16016
353.1601
353.16003
274.68303
274.68296
274.68287
274.68277
274.68267
274.68257
274.68247
274.68237
274.68227
274.68216
274.68203
274.68188
274.6817
274.68146
274.68128
274.68112
274.68099
274.68087
274.68077
274.68069
274.68062
274.68056
274.68049
274.68043
274.68036
274.6803
274.68023
274.68016
274.68009
274.68003
196.20306
196.203
196.2029
196.20279
196.20269
196.20258
196.20248
196.20238
196.20227
196.20216
196.20204
196.20189
196.2017
196.20146
196.20128
196.20113
196.20099
196.20087
196.20077
196.2007
196.20063
196.20056
196.20049
196.20043
196.20036
196.2003
196.20023
196.20016
196.20009
196.20002
117.72303
117.72296
117.72287
117.72277
117.72267
117.72257
117.72247
117.72237
117.72227
117.72216
117.72203
117.72188
117.7217
117.72146
117.72128
117.72112
117.72099
117.72087
117.72077
117.72069
117.72062
117.72056
117.72049
117.72043
117.72036
117.7203
117.72023
117.72016
117.72009
117.72003
39.243266
39.243035
39.242902
39.242792
39.242683
39.242578
39.242476
39.242375
39.242272
39.242159
39.242032
39.241881
39.241698
39.241471
39.241287
39.241134
39.240997
39.240873
39.240774
39.240694
39.240623
39.240556
39.240491
39.240426
39.240361
39.240296
39.240231
39.240164
39.240097
39.24003
353.16348
353.16312
353.16296
353.16283
353.16271
353.16259
353.16248
353.16237
353.16226
353.16215
353.16202
353.16188
353.16173
353.16155
353.16138
353.16121
353.16106
353.16093
353.16082
353.16072
353.16064
353.16057
353.1605
353.16043
353.16036
353.1603
353.16023
353.16016
353.1601
353.16003
274.68323
274.68304
274.68291
274.68279
274.68268
274.68257
274.68247
274.68236
274.68225
274.68214
274.68202
274.68188
274.68173
274.68156
274.68138
274.68121
274.68106
274.68092
274.68081
274.68072
274.68064
274.68056
274.68049
274.68042
274.68036
274.68029
274.68023
274.68016
274.68009
274.68003
196.20327
196.20308
196.20294
196.20282
196.2027
196.20259
196.20248
196.20237
196.20226
196.20214
196.20202
196.20189
196.20173
196.20156
196.20138
196.20122
196.20106
196.20093
196.20082
196.20072
196.20064
196.20057
196.2005
196.20043
196.20036
196.20029
196.20023
196.20016
196.20009
196.20003
117.72323
117.72304
117.72291
117.72279
117.72268
117.72257
117.72247
117.72236
117.72225
117.72214
117.72202
117.72188
117.72173
117.72156
117.72138
117.72121
117.72106
117.72092
117.72081
117.72072
117.72064
117.72056
117.72049
117.72042
117.72036
117.72029
117.72023
117.72016
117.72009
117.72003
39.243475
39.243125
39.242961
39.24283
39.242707
39.242591
39.24248
39.242371
39.242261
39.242146
39.242022
39.241885
39.241729
39.241553
39.241375
39.241208
39.241058
39.240927
39.240816
39.240722
39.24064
39.240566
39.240496
39.240428
39.240361
39.240295
39.240229
39.240163
39.240097
39.24003
)
;

boundaryField
{
    minX
    {
        type            calculated;
        value           nonuniform List<scalar> 
50
(
353.16348
274.68323
196.20327
117.72323
39.243475
353.16327
274.68303
196.20306
117.72303
39.243266
353.16326
274.68302
196.20305
117.72302
39.243256
353.16322
274.68298
196.20301
117.72298
39.243218
353.16322
274.68298
196.20301
117.72298
39.243217
353.16322
274.68298
196.20301
117.72298
39.243217
353.16322
274.68298
196.20301
117.72298
39.243218
353.16326
274.68302
196.20305
117.72302
39.243256
353.16327
274.68303
196.20306
117.72303
39.243266
353.16348
274.68323
196.20327
117.72323
39.243475
)
;
    }
    maxX
    {
        type            calculated;
        value           nonuniform List<scalar> 
50
(
353.16
274.68
196.2
117.72
39.24
353.16
274.68
196.2
117.72
39.24
353.16
274.68
196.2
117.72
39.24
353.16
274.68
196.2
117.72
39.24
353.16
274.68
196.2
117.72
39.24
353.16
274.68
196.2
117.72
39.24
353.16
274.68
196.2
117.72
39.24
353.16
274.68
196.2
117.72
39.24
353.16
274.68
196.2
117.72
39.24
353.16
274.68
196.2
117.72
39.24
)
;
    }
    minY
    {
        type            calculated;
        value           nonuniform List<scalar> 
292
(
392.40348
392.40327
392.40326
392.40322
392.40322
392.40322
392.40322
392.40326
392.40327
392.40348
392.40312
392.40304
392.40303
392.403
392.40301
392.40301
392.403
392.40303
392.40304
392.40312
392.40296
392.4029
392.40291
392.40289
392.40289
392.40289
392.40289
392.40291
392.4029
392.40296
392.40283
392.40279
392.40281
392.40279
392.4028
392.4028
392.40279
392.40281
392.40279
392.40283
392.40271
392.40268
392.40271
392.4027
392.40272
392.40272
392.4027
392.40271
392.40268
392.40271
392.40259
392.40258
392.40261
392.40261
392.40264
392.40264
392.40261
392.40261
392.40258
392.40259
392.40248
392.40248
392.40252
392.40253
392.40257
392.40257
392.40253
392.40252
392.40248
392.40248
392.40237
392.40238
392.40243
392.40246
392.40252
392.40252
392.40246
392.40243
392.40238
392.40237
392.40226
392.40227
392.40234
392.40238
392.40248
392.40248
392.40238
392.40234
392.40227
392.40226
392.40215
392.40216
392.40224
392.4023
392.40247
392.40247
392.4023
392.40224
392.40216
392.40215
392.40202
392.40203
392.40213
392.4022
392.40249
392.40249
392.4022
392.40213
392.40203
392.40202
392.40188
392.40188
392.402
392.40203
392.40254
392.40254
392.40203
392.402
392.40188
392.40188
392.40173
392.4017
392.40182
392.40169
392.40267
392.40267
392.40169
392.40182
392.4017
392.40173
392.40155
392.40147
392.40151
392.4009
392.4009
392.40151
392.40147
392.40155
392.40138
392.40129
392.40127
392.40099
392.40099
392.40127
392.40129
392.40138
392.40121
392.40113
392.40108
392.40089
392.40089
392.40108
392.40113
392.40121
392.40106
392.401
392.40091
392.40075
392.40075
392.40091
392.401
392.40106
392.40093
392.40087
392.40077
392.40055
392.40022
392.40022
392.40055
392.40077
392.40087
392.40093
392.40082
392.40077
392.40069
392.40057
392.40046
392.40046
392.40057
392.40069
392.40077
392.40082
392.40072
392.40069
392.40064
392.40057
392.4005
392.4005
392.40057
392.40064
392.40069
392.40072
392.40064
392.40062
392.4006
392.40055
392.40055
392.40055
392.40055
392.4006
392.40062
392.40064
392.40057
392.40056
392.40055
392.40053
392.40054
392.40054
392.40053
392.40055
392.40056
392.40057
392.4005
392.40049
392.40049
392.40048
392.40051
392.40051
392.40048
392.40049
392.40049
392.4005
392.40043
392.40043
392.40043
392.40043
392.40046
392.40046
392.40043
392.40043
392.40043
392.40043
392.40036
392.40036
392.40037
392.40038
392.4004
392.4004
392.40038
392.40037
392.40036
392.40036
392.4003
392.4003
392.40031
392.40032
392.40034
392.40034
392.40032
392.40031
392.4003
392.4003
392.40023
392.40023
392.40024
392.40025
392.40027
392.40027
392.40025
392.40024
392.40023
392.40023
392.40016
392.40016
392.40018
392.40018
392.4002
392.4002
392.40018
392.40018
392.40016
392.40016
392.4001
392.4001
392.40011
392.40011
392.40012
392.40012
392.40011
392.40011
392.4001
392.4001
392.40003
392.40003
392.40003
392.40004
392.40005
392.40005
392.40004
392.40003
392.40003
392.40003
)
;
    }
    minZ
    {
        type            calculated;
        value           nonuniform List<scalar> 
150
(
353.16348
274.68323
196.20327
117.72323
39.243475
353.16312
274.68304
196.20308
117.72304
39.243125
353.16296
274.68291
196.20294
117.72291
39.242961
353.16283
274.68279
196.20282
117.72279
39.24283
353.16271
274.68268
196.2027
117.72268
39.242707
353.16259
274.68257
196.20259
117.72257
39.242591
353.16248
274.68247
196.20248
117.72247
39.24248
353.16237
274.68236
196.20237
117.72236
39.242371
353.16226
274.68225
196.20226
117.72225
39.242261
353.16215
274.68214
196.20214
117.72214
39.242146
353.16202
274.68202
196.20202
117.72202
39.242022
353.16188
274.68188
196.20189
117.72188
39.241885
353.16173
274.68173
196.20173
117.72173
39.241729
353.16155
274.68156
196.20156
117.72156
39.241553
353.16138
274.68138
196.20138
117.72138
39.241375
353.16121
274.68121
196.20122
117.72121
39.241208
353.16106
274.68106
196.20106
117.72106
39.241058
353.16093
274.68092
196.20093
117.72092
39.240927
353.16082
274.68081
196.20082
117.72081
39.240816
353.16072
274.68072
196.20072
117.72072
39.240722
353.16064
274.68064
196.20064
117.72064
39.24064
353.16057
274.68056
196.20057
117.72056
39.240566
353.1605
274.68049
196.2005
117.72049
39.240496
353.16043
274.68042
196.20043
117.72042
39.240428
353.16036
274.68036
196.20036
117.72036
39.240361
353.1603
274.68029
196.20029
117.72029
39.240295
353.16023
274.68023
196.20023
117.72023
39.240229
353.16016
274.68016
196.20016
117.72016
39.240163
353.1601
274.68009
196.20009
117.72009
39.240097
353.16003
274.68003
196.20003
117.72003
39.24003
)
;
    }
    maxZ
    {
        type            calculated;
        value           nonuniform List<scalar> 
150
(
353.16348
274.68323
196.20327
117.72323
39.243475
353.16312
274.68304
196.20308
117.72304
39.243125
353.16296
274.68291
196.20294
117.72291
39.242961
353.16283
274.68279
196.20282
117.72279
39.24283
353.16271
274.68268
196.2027
117.72268
39.242707
353.16259
274.68257
196.20259
117.72257
39.242591
353.16248
274.68247
196.20248
117.72247
39.24248
353.16237
274.68236
196.20237
117.72236
39.242371
353.16226
274.68225
196.20226
117.72225
39.242261
353.16215
274.68214
196.20214
117.72214
39.242146
353.16202
274.68202
196.20202
117.72202
39.242022
353.16188
274.68188
196.20189
117.72188
39.241885
353.16173
274.68173
196.20173
117.72173
39.241729
353.16155
274.68156
196.20156
117.72156
39.241553
353.16138
274.68138
196.20138
117.72138
39.241375
353.16121
274.68121
196.20122
117.72121
39.241208
353.16106
274.68106
196.20106
117.72106
39.241058
353.16093
274.68092
196.20093
117.72092
39.240927
353.16082
274.68081
196.20082
117.72081
39.240816
353.16072
274.68072
196.20072
117.72072
39.240722
353.16064
274.68064
196.20064
117.72064
39.24064
353.16057
274.68056
196.20057
117.72056
39.240566
353.1605
274.68049
196.2005
117.72049
39.240496
353.16043
274.68042
196.20043
117.72042
39.240428
353.16036
274.68036
196.20036
117.72036
39.240361
353.1603
274.68029
196.20029
117.72029
39.240295
353.16023
274.68023
196.20023
117.72023
39.240229
353.16016
274.68016
196.20016
117.72016
39.240163
353.1601
274.68009
196.20009
117.72009
39.240097
353.16003
274.68003
196.20003
117.72003
39.24003
)
;
    }
    bottomWater_to_rightSolid
    {
        type            calculated;
        value           nonuniform List<scalar> 
130
(
0.00092673801
0.00081571592
0.00072210401
0.00064035194
0.00056587091
0.00049569921
0.0004279459
0.00036137397
0.00029523657
0.00022916338
0.00016299499
9.671318e-05
3.0422893e-05
0.00087280278
0.00077384137
0.00069366676
0.00062269501
0.00055573538
0.00049051176
0.00042598803
0.00036147854
0.00029646882
0.00023072401
0.00016432675
9.7413191e-05
3.0224065e-05
0.00076697802
0.00069204213
0.00064206231
0.00059525222
0.00054564998
0.00049197427
0.00043433359
0.00037348096
0.00030990995
0.00024373631
0.00017540781
0.00010545587
3.4448909e-05
0.00055233354
0.00057153644
0.0005694457
0.00055446524
0.00052530859
0.00048422561
0.0004340984
0.00037764133
0.00031607509
0.00025030909
0.00018150561
0.00011078543
3.8976494e-05
0.00021766264
0.00046003485
0.00050326318
0.00054886581
0.00054320342
0.00051153692
0.00046361466
0.00040488878
0.000339058
0.00026866237
0.00019546048
0.00012078601
4.6004734e-05
0.00021766232
0.00046003463
0.00050326302
0.0005488657
0.00054320334
0.00051153687
0.00046361463
0.00040488877
0.00033905798
0.00026866235
0.00019546046
0.00012078599
4.6004713e-05
0.00055233352
0.00057153635
0.00056944561
0.00055446517
0.00052530854
0.00048422559
0.00043409841
0.00037764135
0.0003160751
0.00025030909
0.0001815056
0.00011078541
3.8976464e-05
0.00076697801
0.00069204208
0.00064206227
0.00059525219
0.00054564996
0.00049197427
0.00043433364
0.00037348101
0.00030990999
0.00024373634
0.00017540781
0.00010545585
3.4448866e-05
0.00087280279
0.00077384138
0.00069366676
0.00062269501
0.00055573539
0.00049051174
0.00042598807
0.00036147861
0.00029646888
0.00023072405
0.00016432677
9.7413183e-05
3.0224019e-05
0.00092673801
0.00081571592
0.00072210401
0.00064035195
0.00056587093
0.00049569923
0.00042794593
0.000361374
0.0002952366
0.00022916339
0.00016299499
9.6713162e-05
3.0422847e-05
)
;
    }
    bottomWater_to_leftSolid
    {
        type            calculated;
        value           nonuniform List<scalar> 
130
(
0.0034751811
0.0031248096
0.0029609501
0.002830226
0.0027069552
0.0025907955
0.0024799506
0.0023709103
0.0022606552
0.0021458566
0.0020221369
0.0018847124
0.0017294852
0.0032662651
0.0030353887
0.0029018311
0.0027916735
0.0026833095
0.00257766
0.0024756129
0.0023751059
0.0022715239
0.0021593562
0.0020320718
0.0018810632
0.0016984153
0.0032561315
0.0030347049
0.0029084618
0.0028059513
0.0027059966
0.0026095241
0.0025170556
0.0024272856
0.0023374605
0.0022425344
0.002134719
0.002000107
0.0018226047
0.0032176857
0.0030046229
0.0028876154
0.0027936742
0.0027020376
0.0026146031
0.0025326989
0.0024552019
0.0023789487
0.0022969472
0.0021952336
0.0020260627
0.001687709
0.0032171535
0.0030058893
0.002892327
0.0028030333
0.0027179935
0.0026393841
0.0025714584
0.0025170087
0.0024794119
0.0024654989
0.0024866329
0.0025444045
0.0026699325
0.0032171535
0.0030058893
0.002892327
0.0028030333
0.0027179933
0.002639384
0.0025714584
0.0025170087
0.0024794119
0.0024654989
0.002486633
0.0025444045
0.0026699326
0.0032176857
0.003004623
0.0028876155
0.0027936744
0.0027020379
0.0026146033
0.0025326989
0.002455202
0.0023789487
0.0022969472
0.0021952336
0.0020260628
0.0016877091
0.0032561316
0.003034705
0.0029084619
0.0028059514
0.0027059967
0.0026095242
0.0025170556
0.0024272856
0.0023374606
0.0022425345
0.002134719
0.002000107
0.0018226048
0.0032662652
0.0030353888
0.0029018312
0.0027916736
0.0026833096
0.00257766
0.002475613
0.002375106
0.002271524
0.0021593563
0.0020320718
0.0018810633
0.0016984153
0.0034751812
0.0031248097
0.0029609502
0.0028302261
0.0027069553
0.0025907956
0.0024799507
0.0023709104
0.0022606553
0.0021458567
0.0020221369
0.0018847124
0.0017294852
)
;
    }
    bottomWater_to_heater
    {
        type            calculated;
        value           nonuniform List<scalar> 
92
(
0.0015529019
0.0013753035
0.0012083745
0.0010581152
0.0014705283
0.0012866436
0.0011343255
0.00099656436
0.0015098909
0.0012715229
0.0010801774
0.00091316055
353.1609
353.16099
353.16089
353.16075
274.68065
274.68086
274.68083
274.68069
196.20062
196.20086
196.20084
196.2007
117.72065
117.72086
117.72083
117.72069
0.00089603087
39.240896
0.00098771042
39.240988
0.00088659015
39.240887
0.00074639388
39.240746
353.16267
353.16022
274.68294
274.68007
196.20301
196.20007
117.72294
117.72007
39.24267
39.240218
353.16267
353.1609
353.16099
353.16089
353.16022
353.16075
274.68294
274.68065
274.68086
274.68083
274.68007
274.68069
196.20301
196.20062
196.20086
196.20084
196.20007
196.2007
117.72294
117.72065
117.72086
117.72083
117.72007
117.72069
39.24267
39.240896
39.240988
39.240887
39.240218
39.240746
0.00089603109
0.00098771052
0.00088659022
0.00074639391
0.001509891
0.0012715229
0.0010801774
0.00091316057
0.0014705283
0.0012866436
0.0011343256
0.00099656438
0.0015529019
0.0013753035
0.0012083745
0.0010581152
)
;
    }
}


// ************************************************************************* //
