/*--------------------------------*- C++ -*----------------------------------*\
| =========                 |                                                 |
| \\      /  F ield         | OpenFOAM: The Open Source CFD Toolbox           |
|  \\    /   O peration     | Version:  2412                                  |
|   \\  /    A nd           | Website:  www.openfoam.com                      |
|    \\/     M anipulation  |                                                 |
\*---------------------------------------------------------------------------*/
FoamFile
{
    version     2.0;
    format      ascii;
    arch        "LSB;label=32;scalar=64";
    class       volScalarField;
    location    "40/bottomWater";
    object      p_rgh;
}
// * * * * * * * * * * * * * * * * * * * * * * * * * * * * * * * * * * * * * //

dimensions      [1 -1 -2 0 0 0 0];

internalField   nonuniform List<scalar> 
1460
(
0.0034751811
0.0031248096
0.0029609501
0.002830226
0.0027069552
0.0025907955
0.0024799506
0.0023709103
0.0022606552
0.0021458566
0.0020221369
0.0018847124
0.0017294852
0.0015529019
0.0013753035
0.0012083745
0.0010581152
0.000926738
0.0008157159
0.000722104
0.00064035193
0.00056587092
0.00049569922
0.00042794592
0.00036137399
0.0002952366
0.0002291634
0.00016299501
9.6713187e-05
3.0422896e-05
0.0032313191
0.0030417446
0.0029070645
0.0027929059
0.0026812878
0.0025721809
0.0024658429
0.0023598015
0.0022514528
0.0021388862
0.0020183203
0.0018847439
0.0017332044
0.0015587105
0.0013806517
0.0012120519
0.0010583783
0.0009243784
0.0008122497
0.00071861449
0.00063718238
0.00056288948
0.00049269789
0.0004248149
0.00035817044
0.00029208943
0.00022614586
0.00016014573
9.3968945e-05
2.7487383e-05
0.003267252
0.0030781204
0.0029378079
0.0028187567
0.0027029779
0.002589913
0.0024798076
0.0023703169
0.0022587921
0.0021433059
0.0020205144
0.001885531
0.0017336324
0.0015600835
0.0013834442
0.001216457
0.0010636316
0.0009294754
0.00081732945
0.00072364739
0.0006419097
0.00056706622
0.00049615271
0.00042746415
0.00035999695
0.00029314029
0.00022653486
0.00016007086
9.3522193e-05
2.653958e-05
0.0032313191
0.0030417446
0.0029070645
0.0027929059
0.0026812878
0.0025721809
0.0024658429
0.0023598015
0.0022514528
0.0021388862
0.0020183203
0.0018847439
0.0017332044
0.0015587105
0.0013806517
0.0012120519
0.0010583783
0.0009243784
0.00081224971
0.0007186145
0.00063718239
0.00056288948
0.00049269788
0.00042481489
0.00035817042
0.00029208941
0.00022614584
0.00016014572
9.3968938e-05
2.7487379e-05
0.0034751811
0.0031248096
0.0029609501
0.002830226
0.0027069552
0.0025907955
0.0024799506
0.0023709103
0.0022606552
0.0021458566
0.0020221369
0.0018847124
0.0017294852
0.0015529019
0.0013753035
0.0012083745
0.0010581152
0.00092673801
0.00081571592
0.00072210401
0.00064035194
0.00056587091
0.00049569921
0.0004279459
0.00036137397
0.00029523657
0.00022916338
0.00016299499
9.671318e-05
3.0422893e-05
0.0032662651
0.0030353887
0.0029018311
0.0027916735
0.0026833095
0.0025776599
0.0024756129
0.0023751059
0.0022715239
0.0021593562
0.0020320718
0.0018810633
0.0016984153
0.0014705283
0.0012866436
0.0011343255
0.00099656435
0.00087280277
0.00077384136
0.00069366675
0.000622695
0.00055573537
0.0004905117
0.00042598807
0.00036147861
0.00029646889
0.00023072406
0.00016432678
9.7413209e-05
3.0224071e-05
0.0030282077
0.0029604417
0.0028672611
0.0027682522
0.0026669665
0.0025654264
0.0024650988
0.0023662242
0.0022655222
0.0021566551
0.0020326348
0.001884115
0.0016993485
0.0014640602
0.0012758556
0.0011246499
0.0009895236
0.00086743828
0.00076912719
0.00069061094
0.00062124409
0.00055517407
0.00049023272
0.00042555694
0.00036055945
0.00029501275
0.00022891587
0.00016226243
9.4832462e-05
2.6209835e-05
0.0030622688
0.0029957598
0.0028974256
0.0027936516
0.002688856
0.002584131
0.0024805507
0.0023783167
0.0022746103
0.0021630505
0.0020362635
0.0018851495
0.0016985011
0.0014628482
0.0012760331
0.0011265852
0.00099235276
0.00087161849
0.00077418261
0.00069601125
0.00062652926
0.00055989873
0.00049393841
0.00042812174
0.0003621945
0.00029590965
0.00022919789
0.00016201809
9.406459e-05
2.4559416e-05
0.0030282077
0.0029604417
0.0028672611
0.0027682522
0.0026669665
0.0025654264
0.0024650988
0.0023662242
0.0022655223
0.0021566551
0.0020326348
0.001884115
0.0016993485
0.0014640602
0.0012758556
0.0011246499
0.00098952361
0.0008674383
0.00076912722
0.00069061098
0.00062124412
0.00055517409
0.00049023264
0.00042555689
0.00036055941
0.00029501272
0.00022891584
0.00016226241
9.483245e-05
2.6209832e-05
0.0032662651
0.0030353887
0.0029018311
0.0027916735
0.0026833095
0.00257766
0.0024756129
0.0023751059
0.0022715239
0.0021593562
0.0020320718
0.0018810632
0.0016984153
0.0014705283
0.0012866436
0.0011343255
0.00099656436
0.00087280278
0.00077384137
0.00069366676
0.00062269501
0.00055573538
0.00049051176
0.00042598803
0.00036147854
0.00029646882
0.00023072401
0.00016432675
9.7413191e-05
3.0224065e-05
0.0032561315
0.0030347049
0.0029084618
0.0028059513
0.0027059966
0.0026095241
0.0025170556
0.0024272856
0.0023374605
0.0022425344
0.002134719
0.002000107
0.0018226048
0.001509891
0.0012715229
0.0010801774
0.00091316054
0.000766978
0.0006920421
0.0006420623
0.00059525222
0.00054564999
0.0004919743
0.0004343337
0.00037348106
0.00030991004
0.00024373638
0.00017540786
0.0001054559
3.4448922e-05
0.0030171789
0.0029583235
0.0028732327
0.0027820788
0.0026895958
0.0025980957
0.0025089603
0.0024218688
0.0023355105
0.0022460018
0.0021448456
0.0020153108
0.0018324696
0.0015024151
0.0012506273
0.0010532006
0.00088330261
0.00073678761
0.00066735456
0.00062748208
0.00058827578
0.00054350706
0.00049303543
0.00043745663
0.00037705177
0.00031253094
0.00024505979
0.00017556781
0.00010442433
3.1545805e-05
0.003052027
0.0029944491
0.0029042626
0.0028084084
0.0027125844
0.0026181137
0.0025260201
0.0024360023
0.0023466488
0.0022541621
0.0021503449
0.0020200614
0.0018375644
0.0015087017
0.0012579743
0.0010580761
0.0008847954
0.00073848823
0.00067131262
0.00063338954
0.00059467375
0.00054934591
0.00049768544
0.00044050166
0.00037879779
0.00031347118
0.00024549964
0.00017558314
0.00010389152
2.9937282e-05
0.0030171789
0.0029583235
0.0028732327
0.0027820788
0.0026895958
0.0025980957
0.0025089603
0.0024218688
0.0023355105
0.0022460018
0.0021448456
0.0020153108
0.0018324696
0.0015024151
0.0012506273
0.0010532006
0.00088330263
0.00073678764
0.0006673546
0.00062748211
0.0005882758
0.00054350706
0.00049303539
0.00043745652
0.0003770517
0.00031253089
0.00024505975
0.00017556779
0.00010442431
3.1545803e-05
0.0032561315
0.0030347049
0.0029084618
0.0028059513
0.0027059966
0.0026095241
0.0025170556
0.0024272856
0.0023374605
0.0022425344
0.002134719
0.002000107
0.0018226047
0.0015098909
0.0012715229
0.0010801774
0.00091316055
0.00076697802
0.00069204213
0.00064206231
0.00059525222
0.00054564998
0.00049197427
0.00043433359
0.00037348096
0.00030990995
0.00024373631
0.00017540781
0.00010545587
3.4448909e-05
0.0032176857
0.0030046229
0.0028876154
0.0027936742
0.0027020376
0.0026146031
0.0025326988
0.0024552019
0.0023789487
0.0022969472
0.0021952336
0.0020260627
0.001687709
0.00089603088
0.00098771042
0.00088659013
0.00074639384
0.00055233346
0.00057153635
0.00056944564
0.00055446522
0.0005253086
0.00048422564
0.00043409847
0.00037764142
0.00031607516
0.00025030914
0.00018150565
0.00011078546
3.8976507e-05
0.0029796745
0.0029284401
0.0028531064
0.002770839
0.0026866952
0.00260391
0.0025252228
0.002451439
0.0023813485
0.0023096698
0.0022186955
0.0020514705
0.0016354864
0.00064736119
0.00086487525
0.00083035554
0.00068906409
0.00049183003
0.00052861659
0.00054776665
0.00054540285
0.00052416821
0.00048846431
0.00044156309
0.00038524348
0.00032198487
0.00025424253
0.00018386882
0.00011223207
4.0170603e-05
0.0030137463
0.0029638288
0.0028835884
0.0027967109
0.0027093074
0.0026235806
0.0025417765
0.002464715
0.002390922
0.0023147919
0.0022196028
0.0020491474
0.0016151224
0.00061781547
0.00086061059
0.00083893523
0.00069539731
0.00050292488
0.00053878101
0.00055856164
0.00055507514
0.00053161234
0.00049333965
0.00044403235
0.00038633946
0.00032244443
0.0002544076
0.00018387016
0.00011208949
3.9861969e-05
0.0029796745
0.0029284401
0.0028531064
0.002770839
0.0026866952
0.00260391
0.0025252228
0.002451439
0.0023813486
0.0023096698
0.0022186955
0.0020514705
0.0016354864
0.0006473612
0.00086487527
0.00083035556
0.00068906413
0.00049183013
0.0005286167
0.00054776675
0.00054540292
0.00052416825
0.0004884643
0.00044156305
0.00038524343
0.00032198483
0.00025424249
0.00018386879
0.00011223205
4.0170594e-05
0.0032176857
0.0030046229
0.0028876154
0.0027936742
0.0027020376
0.0026146031
0.0025326989
0.0024552019
0.0023789487
0.0022969472
0.0021952336
0.0020260627
0.001687709
0.00089603087
0.00098771042
0.00088659015
0.00074639388
0.00055233354
0.00057153644
0.0005694457
0.00055446524
0.00052530859
0.00048422561
0.0004340984
0.00037764133
0.00031607509
0.00025030909
0.00018150561
0.00011078543
3.8976494e-05
0.0032171535
0.0030058893
0.002892327
0.0028030333
0.0027179935
0.0026393841
0.0025714584
0.0025170087
0.0024794119
0.0024654988
0.0024866329
0.0025444044
0.0026699325
0.00021766248
0.00046003479
0.00050326316
0.00054886583
0.00054320345
0.00051153695
0.0004636147
0.00040488882
0.00033905803
0.00026866239
0.00019546049
0.00012078602
4.6004745e-05
0.0029787821
0.0029291183
0.0028570749
0.0027794061
0.0027016889
0.0026282419
0.0025640542
0.0025149707
0.0024889846
0.0024970728
0.0025542741
0.0026697245
0.0029370815
7.0884384e-05
0.00042516549
0.00049406096
0.0005581374
0.00056556876
0.00053480726
0.00048372484
0.00042065824
0.00035038749
0.00027623797
0.00020052326
0.00012513511
5.2369592e-05
0.0030129181
0.0029645803
0.0028876493
0.0028054031
0.0027245289
0.0026483955
0.0025814433
0.0025297015
0.002501135
0.0025077731
0.0025700936
0.0027015969
0.003010648
6.8221091e-05
0.00043445059
0.00050388202
0.00056589722
0.00057136379
0.00053861548
0.00048611991
0.00042223074
0.00035147637
0.00027702212
0.00020115135
0.00012586662
5.395181e-05
0.0029787821
0.0029291183
0.0028570749
0.0027794061
0.0027016889
0.0026282419
0.0025640542
0.0025149708
0.0024889846
0.0024970728
0.0025542741
0.0026697245
0.0029370816
7.0884573e-05
0.00042516555
0.00049406097
0.00055813738
0.00056556871
0.0005348072
0.00048372479
0.00042065819
0.00035038745
0.00027623794
0.00020052324
0.0001251351
5.2369582e-05
0.0032171535
0.0030058893
0.002892327
0.0028030333
0.0027179935
0.0026393841
0.0025714584
0.0025170087
0.0024794119
0.0024654989
0.0024866329
0.0025444045
0.0026699325
0.00021766264
0.00046003485
0.00050326318
0.00054886581
0.00054320342
0.00051153692
0.00046361466
0.00040488878
0.000339058
0.00026866237
0.00019546048
0.00012078601
4.6004734e-05
0.0032171535
0.0030058893
0.002892327
0.0028030332
0.0027179933
0.002639384
0.0025714584
0.0025170087
0.0024794119
0.0024654989
0.0024866329
0.0025444045
0.0026699326
0.00021766233
0.00046003464
0.00050326303
0.00054886572
0.00054320335
0.00051153686
0.00046361462
0.00040488876
0.00033905798
0.00026866235
0.00019546046
0.000120786
4.6004724e-05
0.0029787821
0.0029291183
0.0028570749
0.0027794061
0.0027016888
0.0026282418
0.0025640542
0.0025149708
0.0024889846
0.0024970728
0.0025542742
0.0026697246
0.0029370817
7.0884203e-05
0.00042516531
0.00049406081
0.00055813726
0.00056556864
0.00053480716
0.00048372477
0.00042065818
0.00035038744
0.00027623793
0.00020052323
0.00012513509
5.2369566e-05
0.0030129181
0.0029645803
0.0028876493
0.0028054031
0.0027245288
0.0026483954
0.0025814433
0.0025297015
0.0025011351
0.0025077732
0.0025700937
0.002701597
0.0030106481
6.8220799e-05
0.00043445037
0.00050388186
0.00056589709
0.00057136369
0.00053861541
0.00048611985
0.0004222307
0.00035147633
0.00027702209
0.00020115132
0.0001258666
5.3951781e-05
0.0029787821
0.0029291183
0.0028570749
0.0027794061
0.0027016888
0.0026282419
0.0025640542
0.0025149708
0.0024889846
0.0024970729
0.0025542742
0.0026697246
0.0029370817
7.0884192e-05
0.00042516529
0.0004940608
0.00055813724
0.00056556861
0.00053480714
0.00048372475
0.00042065817
0.00035038743
0.00027623792
0.00020052321
0.00012513508
5.2369553e-05
0.0032171535
0.0030058893
0.002892327
0.0028030333
0.0027179933
0.002639384
0.0025714584
0.0025170087
0.0024794119
0.0024654989
0.002486633
0.0025444045
0.0026699326
0.00021766232
0.00046003463
0.00050326302
0.0005488657
0.00054320334
0.00051153687
0.00046361463
0.00040488877
0.00033905798
0.00026866235
0.00019546046
0.00012078599
4.6004713e-05
0.0032176857
0.003004623
0.0028876155
0.0027936744
0.0027020379
0.0026146033
0.0025326989
0.002455202
0.0023789487
0.0022969472
0.0021952336
0.0020260628
0.0016877091
0.00089603112
0.00098771054
0.00088659023
0.00074639392
0.00055233354
0.00057153639
0.00056944565
0.0005544652
0.00052530857
0.0004842256
0.00043409842
0.00037764135
0.00031607511
0.0002503091
0.00018150561
0.00011078543
3.8976475e-05
0.0029796746
0.0029284401
0.0028531064
0.0027708391
0.0026866953
0.0026039101
0.0025252229
0.002451439
0.0023813486
0.0023096699
0.0022186956
0.0020514705
0.0016354865
0.00064736152
0.00086487539
0.00083035565
0.00068906418
0.00049183012
0.00052861662
0.00054776665
0.00054540282
0.00052416817
0.00048846425
0.00044156302
0.00038524342
0.00032198482
0.00025424249
0.00018386878
0.00011223203
4.0170561e-05
0.0030137464
0.0029638289
0.0028835885
0.002796711
0.0027093075
0.0026235808
0.0025417766
0.002464715
0.002390922
0.0023147919
0.0022196029
0.0020491475
0.0016151226
0.00061781584
0.00086061072
0.00083893534
0.00069539737
0.0005029249
0.00053878095
0.00055856155
0.00055507505
0.00053161226
0.00049333958
0.0004440323
0.00038633942
0.0003224444
0.00025440757
0.00018387013
0.00011208946
3.9861923e-05
0.0029796746
0.0029284401
0.0028531064
0.0027708391
0.0026866953
0.0026039101
0.0025252229
0.002451439
0.0023813486
0.0023096699
0.0022186956
0.0020514705
0.0016354865
0.00064736151
0.00086487538
0.00083035565
0.00068906417
0.00049183011
0.00052861658
0.0005477666
0.00054540279
0.00052416815
0.00048846424
0.00044156302
0.00038524341
0.00032198482
0.00025424248
0.00018386877
0.00011223202
4.0170551e-05
0.0032176857
0.003004623
0.0028876155
0.0027936744
0.0027020379
0.0026146033
0.0025326989
0.002455202
0.0023789487
0.0022969472
0.0021952336
0.0020260628
0.0016877091
0.00089603109
0.00098771052
0.00088659022
0.00074639391
0.00055233352
0.00057153635
0.00056944561
0.00055446517
0.00052530854
0.00048422559
0.00043409841
0.00037764135
0.0003160751
0.00025030909
0.0001815056
0.00011078541
3.8976464e-05
0.0032561316
0.003034705
0.0029084619
0.0028059514
0.0027059967
0.0026095242
0.0025170556
0.0024272856
0.0023374605
0.0022425345
0.002134719
0.002000107
0.0018226048
0.001509891
0.0012715229
0.0010801774
0.00091316058
0.00076697802
0.0006920421
0.00064206229
0.0005952522
0.00054564997
0.00049197427
0.00043433365
0.00037348101
0.00030991
0.00024373635
0.00017540783
0.00010545588
3.4448881e-05
0.0030171789
0.0029583235
0.0028732328
0.0027820789
0.0026895959
0.0025980958
0.0025089603
0.0024218688
0.0023355105
0.0022460019
0.0021448456
0.0020153109
0.0018324696
0.0015024152
0.0012506273
0.0010532006
0.00088330265
0.00073678763
0.00066735455
0.00062748207
0.00058827577
0.00054350704
0.00049303541
0.00043745658
0.00037705174
0.00031253092
0.00024505978
0.0001755678
0.0001044243
3.1545753e-05
0.0030520271
0.0029944492
0.0029042626
0.0028084084
0.0027125845
0.0026181138
0.0025260202
0.0024360024
0.0023466488
0.0022541622
0.0021503449
0.0020200615
0.0018375645
0.0015087017
0.0012579743
0.0010580761
0.00088479543
0.00073848822
0.00067131259
0.00063338951
0.00059467372
0.0005493459
0.00049768544
0.00044050167
0.0003787978
0.00031347119
0.00024549964
0.00017558313
0.00010389149
2.9937224e-05
0.0030171789
0.0029583235
0.0028732328
0.0027820789
0.0026895959
0.0025980958
0.0025089603
0.0024218688
0.0023355105
0.0022460019
0.0021448456
0.0020153109
0.0018324696
0.0015024152
0.0012506273
0.0010532006
0.00088330265
0.00073678762
0.00066735455
0.00062748205
0.00058827575
0.00054350703
0.00049303539
0.00043745657
0.00037705174
0.00031253092
0.00024505977
0.00017556779
0.00010442429
3.1545753e-05
0.0032561316
0.003034705
0.0029084619
0.0028059514
0.0027059967
0.0026095242
0.0025170556
0.0024272856
0.0023374606
0.0022425345
0.002134719
0.002000107
0.0018226048
0.001509891
0.0012715229
0.0010801774
0.00091316057
0.00076697801
0.00069204208
0.00064206227
0.00059525219
0.00054564996
0.00049197427
0.00043433364
0.00037348101
0.00030990999
0.00024373634
0.00017540781
0.00010545585
3.4448866e-05
0.0032662652
0.0030353888
0.0029018312
0.0027916736
0.0026833096
0.00257766
0.002475613
0.002375106
0.002271524
0.0021593563
0.0020320718
0.0018810633
0.0016984153
0.0014705283
0.0012866436
0.0011343256
0.00099656439
0.0008728028
0.00077384139
0.00069366678
0.00062269503
0.0005557354
0.00049051173
0.00042598807
0.00036147861
0.00029646889
0.00023072407
0.00016432678
9.7413197e-05
3.0224022e-05
0.0030282078
0.0029604418
0.0028672612
0.0027682523
0.0026669666
0.0025654265
0.0024650989
0.0023662243
0.0022655223
0.0021566552
0.0020326348
0.001884115
0.0016993485
0.0014640602
0.0012758556
0.0011246499
0.00098952363
0.00086743832
0.00076912723
0.00069061098
0.00062124413
0.00055517411
0.00049023273
0.00042555696
0.00036055947
0.00029501277
0.00022891588
0.00016226244
9.4832455e-05
2.6209773e-05
0.0030622688
0.0029957599
0.0028974257
0.0027936516
0.0026888561
0.0025841311
0.0024805508
0.0023783168
0.0022746104
0.0021630506
0.0020362635
0.0018851495
0.0016985011
0.0014628482
0.0012760331
0.0011265852
0.00099235279
0.00087161851
0.00077418262
0.00069601126
0.00062652928
0.00055989877
0.00049393845
0.00042812178
0.00036219455
0.00029590969
0.00022919792
0.00016201811
9.4064584e-05
2.4559352e-05
0.0030282078
0.0029604418
0.0028672612
0.0027682523
0.0026669666
0.0025654265
0.0024650989
0.0023662243
0.0022655223
0.0021566552
0.0020326348
0.001884115
0.0016993485
0.0014640602
0.0012758556
0.0011246499
0.00098952364
0.00086743832
0.00076912722
0.00069061097
0.00062124412
0.0005551741
0.00049023272
0.00042555696
0.00036055947
0.00029501277
0.00022891588
0.00016226243
9.4832443e-05
2.6209768e-05
0.0032662652
0.0030353888
0.0029018312
0.0027916736
0.0026833096
0.00257766
0.002475613
0.002375106
0.002271524
0.0021593563
0.0020320718
0.0018810633
0.0016984153
0.0014705283
0.0012866436
0.0011343256
0.00099656438
0.00087280279
0.00077384138
0.00069366676
0.00062269501
0.00055573539
0.00049051174
0.00042598807
0.00036147861
0.00029646888
0.00023072405
0.00016432677
9.7413183e-05
3.0224019e-05
0.0034751812
0.0031248097
0.0029609502
0.0028302261
0.0027069553
0.0025907956
0.0024799507
0.0023709104
0.0022606552
0.0021458566
0.0020221369
0.0018847124
0.0017294852
0.0015529019
0.0013753035
0.0012083745
0.0010581152
0.00092673802
0.00081571592
0.00072210401
0.00064035195
0.00056587093
0.00049569922
0.00042794592
0.00036137399
0.00029523659
0.00022916339
0.000162995
9.6713165e-05
3.0422842e-05
0.0032313192
0.0030417447
0.0029070646
0.002792906
0.0026812879
0.002572181
0.0024658429
0.0023598016
0.0022514529
0.0021388862
0.0020183203
0.0018847439
0.0017332044
0.0015587105
0.0013806517
0.0012120519
0.0010583783
0.00092437842
0.00081224973
0.00071861451
0.0006371824
0.0005628895
0.0004926979
0.00042481492
0.00035817045
0.00029208944
0.00022614586
0.00016014573
9.3968923e-05
2.7487317e-05
0.0032672521
0.0030781205
0.0029378079
0.0028187567
0.002702978
0.0025899131
0.0024798077
0.002370317
0.0022587922
0.002143306
0.0020205144
0.001885531
0.0017336324
0.0015600835
0.0013834442
0.001216457
0.0010636316
0.00092947542
0.00081732946
0.0007236474
0.00064190972
0.00056706624
0.00049615274
0.00042746418
0.00035999697
0.00029314031
0.00022653487
0.00016007086
9.3522172e-05
2.6539515e-05
0.0032313192
0.0030417447
0.0029070646
0.002792906
0.0026812879
0.002572181
0.002465843
0.0023598016
0.0022514529
0.0021388862
0.0020183203
0.0018847439
0.0017332044
0.0015587105
0.0013806517
0.0012120519
0.0010583783
0.00092437841
0.00081224972
0.0007186145
0.0006371824
0.00056288949
0.0004926979
0.00042481492
0.00035817044
0.00029208943
0.00022614585
0.00016014572
9.3968913e-05
2.7487316e-05
0.0034751812
0.0031248097
0.0029609502
0.0028302261
0.0027069553
0.0025907956
0.0024799507
0.0023709104
0.0022606553
0.0021458567
0.0020221369
0.0018847124
0.0017294852
0.0015529019
0.0013753035
0.0012083745
0.0010581152
0.00092673801
0.00081571592
0.00072210401
0.00064035195
0.00056587093
0.00049569923
0.00042794593
0.000361374
0.0002952366
0.00022916339
0.00016299499
9.6713162e-05
3.0422847e-05
)
;

boundaryField
{
    minX
    {
        type            zeroGradient;
    }
    maxX
    {
        type            fixedValue;
        value           uniform 0;
    }
    minY
    {
        type            fixedFluxPressure;
        gradient        uniform 0;
        value           nonuniform List<scalar> 
292
(
0.0034751811
0.0032662651
0.0032561315
0.0032176857
0.0032171535
0.0032171535
0.0032176857
0.0032561316
0.0032662652
0.0034751812
0.0031248096
0.0030353887
0.0030347049
0.0030046229
0.0030058893
0.0030058893
0.003004623
0.003034705
0.0030353888
0.0031248097
0.0029609501
0.0029018311
0.0029084618
0.0028876154
0.002892327
0.002892327
0.0028876155
0.0029084619
0.0029018312
0.0029609502
0.002830226
0.0027916735
0.0028059513
0.0027936742
0.0028030333
0.0028030332
0.0027936744
0.0028059514
0.0027916736
0.0028302261
0.0027069552
0.0026833095
0.0027059966
0.0027020376
0.0027179935
0.0027179933
0.0027020379
0.0027059967
0.0026833096
0.0027069553
0.0025907955
0.0025776599
0.0026095241
0.0026146031
0.0026393841
0.002639384
0.0026146033
0.0026095242
0.00257766
0.0025907956
0.0024799506
0.0024756129
0.0025170556
0.0025326988
0.0025714584
0.0025714584
0.0025326989
0.0025170556
0.002475613
0.0024799507
0.0023709103
0.0023751059
0.0024272856
0.0024552019
0.0025170087
0.0025170087
0.002455202
0.0024272856
0.002375106
0.0023709104
0.0022606552
0.0022715239
0.0023374605
0.0023789487
0.0024794119
0.0024794119
0.0023789487
0.0023374605
0.002271524
0.0022606552
0.0021458566
0.0021593562
0.0022425344
0.0022969472
0.0024654988
0.0024654989
0.0022969472
0.0022425345
0.0021593563
0.0021458566
0.0020221369
0.0020320718
0.002134719
0.0021952336
0.0024866329
0.0024866329
0.0021952336
0.002134719
0.0020320718
0.0020221369
0.0018847124
0.0018810633
0.002000107
0.0020260627
0.0025444044
0.0025444045
0.0020260628
0.002000107
0.0018810633
0.0018847124
0.0017294852
0.0016984153
0.0018226048
0.001687709
0.0026699325
0.0026699326
0.0016877091
0.0018226048
0.0016984153
0.0017294852
0.0015529019
0.0014705283
0.001509891
0.00089603088
0.00089603112
0.001509891
0.0014705283
0.0015529019
0.0013753035
0.0012866436
0.0012715229
0.00098771042
0.00098771054
0.0012715229
0.0012866436
0.0013753035
0.0012083745
0.0011343255
0.0010801774
0.00088659013
0.00088659023
0.0010801774
0.0011343256
0.0012083745
0.0010581152
0.00099656435
0.00091316054
0.00074639384
0.00074639392
0.00091316058
0.00099656439
0.0010581152
0.000926738
0.00087280277
0.000766978
0.00055233346
0.00021766248
0.00021766233
0.00055233354
0.00076697802
0.0008728028
0.00092673802
0.0008157159
0.00077384136
0.0006920421
0.00057153635
0.00046003479
0.00046003464
0.00057153639
0.0006920421
0.00077384139
0.00081571592
0.000722104
0.00069366675
0.0006420623
0.00056944564
0.00050326316
0.00050326303
0.00056944565
0.00064206229
0.00069366678
0.00072210401
0.00064035193
0.000622695
0.00059525222
0.00055446522
0.00054886583
0.00054886572
0.0005544652
0.0005952522
0.00062269503
0.00064035195
0.00056587092
0.00055573537
0.00054564999
0.0005253086
0.00054320345
0.00054320335
0.00052530857
0.00054564997
0.0005557354
0.00056587093
0.00049569922
0.0004905117
0.0004919743
0.00048422564
0.00051153695
0.00051153686
0.0004842256
0.00049197427
0.00049051173
0.00049569922
0.00042794592
0.00042598807
0.0004343337
0.00043409847
0.0004636147
0.00046361462
0.00043409842
0.00043433365
0.00042598807
0.00042794592
0.00036137399
0.00036147861
0.00037348106
0.00037764142
0.00040488882
0.00040488876
0.00037764135
0.00037348101
0.00036147861
0.00036137399
0.0002952366
0.00029646889
0.00030991004
0.00031607516
0.00033905803
0.00033905798
0.00031607511
0.00030991
0.00029646889
0.00029523659
0.0002291634
0.00023072406
0.00024373638
0.00025030914
0.00026866239
0.00026866235
0.0002503091
0.00024373635
0.00023072407
0.00022916339
0.00016299501
0.00016432678
0.00017540786
0.00018150565
0.00019546049
0.00019546046
0.00018150561
0.00017540783
0.00016432678
0.000162995
9.6713187e-05
9.7413209e-05
0.0001054559
0.00011078546
0.00012078602
0.000120786
0.00011078543
0.00010545588
9.7413197e-05
9.6713165e-05
3.0422896e-05
3.0224071e-05
3.4448922e-05
3.8976507e-05
4.6004745e-05
4.6004724e-05
3.8976475e-05
3.4448881e-05
3.0224022e-05
3.0422842e-05
)
;
    }
    minZ
    {
        type            fixedFluxPressure;
        gradient        uniform 0;
        value           nonuniform List<scalar> 
150
(
0.0034751811
0.0032313191
0.003267252
0.0032313191
0.0034751811
0.0031248096
0.0030417446
0.0030781204
0.0030417446
0.0031248096
0.0029609501
0.0029070645
0.0029378079
0.0029070645
0.0029609501
0.002830226
0.0027929059
0.0028187567
0.0027929059
0.002830226
0.0027069552
0.0026812878
0.0027029779
0.0026812878
0.0027069552
0.0025907955
0.0025721809
0.002589913
0.0025721809
0.0025907955
0.0024799506
0.0024658429
0.0024798076
0.0024658429
0.0024799506
0.0023709103
0.0023598015
0.0023703169
0.0023598015
0.0023709103
0.0022606552
0.0022514528
0.0022587921
0.0022514528
0.0022606552
0.0021458566
0.0021388862
0.0021433059
0.0021388862
0.0021458566
0.0020221369
0.0020183203
0.0020205144
0.0020183203
0.0020221369
0.0018847124
0.0018847439
0.001885531
0.0018847439
0.0018847124
0.0017294852
0.0017332044
0.0017336324
0.0017332044
0.0017294852
0.0015529019
0.0015587105
0.0015600835
0.0015587105
0.0015529019
0.0013753035
0.0013806517
0.0013834442
0.0013806517
0.0013753035
0.0012083745
0.0012120519
0.001216457
0.0012120519
0.0012083745
0.0010581152
0.0010583783
0.0010636316
0.0010583783
0.0010581152
0.000926738
0.0009243784
0.0009294754
0.0009243784
0.00092673801
0.0008157159
0.0008122497
0.00081732945
0.00081224971
0.00081571592
0.000722104
0.00071861449
0.00072364739
0.0007186145
0.00072210401
0.00064035193
0.00063718238
0.0006419097
0.00063718239
0.00064035194
0.00056587092
0.00056288948
0.00056706622
0.00056288948
0.00056587091
0.00049569922
0.00049269789
0.00049615271
0.00049269788
0.00049569921
0.00042794592
0.0004248149
0.00042746415
0.00042481489
0.0004279459
0.00036137399
0.00035817044
0.00035999695
0.00035817042
0.00036137397
0.0002952366
0.00029208943
0.00029314029
0.00029208941
0.00029523657
0.0002291634
0.00022614586
0.00022653486
0.00022614584
0.00022916338
0.00016299501
0.00016014573
0.00016007086
0.00016014572
0.00016299499
9.6713187e-05
9.3968945e-05
9.3522193e-05
9.3968938e-05
9.671318e-05
3.0422896e-05
2.7487383e-05
2.653958e-05
2.7487379e-05
3.0422893e-05
)
;
    }
    maxZ
    {
        type            fixedFluxPressure;
        gradient        uniform 0;
        value           nonuniform List<scalar> 
150
(
0.0034751812
0.0032313192
0.0032672521
0.0032313192
0.0034751812
0.0031248097
0.0030417447
0.0030781205
0.0030417447
0.0031248097
0.0029609502
0.0029070646
0.0029378079
0.0029070646
0.0029609502
0.0028302261
0.002792906
0.0028187567
0.002792906
0.0028302261
0.0027069553
0.0026812879
0.002702978
0.0026812879
0.0027069553
0.0025907956
0.002572181
0.0025899131
0.002572181
0.0025907956
0.0024799507
0.0024658429
0.0024798077
0.002465843
0.0024799507
0.0023709104
0.0023598016
0.002370317
0.0023598016
0.0023709104
0.0022606552
0.0022514529
0.0022587922
0.0022514529
0.0022606553
0.0021458566
0.0021388862
0.002143306
0.0021388862
0.0021458567
0.0020221369
0.0020183203
0.0020205144
0.0020183203
0.0020221369
0.0018847124
0.0018847439
0.001885531
0.0018847439
0.0018847124
0.0017294852
0.0017332044
0.0017336324
0.0017332044
0.0017294852
0.0015529019
0.0015587105
0.0015600835
0.0015587105
0.0015529019
0.0013753035
0.0013806517
0.0013834442
0.0013806517
0.0013753035
0.0012083745
0.0012120519
0.001216457
0.0012120519
0.0012083745
0.0010581152
0.0010583783
0.0010636316
0.0010583783
0.0010581152
0.00092673802
0.00092437842
0.00092947542
0.00092437841
0.00092673801
0.00081571592
0.00081224973
0.00081732946
0.00081224972
0.00081571592
0.00072210401
0.00071861451
0.0007236474
0.0007186145
0.00072210401
0.00064035195
0.0006371824
0.00064190972
0.0006371824
0.00064035195
0.00056587093
0.0005628895
0.00056706624
0.00056288949
0.00056587093
0.00049569922
0.0004926979
0.00049615274
0.0004926979
0.00049569923
0.00042794592
0.00042481492
0.00042746418
0.00042481492
0.00042794593
0.00036137399
0.00035817045
0.00035999697
0.00035817044
0.000361374
0.00029523659
0.00029208944
0.00029314031
0.00029208943
0.0002952366
0.00022916339
0.00022614586
0.00022653487
0.00022614585
0.00022916339
0.000162995
0.00016014573
0.00016007086
0.00016014572
0.00016299499
9.6713165e-05
9.3968923e-05
9.3522172e-05
9.3968913e-05
9.6713162e-05
3.0422842e-05
2.7487317e-05
2.6539515e-05
2.7487316e-05
3.0422847e-05
)
;
    }
    bottomWater_to_rightSolid
    {
        type            fixedFluxPressure;
        gradient        uniform 0;
        value           nonuniform List<scalar> 
130
(
0.00092673801
0.00081571592
0.00072210401
0.00064035194
0.00056587091
0.00049569921
0.0004279459
0.00036137397
0.00029523657
0.00022916338
0.00016299499
9.671318e-05
3.0422893e-05
0.00087280278
0.00077384137
0.00069366676
0.00062269501
0.00055573538
0.00049051176
0.00042598803
0.00036147854
0.00029646882
0.00023072401
0.00016432675
9.7413191e-05
3.0224065e-05
0.00076697802
0.00069204213
0.00064206231
0.00059525222
0.00054564998
0.00049197427
0.00043433359
0.00037348096
0.00030990995
0.00024373631
0.00017540781
0.00010545587
3.4448909e-05
0.00055233354
0.00057153644
0.0005694457
0.00055446524
0.00052530859
0.00048422561
0.0004340984
0.00037764133
0.00031607509
0.00025030909
0.00018150561
0.00011078543
3.8976494e-05
0.00021766264
0.00046003485
0.00050326318
0.00054886581
0.00054320342
0.00051153692
0.00046361466
0.00040488878
0.000339058
0.00026866237
0.00019546048