/*--------------------------------*- C++ -*----------------------------------*\
| =========                 |                                                 |
| \\      /  F ield         | OpenFOAM: The Open Source CFD Toolbox           |
|  \\    /   O peration     | Version:  2412                                  |
|   \\  /    A nd           | Website:  www.openfoam.com                      |
|    \\/     M anipulation  |                                                 |
\*---------------------------------------------------------------------------*/
FoamFile
{
    version     2.0;
    format      ascii;
    arch        "LSB;label=32;scalar=64";
    class       surfaceScalarField;
    location    "40/bottomWater";
    object      phi;
}
// * * * * * * * * * * * * * * * * * * * * * * * * * * * * * * * * * * * * * //

dimensions      [1 0 -1 0 0 0 0];

oriented        oriented;

internalField   nonuniform List<scalar> 
3858
(
7.3284254e-05
4.1421721e-06
2.5735741e-06
6.5961758e-05
4.2651277e-06
3.0573685e-06
5.9258483e-05
3.7692184e-06
2.9340562e-06
5.3691573e-05
3.0840598e-06
2.4828501e-06
4.9484985e-05
2.3639038e-06
1.8426839e-06
4.6647846e-05
1.7281246e-06
1.1090146e-06
4.5101501e-05
1.2267315e-06
3.1961384e-07
4.4717735e-05
8.675477e-07
-4.8378189e-07
4.5385883e-05
6.29632e-07
-1.2977802e-06
4.7040841e-05
4.5299332e-07
-2.1079512e-06
4.9614532e-05
2.8955357e-07
-2.8632444e-06
5.2911984e-05
1.1520273e-07
-3.4126551e-06
5.6357701e-05
-6.4594569e-08
-3.3811217e-06
5.8380869e-05
-2.1373902e-07
-1.8094296e-06
5.8936551e-05
-3.1272997e-07
-2.4295217e-07
5.8188079e-05
-3.5736797e-07
1.1058404e-06
5.6326749e-05
-3.2195888e-07
2.1832893e-06
5.352857e-05
-2.6021099e-07
3.05839e-06
5.0284349e-05
-2.0714554e-07
3.4513662e-06
4.7086336e-05
-1.739503e-07
3.3719631e-06
4.4253687e-05
-1.5154853e-07
2.9841975e-06
4.1928455e-05
-1.2708616e-07
2.4523186e-06
4.0128786e-05
-9.2963013e-08
1.8926321e-06
3.8802563e-05
-4.9972248e-08
1.3761949e-06
3.7869006e-05
-5.7824182e-09
9.3933963e-07
3.7231558e-05
3.81323e-08
5.9931559e-07
3.6802613e-05
7.0625541e-08
3.5831932e-07
3.6506548e-05
9.0650573e-08
2.0541441e-07
3.6281527e-05
1.008791e-07
1.2414168e-07
1.1766333e-07
1.0208939e-07
7.9640983e-05
1.6662588e-06
2.8349304e-06
7.8442297e-05
1.8502524e-06
3.613561e-06
7.6883863e-05
1.7149041e-06
3.6127482e-06
7.5216572e-05
1.4474468e-06
3.3039045e-06
7.3685266e-05
1.1279927e-06
2.7672166e-06
7.2532214e-05
8.2464409e-07
2.0565329e-06
7.1979595e-05
5.7317413e-07
1.2061762e-06
7.2252634e-05
3.8702249e-07
2.0748663e-07
7.3493686e-05
2.6413338e-07
-8.7555334e-07
7.5804326e-05
1.7950837e-07
-2.0371553e-06
7.92051e-05
1.0754266e-07
-3.2187631e-06
8.3560483e-05
3.4666463e-08
-4.2748467e-06
8.8321356e-05
-3.9154481e-08
-4.7863131e-06
9.1828985e-05
-1.0280581e-07
-3.618562e-06
9.3719549e-05
-1.5233722e-07
-2.0509565e-06
9.4092434e-05
-1.8042686e-07
-5.4982667e-07
9.306134e-05
-1.7513483e-07
8.8427028e-07
9.0760199e-05
-1.4678283e-07
2.187713e-06
8.7532139e-05
-1.194681e-07
3.1403816e-06
8.3824972e-05
-1.0283701e-07
3.6360547e-06
8.001894e-05
-9.37344e-08
3.7482173e-06
7.6403166e-05
-8.4341427e-08
3.5730294e-06
7.3175194e-05
-6.8467614e-08
3.203477e-06
7.0444915e-05
-4.4885594e-08
2.7251923e-06
6.8241465e-05
-1.6647248e-08
2.2143142e-06
6.6541265e-05
9.5186135e-09
1.7288134e-06
6.5277477e-05
2.9577367e-08
1.3048362e-06
6.4362373e-05
4.4084345e-08
9.6167054e-07
6.3702465e-05
5.396916e-08
7.0681801e-07
6.5375685e-08
5.5557167e-07
8.0479127e-05
-1.6662587e-06
2.8533903e-06
8.0509297e-05
-1.8502518e-06
3.6703345e-06
8.0230048e-05
-1.7149028e-06
3.7090556e-06
7.9683094e-05
-1.4474444e-06
3.4418459e-06
7.9000672e-05
-1.1279898e-06
2.9384037e-06
7.8402289e-05
-8.2464123e-07
2.247669e-06
7.8144363e-05
-5.7317206e-07
1.4042722e-06
7.8513914e-05
-3.870215e-07
4.04493e-07
7.9747824e-05
-2.6413329e-07
-7.0564351e-07
8.199962e-05
-1.7950868e-07
-1.8927787e-06
8.5318663e-05
-1.0754288e-07
-3.1039575e-06
8.9596199e-05
-3.4666264e-08
-4.2082031e-06
9.4332781e-05
3.9155214e-08
-4.8148919e-06
9.7952145e-05
1.0280707e-07
-3.8249775e-06
0.00010005373
1.5233888e-07
-2.4062601e-06
0.00010067265
1.8042866e-07
-9.7977374e-07
9.9908365e-05
1.7513638e-07
4.1401169e-07
9.7877252e-05
1.4678371e-07
1.7375466e-06
9.4895668e-05
1.19468e-07
2.7426479e-06
9.1355922e-05
1.0283591e-07
3.3340728e-06
8.7598946e-05
9.3732684e-08
3.5695088e-06
8.3903075e-05
8.433991e-08
3.5271898e-06
8.0481793e-05
6.8467249e-08
3.2843466e-06
7.7482846e-05
4.4886991e-08
2.9091748e-06
7.4984442e-05
1.6650492e-08
2.4651068e-06
7.29965e-05
-9.5148033e-09
2.0069745e-06
7.1477893e-05
-2.9572999e-08
1.5777582e-06
7.035796e-05
-4.4080299e-08
1.2080974e-06
6.9549752e-05
-5.3965999e-08
9.1614264e-07
-6.5373535e-08
7.303062e-07
7.9640983e-05
-4.1421721e-06
2.8349304e-06
7.8442298e-05
-4.2651275e-06
3.613561e-06
7.6883864e-05
-3.7692177e-06
3.6127481e-06
7.5216574e-05
-3.0840587e-06
3.3039044e-06
7.368527e-05
-2.3639023e-06
2.7672166e-06
7.2532219e-05
-1.7281231e-06
2.0565329e-06
7.1979601e-05
-1.2267304e-06
1.2061764e-06
7.225264e-05
-8.6754719e-07
2.0748694e-07
7.3493691e-05
-6.2963193e-07
-8.7555287e-07
7.5804331e-05
-4.5299344e-07
-2.0371546e-06
7.9205104e-05
-2.895536e-07
-3.2187622e-06
8.3560486e-05
-1.1520248e-07
-4.2748457e-06
8.8321358e-05
6.4595245e-08
-4.7863121e-06
9.1828986e-05
2.1374003e-07
-3.6185611e-06
9.3719549e-05
3.1273121e-07
-2.0509558e-06
9.4092435e-05
3.5736925e-07
-5.4982606e-07
9.306134e-05
3.2195992e-07
8.842707e-07
9.0760199e-05
2.6021157e-07
2.1877132e-06
8.753214e-05
2.0714549e-07
3.1403815e-06
8.3824972e-05
1.7394963e-07
3.6360543e-06
8.0018941e-05
1.5154748e-07
3.7482169e-06
7.6403166e-05
1.2708518e-07
3.5730295e-06
7.3175193e-05
9.2962604e-08
3.203478e-06
7.0444913e-05
4.9972715e-08
2.7251941e-06
6.8241463e-05
5.7836717e-09
2.2143164e-06
6.6541263e-05
-3.8130175e-08
1.7288157e-06
6.5277475e-05
-7.0623177e-08
1.3048385e-06
6.436237e-05
-9.0648354e-08
9.616726e-07
6.3702462e-05
-1.0087735e-07
7.068198e-07
-1.1766219e-07
5.5557317e-07
7.3284254e-05
2.5735741e-06
6.5961758e-05
3.0573685e-06
5.9258484e-05
2.9340562e-06
5.3691575e-05
2.4828501e-06
4.9484989e-05
1.842684e-06
4.6647851e-05
1.1090148e-06
4.5101506e-05
3.1961419e-07
4.4717741e-05
-4.8378141e-07
4.5385888e-05
-1.2977796e-06
4.7040845e-05
-2.1079505e-06
4.9614535e-05
-2.8632435e-06
5.2911987e-05
-3.4126541e-06
5.6357703e-05
-3.3811206e-06
5.8380871e-05
-1.8094285e-06
5.8936554e-05
-2.4295124e-07
5.8188082e-05
1.1058412e-06
5.6326752e-05
2.18329e-06
5.3528573e-05
3.0583905e-06
5.0284352e-05
3.4513665e-06
4.7086338e-05
3.3719634e-06
4.4253688e-05
2.9841979e-06
4.1928454e-05
2.4523191e-06
4.0128783e-05
1.8926331e-06
3.880256e-05
1.3761964e-06
3.7869002e-05
9.3934188e-07
3.7231553e-05
5.9931823e-07
3.6802608e-05
3.5832192e-07
3.6506543e-05
2.0541671e-07
3.6281522e-05
1.2414357e-07
1.0209088e-07
7.6669704e-05
4.3756477e-06
1.528222e-06
7.2879337e-05
4.7220734e-06
2.1256629e-06
6.9412775e-05
4.203504e-06
2.197114e-06
6.6439519e-05
3.5784463e-06
1.8776601e-06
6.4102023e-05
2.9197561e-06
1.2604233e-06
6.2484831e-05
2.2963736e-06
4.2983316e-07
6.1644891e-05
1.7598929e-06
-6.0033971e-07
6.1672029e-05
1.3005526e-06
-1.8114723e-06
6.268819e-05
8.9038824e-07
-3.2043297e-06
6.4879789e-05
5.2692829e-07
-4.8264776e-06
6.8504493e-05
2.0457506e-07
-6.692524e-06
7.3695768e-05
-6.1652694e-08
-8.5422772e-06
7.9703782e-05
-1.967562e-07
-9.1923799e-06
8.2073482e-05
-3.9320803e-08
-4.1398089e-06
8.2563925e-05
1.468813e-07
-8.8027637e-07
8.1839002e-05
2.6793851e-07
1.5628251e-06
7.9935238e-05
3.1884945e-07
3.7682041e-06
7.6557901e-05
3.3582258e-07
6.0999042e-06
7.2577369e-05
3.1999804e-07
7.1119006e-06
6.8646274e-05
2.5822489e-07
7.0448328e-06
6.5149461e-05
1.6634964e-07
6.3146614e-06
6.2261785e-05
7.3525331e-08
5.2664684e-06
6.0013031e-05
2.163454e-09
4.1392228e-06
5.8337779e-05
-3.0660092e-08
3.0821076e-06
5.7136189e-05
-3.1125919e-08
2.1720555e-06
5.6300218e-05
-9.7222805e-09
1.4450091e-06
5.572729e-05
2.16059e-08
9.0964087e-07
5.5329864e-05
5.3025873e-08
5.4981516e-07
5.5034056e-05
8.359371e-08
3.3635534e-07
1.3265635e-07
2.3986846e-07
8.3703671e-05
1.7822521e-06
1.7246552e-06
8.743674e-05
2.0573759e-06
2.545189e-06
9.0587418e-05
1.909361e-06
2.7562138e-06
9.322039e-05
1.6702406e-06
2.5791378e-06
9.5446341e-05
1.3887255e-06
2.0722964e-06
9.742385e-05
1.1042528e-06
1.2711449e-06
9.9334386e-05
8.4787843e-07
2.076548e-07
0.00010141641
6.2459353e-07
-1.1985805e-06
0.00010392603
4.2472531e-07
-2.9195051e-06
0.00010719076
2.485817e-07
-5.0235462e-06
0.00011164602
9.5975544e-08
-7.5654146e-06
0.00011773444
-3.3562865e-08
-1.039136e-05
0.0001252021
-1.0313551e-07
-1.2347592e-05
0.00012974578
-6.4154462e-08
-8.1374108e-06
0.00013270687
2.0788827e-08
-4.8859506e-06
0.00013434585
7.9940521e-08
-2.0008094e-06
0.00013447897
1.1151049e-07
9.5848246e-07
0.0001327239
1.1932496e-07
4.159288e-06
0.00012964614
1.1353128e-07
6.4246079e-06
0.00012583188
8.8548469e-08
7.6199835e-06
0.0001216801
4.8839603e-08
8.0175105e-06
0.00011750315
7.8899143e-09
7.815617e-06
0.00011354142
-2.831016e-08
7.195678e-06
0.00010997984
-4.5775685e-08
6.3018928e-06
0.00010693318
-4.3841241e-08
5.2736855e-06
0.00010444564
-2.7900859e-08
4.2345313e-06
0.00010250291
-5.1878183e-09
3.2743659e-06
0.00010104926
1.678656e-08
2.4515601e-06
0.00010000364
3.9610314e-08
1.7964141e-06
7.0513965e-08
1.3345614e-06
8.4669669e-05
-1.7822519e-06
1.7482252e-06
8.9854266e-05
-2.0573752e-06
2.600489e-06
9.4538394e-05
-1.9093592e-06
2.843647e-06
9.8615336e-05
-1.6702377e-06
2.7053825e-06
0.0001020924
-1.3887217e-06
2.2387839e-06
0.00010507568
-1.1042488e-06
1.4728891e-06
0.00010774402
-8.4787522e-07
4.3169203e-07
0.0001103396
-6.2459187e-07
-9.4190125e-07
0.00011313689
-4.2472543e-07
-2.6534867e-06
0.00011648696
-2.4858333e-07
-4.7456775e-06
0.00012085911
-9.5978102e-08
-7.2841577e-06
0.00012674472
3.3559917e-08
-1.0160936e-05
0.00013401458
1.0313269e-07
-1.2291016e-05
0.00013858791
6.4151846e-08
-8.5266207e-06
0.00014185748
-2.0791003e-08
-5.6342453e-06
0.00014403649
-7.9942848e-08
-2.9988985e-06
0.00014476754
-1.1151334e-07
-9.4022891e-08
0.00014367192
-1.1932893e-07
3.0718267e-06
0.00014119323
-1.1353701e-07
5.4484039e-06
0.00013783651
-8.8556408e-08
6.8678945e-06
0.00013394147
-4.8849682e-08
7.5622377e-06
0.00012980256
-7.900653e-09
7.6818988e-06
0.00012566467
2.8296872e-08
7.3656205e-06
0.00012176034
4.5764518e-08
6.721973e-06
0.0001182729
4.3832971e-08
5.8648728e-06
0.00011532015
2.7895674e-08
4.9039256e-06
0.00011294667
5.1851675e-09
3.9408648e-06
0.0001111312
-1.6787336e-08
3.0571399e-06
0.00010981731
-3.9610442e-08
2.3092551e-06
-7.0514192e-08
1.7505991e-06
8.3703671e-05
-4.3756477e-06
1.7246552e-06
8.7436741e-05
-4.7220731e-06
2.545189e-06
9.0587419e-05
-4.2035032e-06
2.7562137e-06
9.3220393e-05
-3.5784448e-06
2.5791378e-06
9.5446346e-05
-2.9197542e-06
2.0722964e-06
9.7423856e-05
-2.2963715e-06
1.271145e-06
9.9334394e-05
-1.7598913e-06
2.0765503e-07
0.00010141642
-1.3005518e-06
-1.19858e-06
0.00010392604
-8.903884e-07
-2.9195044e-06
0.00010719077
-5.2692926e-07
-5.0235453e-06
0.00011164602
-2.0457653e-07
-7.5654135e-06
0.00011773444
6.1651109e-08
-1.0391359e-05
0.0001252021
1.9675488e-07
-1.2347591e-05
0.00012974578
3.9319884e-08
-8.13741e-06
0.00013270687
-1.4688202e-07
-4.88595e-06
0.00013434585
-2.6793916e-07
-2.0008091e-06
0.00013447897
-3.1885027e-07
9.5848235e-07
0.00013272389
-3.3582391e-07
4.1592872e-06
0.00012964613
-3.2000027e-07
6.4246063e-06
0.00012583188
-2.5822839e-07
7.6199812e-06
0.00012168009
-1.6635466e-07
8.0175076e-06
0.00011750314
-7.3531788e-08
7.8156138e-06
0.00011354141
-2.1718301e-09
7.1956748e-06
0.00010997982
3.0654084e-08
6.3018898e-06
0.00010693317
3.112166e-08
5.2736834e-06
0.00010444563
9.7199614e-09
4.2345301e-06
0.00010250289
-2.1606914e-08
3.2743655e-06
0.00010104925
-5.3025962e-08
2.4515604e-06
0.00010000363
-8.3593478e-08
1.7964149e-06
-1.3265624e-07
1.3345625e-06
7.6669704e-05
1.528222e-06
7.2879337e-05
2.1256628e-06
6.9412776e-05
2.197114e-06
6.6439521e-05
1.87766e-06
6.4102028e-05
1.2604234e-06
6.2484838e-05
4.2983335e-07
6.16449e-05
-6.0033929e-07
6.1672038e-05
-1.8114716e-06
6.2688199e-05
-3.2043288e-06
6.4879796e-05
-4.8264766e-06
6.8504499e-05
-6.6925228e-06
7.3695772e-05
-8.5422759e-06
7.9703785e-05
-9.1923787e-06
8.2073484e-05
-4.1398079e-06
8.2563926e-05
-8.8027561e-07
8.1839003e-05
1.5628254e-06
7.9935239e-05
3.7682039e-06
7.6557902e-05
6.0999031e-06
7.257737e-05
7.1118987e-06
6.8646275e-05
7.0448302e-06
6.5149459e-05
6.3146584e-06
6.2261781e-05
5.2664654e-06
6.0013023e-05
4.1392198e-06
5.8337768e-05
3.0821054e-06
5.7136177e-05
2.1720546e-06
5.6300206e-05
1.4450094e-06
5.5727279e-05
9.0964203e-07
5.5329853e-05
5.4981679e-07
5.5034045e-05
3.3635711e-07
2.3987017e-07
7.6485235e-05
4.3914689e-06
6.5151823e-07
7.2787527e-05
4.7749661e-06
1.0484049e-06
6.9578331e-05
4.2670931e-06
1.1392168e-06
6.6867494e-05
3.6466542e-06
9.4184223e-07
6.4677613e-05
2.9801364e-06
4.7016829e-07
6.3037149e-05
2.3243857e-06
-2.5408808e-07
6.1929818e-05
1.7218487e-06
-1.2148584e-06
6.1426752e-05
1.1901221e-06
-2.4985282e-06
6.1736354e-05
7.0634759e-07
-4.2202792e-06
6.3274513e-05
2.2372499e-07
-6.5883617e-06
6.6770467e-05
-2.8153961e-07
-9.9069375e-06
7.3268922e-05
-7.8666225e-07
-1.425407e-05
8.3093943e-05
-1.0082038e-06
-1.8009197e-05
8.6778286e-05
-3.1752285e-07
-7.5066288e-06
8.7808971e-05
2.9878005e-07
-2.2097413e-06
8.7333492e-05
8.015653e-07
1.2367388e-06
8.5285715e-05
1.1833039e-06
4.6326767e-06
7.9907803e-05
1.4735662e-06
1.000425e-05
7.4429193e-05
1.4987461e-06
1.1091765e-05
6.9611851e-05
1.272538e-06
1.0589637e-05
6.5845788e-05
9.1841231e-07
9.1623121e-06
6.3131976e-05
5.4053861e-07
7.4397417e-06
6.1303014e-05
2.0351073e-07
5.764674e-06
6.0139756e-05
-4.6232104e-08
4.2915974e-06
5.9425815e-05
-1.8411193e-07
3.0701085e-06
5.8984018e-05
-2.1972821e-07
2.1065339e-06
5.8699508e-05
-1.9121515e-07
1.385367e-06
5.8505572e-05
-1.3297087e-07
8.7672125e-07
5.8363285e-05
-6.4291178e-08
5.4293393e-07
1.2125985e-08
3.5032994e-07
8.3579439e-05
1.7900091e-06
7.4667623e-07
8.754062e-05
2.0835618e-06
1.2754123e-06
9.1142706e-05
1.9408359e-06
1.480385e-06
9.4281328e-05
1.703802e-06
1.3833676e-06
9.6927351e-05
1.4186951e-06
9.8771507e-07
9.9129753e-05
1.1195483e-06
2.7358033e-07
0.00010098417
8.3273998e-07
-7.576514e-07
0.0001026026
5.7270455e-07
-2.1995997e-06
0.000104271
3.3721251e-07
-4.2187698e-06
0.00010644446
1.1022969e-07
-7.0835055e-06
0.00010993652
-1.3633331e-07
-1.1202678e-05
0.00011612592
-3.949933e-07
-1.6972429e-05
0.00012661337
-5.5029921e-07
-2.3292954e-05
0.0001320671
-2.7042859e-07
-1.3638237e-05
0.00013539957
5.4996315e-08
-7.9746356e-06
0.00013774259
3.0811806e-07
-3.8503769e-06
0.00013863534
5.21152e-07
7.2788526e-07
0.00013581111
6.7434233e-07
7.7827352e-06
0.00013210197
7.1741778e-07
1.0915078e-05
0.00012813645
6.3866989e-07
1.2219371e-05
0.00012427722
4.8627707e-07
1.2308877e-05
0.0001207047
3.0753965e-07
1.1621134e-05
0.00011747146
1.3734654e-07
1.0495089e-05
0.00011459937
3.2460827e-09
9.1245007e-06
0.00011212277
-8.7095659e-08
7.6532683e-06
0.00011006288
-1.2011857e-07
6.194816e-06
0.00010842231
-1.1554423e-07
4.8392633e-06
0.00010718008
-8.8494528e-08
3.6493094e-06
0.00010630571
-4.9817059e-08
2.65631e-06
-3.8333517e-09
1.8879381e-06
8.456578e-05
-1.7900089e-06
7.6246347e-07
9.0020893e-05
-2.0835611e-06
1.3124989e-06
9.5206298e-05
-1.9408342e-06
1.5399121e-06
9.9848521e-05
-1.703799e-06
1.4707598e-06
0.00010381664
-1.4186912e-06
1.1080534e-06
0.00010709711
-1.1195444e-06
4.3151267e-07
0.00010976701
-8.3273699e-07
-5.7272977e-07
0.00011194596
-5.7270333e-07
-1.975451e-06
0.00011391441
-3.3721335e-07
-3.9475113e-06
0.00011614234
-1.1023227e-07
-6.7531409e-06
0.00011941612
1.3632936e-07
-1.0830603e-05
0.00012511565
3.9498894e-07
-1.6650445e-05
0.00013506269
5.5029479e-07
-2.333865e-05
0.00014034142
2.7042429e-07
-1.4346202e-05
0.00014394666
-5.5000053e-08
-9.1294929e-06
0.00014685836
-3.0812229e-07
-5.2943604e-06
0.00014861081
-5.2115712e-07
-8.0416481e-07
0.00014682071
-6.7434916e-07
6.2106239e-06
0.00014407061
-7.1742702e-07
9.6333468e-06
0.00014084515
-6.3868194e-07
1.1370709e-05
0.00013741824
-4.8629183e-07
1.1961717e-05
0.00013396499
-3.0755634e-07
1.1750243e-05
0.00013058317
-1.3736363e-07
1.102215e-05
0.00012736538
-3.260209e-09
9.9462667e-06
0.00012440862
8.7082095e-08
8.6474575e-06
0.00012182692
1.2010854e-07
7.2453949e-06
0.00011968839
1.1553717e-07
5.8483214e-06
0.00011802172
8.8489731e-08
4.5468201e-06
0.00011682925
4.9813627e-08
3.402099e-06
3.8306496e-09
2.4708293e-06
8.3579439e-05
-4.3914688e-06
7.4667622e-07
8.754062e-05
-4.7749658e-06
1.2754123e-06
9.1142707e-05
-4.2670923e-06
1.4803849e-06
9.4281331e-05
-3.6466527e-06
1.3833675e-06
9.6927356e-05
-2.9801344e-06
9.8771498e-07
9.912976e-05
-2.3243837e-06
2.7358035e-07
0.00010098418
-1.7218472e-06
-7.576512e-07
0.00010260261
-1.1901215e-06
-2.1995992e-06
0.00010427101
-7.063482e-07
-4.2187691e-06
0.00010644447
-2.2372662e-07
-7.0835046e-06
0.00010993652
2.8153734e-07
-1.1202677e-05
0.00011612592
7.8665993e-07
-1.6972428e-05
0.00012661338
1.0082017e-06
-2.3292953e-05
0.0001320671
3.1752112e-07
-1.3638237e-05
0.00013539957
-2.9878165e-07
-7.9746355e-06
0.00013774258
-8.0156691e-07
-3.850377e-06
0.00013863533
-1.1833058e-06
7.2788436e-07
0.00013581111
-1.4735688e-06
7.7827326e-06
0.00013210196
-1.4987498e-06
1.0915074e-05
0.00012813644
-1.2725432e-06
1.2219364e-05
0.00012427721
-9.1841918e-07
1.2308869e-05
0.00012070469
-5.4054722e-07
1.1621124e-05
0.00011747144
-2.0352043e-07
1.0495079e-05
0.00011459935
4.6222977e-08
9.1244905e-06
0.00011212276
1.8410453e-07
7.6532589e-06
0.00011006286
2.197231e-07
6.1948083e-06
0.0001084223
1.9121195e-07
4.8392576e-06
0.00010718007
1.3296898e-07
3.6493058e-06
0.0001063057
6.4290034e-08
2.6563081e-06
-1.2127022e-08
1.8879375e-06
7.6485235e-05
6.5151822e-07
7.2787527e-05
1.0484049e-06
6.9578332e-05
1.1392167e-06
6.6867497e-05
9.4184211e-07
6.4677618e-05
4.7016822e-07
6.3037156e-05
-2.54088e-07
6.1929827e-05
-1.214858e-06
6.1426762e-05
-2.4985277e-06
6.1736363e-05
-4.2202785e-06
6.3274521e-05
-6.5883608e-06
6.6770472e-05
-9.9069364e-06
7.3268925e-05
-1.4254069e-05
8.3093945e-05
-1.8009197e-05
8.6778286e-05
-7.5066284e-06
8.780897e-05
-2.2097412e-06
8.7333491e-05
1.2367384e-06
8.5285713e-05
4.6326753e-06
7.9907802e-05
1.0004246e-05
7.4429192e-05
1.1091759e-05
6.961185e-05
1.0589629e-05
6.5845787e-05
9.1623031e-06
6.3131972e-05
7.4397324e-06
6.1303007e-05
5.7646652e-06
6.0139746e-05
4.2915894e-06
5.9425803e-05
3.070102e-06
5.8984006e-05
2.1065294e-06
5.8699495e-05
1.3853645e-06
5.850556e-05
8.7672044e-07
5.8363273e-05
5.4293423e-07
3.5033088e-07
7.6008314e-05
4.3968657e-06
2.4633824e-07
7.1852447e-05
4.7941774e-06
4.1009451e-07
6.8287233e-05
4.277445e-06
4.2698626e-07
6.52992e-05
3.6397467e-06
2.9012836e-07
6.2816208e-05
2.9562292e-06
-3.0684313e-09
6.079757e-05
2.2898038e-06
-5.2525474e-07
5.9200783e-05
1.6756336e-06
-1.2937048e-06
5.8040999e-05
1.1041999e-06
-2.4429435e-06
5.7505897e-05
5.2146921e-07
-4.206647e-06
5.8108942e-05
-1.454069e-07
-7.0460001e-06
6.0988845e-05
-9.7981841e-07
-1.1807021e-05
6.8236381e-05
-1.9488555e-06
-1.9552751e-05
7.9391522e-05
-1.7286511e-06
-2.7435687e-05
6.9262268e-05
2.6226248e-06
6.3530861e-05
3.5216654e-06
6.1506747e-05
3.2608531e-06
6.2842819e-05
3.296605e-06
5.7672456e-05
3.6710812e-06
1.1503532e-05
5.4145617e-05
3.2847486e-06
1.1333855e-05
5.2027204e-05
2.4876304e-06
1.022042e-05
5.1559057e-05
1.6075488e-06
8.0229102e-06
5.2052488e-05
8.225253e-07
6.1237852e-06
5.3078395e-05
2.0459447e-07
4.5341724e-06
5.4302032e-05
-1.9609488e-07
3.2640558e-06
5.5480689e-05
-3.9391549e-07
2.2853668e-06
5.6467063e-05
-4.3082917e-07
1.5509892e-06
5.7213314e-05
-3.7732254e-07
1.0164387e-06
5.7736186e-05
-2.9003619e-07
6.4388532e-07
5.8084879e-05
-2.0514399e-07
3.9938476e-07
-1.4974101e-07
2.5387889e-07
8.3066771e-05
1.7914724e-06
2.8529893e-07
8.6537986e-05
2.0932507e-06
5.0512371e-07
8.9773353e-05
1.9477542e-06
5.7470883e-07
9.2611116e-05
1.7031525e-06
4.8219912e-07
9.4933021e-05
1.4095181e-06
2.1252112e-07
9.6676238e-05
1.1034197e-06
-2.8325281e-07
9.7871194e-05
8.0939694e-07
-1.0863713e-06
9.8577115e-05
5.3156924e-07
-2.3328892e-06
9.8936158e-05
2.5446085e-07
-4.3108051e-06
9.9329137e-05
-6.121683e-08
-7.5606741e-06
0.00010075796
-4.5356986e-07
-1.3157753e-05
0.00010571043
-9.7996586e-07
-2.2893787e-05
0.00011717629
-1.0949123e-06
-3.5392556e-05
0.00010516755
9.9313755e-07
9.9043004e-05
1.6715712e-06
9.6824921e-05
1.6285589e-06
9.9208811e-05
1.6406005e-06
9.6595819e-05
1.8058734e-06
1.2260935e-05
9.5843151e-05
1.6924355e-06
1.3260059e-05
9.5821393e-05
1.3383674e-06
1.3390393e-05
9.6680047e-05
9.1373548e-07
1.2144036e-05
9.7925378e-05
5.1285974e-07
1.0685469e-05
9.9235534e-05
1.8329383e-07
9.206234e-06
0.00010045132
-5.1319738e-08
7.76394e-06
0.00010150699
-1.8346243e-07
6.3871496e-06
0.00010239162
-2.3023404e-07
5.1095817e-06
0.00010310815
-2.1972373e-07
3.9651418e-06
0.000103669
-1.8026276e-07
2.9786859e-06
0.00010409483
-1.3385408e-07
2.1591883e-06
-9.6340295e-08
1.5155815e-06
8.4052585e-05
-1.7914722e-06
2.9282303e-07
8.9028945e-05
-2.09325e-06
5.2263995e-07
9.3861164e-05
-1.9477526e-06
6.0319945e-07
9.8213503e-05
-1.7031497e-06
5.2472367e-07
0.00010186857
-1.4095145e-06
2.7201526e-07
0.00010470451
-1.103416e-06
-1.9758759e-07
0.00010672663
-8.0939419e-07
-9.7605937e-07
0.00010800295
-5.3156823e-07
-2.1886366e-06
0.00010868216
-2.5446186e-07
-4.1177927e-06
0.00010911124
6.1213901e-08
-7.3046572e-06
0.00011023604
4.5356581e-07
-1.2862539e-05
0.00011433465
9.7996116e-07
-2.2708974e-05
0.00012486969
1.0949076e-06
-3.6063512e-05
0.00011250977
-9.9314176e-07
0.00010672342
-1.6715756e-06
0.00010468618
-1.6285639e-06
0.00010716322
-1.6406072e-06
0.00010532698
-1.8058843e-06
1.1658625e-05
0.00010547895
-1.6924508e-06
1.2866267e-05
0.00010618583
-1.3383856e-06
1.3340581e-05
0.00010748933
-9.1375507e-07
1.2485701e-05
0.00010890927
-5.128789e-07
1.1356042e-05
0.00011018819
-1.8331092e-07
1.0109841e-05
0.00011123153
5.1305614e-08
8.8002964e-06
0.00011204776
1.8345204e-07
7.4643114e-06
0.00011268322
2.3022688e-07
6.1494786e-06
0.00011318417
2.1971902e-07
4.9079246e-06
0.00011358485
1.8025963e-07
3.7856259e-06
0.0001139079
1.3385178e-07
2.8113401e-06
9.6338301e-08
2.0125726e-06
8.3066771e-05
-4.3968656e-06
2.8529892e-07
8.6537986e-05
-4.7941771e-06
5.0512366e-07
8.9773354e-05
-4.2774442e-06
5.7470872e-07
9.2611118e-05
-3.6397453e-06
4.8219895e-07
9.4933025e-05
-2.9562273e-06
2.1252095e-07
9.6676244e-05
-2.2898019e-06
-2.8325291e-07
9.7871202e-05
-1.6756322e-06
-1.0863712e-06
9.8577123e-05
-1.1041995e-06
-2.3328889e-06
9.8936167e-05
-5.2146996e-07
-4.3108046e-06
9.9329144e-05
1.4540509e-07
-7.5606734e-06
0.00010075797
9.7981612e-07
-1.3157752e-05
0.00010571044
1.9488531e-06
-2.2893786e-05
0.0001171763
1.728649e-06
-3.5392556e-05
0.00010516755
-2.6226266e-06
9.9043001e-05
-3.5216672e-06
9.6824915e-05
-3.2608549e-06
9.92088e-05
-3.2966073e-06
9.6595803e-05
-3.6710849e-06
1.226093e-05
9.5843134e-05
-3.2847537e-06
1.3260046e-05
9.5821374e-05
-2.4876368e-06
1.3390375e-05
9.6680029e-05
-1.6075561e-06
1.2144014e-05
9.7925362e-05
-8.2253331e-07
1.0685446e-05
9.923552e-05
-2.0460244e-07
9.2062118e-06
0.00010045131
1.9608777e-07
7.7639199e-06
0.00010150698
3.9391037e-07
6.3871327e-06
0.00010239162
4.3082585e-07
5.1095686e-06
0.00010310814
3.7732049e-07
3.9651325e-06
0.00010366899
2.9003491e-07
2.9786801e-06
0.00010409482
2.0514309e-07
2.1591851e-06
1.4974017e-07
1.5155803e-06
7.6008314e-05
2.4633823e-07
7.1852448e-05
4.1009446e-07
6.8287234e-05
4.2698613e-07
6.5299203e-05
2.9012818e-07
6.2816212e-05
-3.0687016e-09
6.0797577e-05
-5.252548e-07
5.9200792e-05
-1.2937046e-06
5.8041008e-05
-2.4429432e-06
5.7505906e-05
-4.2066465e-06
5.8108949e-05
-7.0459994e-06
6.0988849e-05
-1.1807021e-05
6.8236383e-05
-1.955275e-05
7.9391523e-05
-2.7435687e-05
6.9262268e-05
6.353086e-05
6.1506743e-05
6.2842811e-05
5.7672447e-05
1.1503525e-05
5.414561e-05
1.1333842e-05
5.20272e-05
1.0220402e-05
5.1559054e-05
8.0228922e-06
5.2052486e-05
6.1237679e-06
5.3078391e-05
4.534157e-06
5.4302026e-05
3.2640428e-06
5.5480681e-05
2.2853567e-06
5.6467054e-05
1.5509824e-06
5.7213305e-05
1.0164348e-06
5.7736176e-05
6.4388382e-07
5.8084869e-05
3.9938485e-07
2.5387987e-07
7.5842856e-05
4.4034822e-06
2.0208811e-14
7.1444251e-05
4.8086992e-06
6.5282511e-13
6.7574841e-05
4.2963942e-06
2.1103181e-12
6.4207003e-05
3.657962e-06
4.0914774e-12
6.1234533e-05
2.9693963e-06
5.7111415e-12
5.8427973e-05
2.2812994e-06
5.698764e-12
5.5505072e-05
1.6291911e-06
4.3541612e-12
5.2088558e-05
9.7356859e-07
2.1361078e-12
4.7703677e-05
1.7823403e-07
-1.689675e-13
4.1605421e-05
-9.4774161e-07
-2.0749552e-12
3.2590659e-05
-2.7922565e-06
-3.3114366e-12
1.8771126e-05
-5.7332136e-06
-3.8895578e-12
-8.664558e-06
-3.2935486e-12
5.9434943e-06
5.5600337e-06
3.780587e-12
1.397848e-05
3.2988637e-06
5.6167613e-12
2.2526124e-05
1.6727709e-06
5.2680209e-12
3.0272968e-05
2.7606201e-07
4.2543111e-12
3.7095227e-05
-6.9847687e-07
3.1077056e-12
4.283092e-05
-1.2015228e-06
1.7866912e-12
4.7449059e-05
-1.3540835e-06
4.4203815e-13
5.1018374e-05
-1.2839471e-06
-9.3037259e-13
5.3659799e-05
-1.0904333e-06
-2.4699401e-12
5.5529038e-05
-8.5279595e-07
-4.1222145e-12
5.6803364e-05
-6.304357e-07
-5.8129583e-12
5.7666831e-05
-4.6407401e-07
-7.4920572e-12
-4.0853954e-07
-8.89723e-12
8.2894549e-05
1.7942316e-06
1.1601547e-13
8.6107706e-05
2.1006656e-06
1.0765821e-12
8.9020824e-05
1.9579815e-06
3.122818e-12
9.1447775e-05
1.7132043e-06
5.9488293e-12
9.3213395e-05
1.4162888e-06
8.6179676e-12
9.4112079e-05
1.0993526e-06
9.9271853e-12
9.3868378e-05
7.8651161e-07
9.1961861e-12
9.2039784e-05
4.6926708e-07
6.5182155e-12
8.780861e-05
9.8600546e-08
2.6664189e-12
7.9743619e-05
-4.4342414e-07
-1.4131659e-12
6.5127566e-05
-1.3339511e-06
-4.7954647e-12
3.9386704e-05
-2.8861311e-06
-6.5806799e-12
-4.6704046e-06
-5.6577052e-12
1.4928271e-05
2.8926939e-06
4.3424117e-12
2.9672138e-05
1.8150509e-06
4.8213703e-12
4.3789217e-05
9.4608085e-07
3.0856653e-12
5.5954639e-05
2.5467476e-07
9.1038025e-13
6.6213392e-05
-2.717595e-07
-1.0309593e-12
7.4791254e-05
-5.7314821e-07
-2.5760362e-12
8.1899183e-05
-6.9806841e-07
-3.951648e-12
8.7702696e-05
-7.0030505e-07
-5.3225871e-12
9.2347161e-05
-6.2531036e-07
-6.8428354e-12
9.597194e-05
-5.1242419e-07
-8.6537349e-12
9.871469e-05
-3.9448925e-07
-1.0849965e-11
0.00010070802
-2.9820234e-07
-1.3432421e-11
-2.5136058e-07
-1.6013156e-11
8.3881286e-05
-1.7942315e-06
1.3631975e-13
8.8605255e-05
-2.100665e-06
1.164088e-12
9.3124413e-05
-1.95798e-06
3.3031859e-12
9.7075536e-05
-1.7132017e-06
6.2555151e-12
0.00010018012
-1.4162855e-06
9.125903e-12
0.00010218122
-1.0993493e-06
1.0726067e-11
0.00010277817
-7.8650918e-07
1.0259843e-11
0.00010152806
-4.6926636e-07
7.6802967e-12
9.7607467e-05
-9.8601842e-08
3.6044995e-12
8.9415966e-05
4.4342082e-07
-9.5807271e-13
7.3885534e-05
1.3339464e-06
-4.9846618e-12
4.540431e-05
2.8861256e-06
-7.2915078e-12
4.6704e-06
-6.433737e-12
1.7444022e-05
-2.8927056e-06
2.6379745e-12
3.3940396e-05
-1.8150539e-06
-1.7924644e-12
4.9173142e-05
-9.4607769e-07
-6.7511622e-12
6.2168196e-05
-2.5466791e-07
-1.0853024e-11
7.2980724e-05
2.7176846e-07
-1.3639952e-11
8.1944274e-05
5.7315777e-07
-1.5045498e-11
8.934844e-05
6.9807751e-07
-1.5362179e-11
9.5412148e-05
7.0031287e-07
-1.5055013e-11
0.00010031101
6.253164e-07
-1.4637284e-11
0.0001041941
5.1242832e-07
-1.4572893e-11
0.00010719076
3.9449168e-07
-1.5193514e-11
0.00010940571
2.9820347e-07
-1.6632461e-11
2.5136089e-07
-1.8543908e-11
8.2894549e-05
-4.4034821e-06
1.0105901e-13
8.6107706e-05
-4.8086989e-06
1.0126733e-12
8.9020825e-05
-4.2963934e-06
2.9741924e-12
9.1447777e-05
-3.6579607e-06
5.7102908e-12
9.3213399e-05
-2.9693945e-06
8.3368116e-12
9.4112085e-05
-2.2812977e-06
9.6910022e-12
9.3868385e-05
-1.6291898e-06
9.0826284e-12
9.2039792e-05
-9.7356832e-07
6.5577747e-12
8.7808617e-05
-1.7823495e-07
2.8317433e-12
7.9743626e-05
9.477396e-07
-1.1736745e-12
6.5127572e-05
2.7922539e-06
-4.5394534e-12
3.9386707e-05
5.7332109e-06
-6.3316972e-12
8.664556e-06
-5.4440382e-12
1.4928259e-05
-5.5600364e-06
1.1183493e-12
2.9672121e-05
-3.2988625e-06
-6.8054437e-12
4.37892e-05
-1.6727673e-06
-1.4118422e-11
5.5954622e-05
-2.7605745e-07
-1.9135186e-11
6.6213378e-05
6.9848146e-07
-2.1789891e-11
7.4791243e-05
1.2015267e-06
-2.2291706e-11
8.1899175e-05
1.3540867e-06
-2.119214e-11
8.770269e-05
1.2839495e-06
-1.9197133e-11
9.2347157e-05
1.0904349e-06
-1.7046644e-11
9.5971937e-05
8.5279681e-07
-1.5375502e-11
9.8714687e-05
6.3043604e-07
-1.4620913e-11
0.00010070802
4.6407404e-07
-1.4961997e-11
4.0853941e-07
-1.6079873e-11
7.5842856e-05
4.0851836e-15
7.1444251e-05
5.8490917e-13
6.7574842e-05
1.9408601e-12
6.4207005e-05
3.8122024e-12
6.1234537e-05
5.3862433e-12
5.8427979e-05
5.4571491e-12
5.550508e-05
4.2682557e-12
5.2088567e-05
2.2124442e-12
4.7703685e-05
3.709758e-14
4.1605427e-05
-1.8368474e-12
3.2590664e-05
-3.0938366e-12
1.8771128e-05
-3.682417e-12
-3.0979996e-12
5.9434882e-06
5.1796033e-13
1.3978473e-05
-5.5552479e-12
2.2526118e-05
-9.8385265e-12
3.0272964e-05
-1.1638206e-11
3.7095225e-05
-1.1766929e-11
4.283092e-05
-1.0790316e-11
4.7449059e-05
-9.3011536e-12
5.1018373e-05
-7.6900853e-12
5.3659796e-05
-6.2917732e-12
5.5529033e-05
-5.4154203e-12
5.6803358e-05
-5.2629986e-12
5.7666823e-05
-5.8671613e-12
-6.8969912e-12
7.5842856e-05
4.4034821e-06
-2.4633821e-07
7.1444251e-05
4.8086991e-06
-4.1009336e-07
6.7574842e-05
4.2963939e-06
-4.2698256e-07
6.4207006e-05
3.6579615e-06
-2.9012138e-07
6.1234533e-05
2.9693951e-06
3.0829784e-09
5.8427975e-05
2.2812991e-06
5.2526523e-07
5.5505075e-05
1.6291911e-06
1.293713e-06
5.208856e-05
9.7356886e-07
2.4429478e-06
4.7703679e-05
1.7823438e-07
4.2066471e-06
4.1605421e-05
-9.4774137e-07
7.0459968e-06
3.2590659e-05
-2.7922567e-06
1.1807016e-05
1.8771125e-05
-5.7332147e-06
1.9552745e-05
-8.6645598e-06
2.7435682e-05
5.9434911e-06
5.5600415e-06
-1.1503529e-05
1.3978476e-05
3.2988726e-06
-1.1333852e-05
2.2526119e-05
1.6727791e-06
-1.0220417e-05
3.0272963e-05
2.760693e-07
-8.0229086e-06
3.7095221e-05
-6.9847082e-07
-6.1237846e-06
4.2830915e-05
-1.2015186e-06
-4.5341732e-06
4.7449054e-05