/*--------------------------------*- C++ -*----------------------------------*\
| =========                 |                                                 |
| \\      /  F ield         | OpenFOAM: The Open Source CFD Toolbox           |
|  \\    /   O peration     | Version:  2412                                  |
|   \\  /    A nd           | Website:  www.openfoam.com                      |
|    \\/     M anipulation  |                                                 |
\*---------------------------------------------------------------------------*/
FoamFile
{
    version     2.0;
    format      ascii;
    arch        "LSB;label=32;scalar=64";
    class       volScalarField;
    location    "40/bottomWater";
    object      T;
}
// * * * * * * * * * * * * * * * * * * * * * * * * * * * * * * * * * * * * * //

dimensions      [0 0 0 1 0 0 0];

internalField   nonuniform List<scalar> 
1460
(
300
300
300
300
300
299.99999
299.99999
299.99999
299.99999
300
300
300.00025
300.00369
300.00488
300.0036
300.00239
300.00152
300.00093
300.00054
300.0003
300.00016
300.00008
300.00004
300.00002
300.00001
300
300
300
300
300
300
300
300
300
300
300
300
300
300
300
300
300.0001
300.00209
300.0043
300.00506
300.00418
300.00297
300.00202
300.0013
300.0008
300.00046
300.00026
300.00013
300.00007
300.00003
300.00001
300.00001
300
300
300
300
300
300
300
300
300
300
300
300
300
300
300.00005
300.00119
300.00265
300.00338
300.00305
300.00221
300.00152
300.00101
300.00064
300.00038
300.00022
300.00012
300.00007
300.00003
300.00002
300.00001
300
300
300
300
300
300
300
300
300
300
300
300
300
300
300.00004
300.00096
300.00381
300.006
300.00688
300.0069
300.00642
300.00558
300.00455
300.00349
300.00253
300.00173
300.00113
300.00071
300.00043
300.00026
300.00015
300.00009
300.00005
300
300
300.00001
300.00001
300.00002
300.00002
300.00004
300.00006
300.00009
300.00013
300.00017
300.00031
300.00445
300.23002
300.33537
300.36809
300.35655
300.31867
300.26684
300.21079
300.15793
300.11287
300.07742
300.05126
300.03294
300.02063
300.01269
300.00776
300.00489
300.00344
300
300
300
300
300
299.99999
299.99999
299.99999
299.99999
300
300.00014
300.00469
300.08118
300.10957
300.09413
300.07014
300.05017
300.03435
300.02242
300.01391
300.00819
300.00455
300.00239
300.00117
300.00054
300.00023
300.00009
300.00004
300.00001
300
300
300
300
300
300
300
300
300
300
300
300.00004
300.00169
300.04061
300.07856
300.09962
300.09688
300.07853
300.06063
300.0445
300.03103
300.02054
300.0129
300.00769
300.00435
300.00234
300.00119
300.00058
300.00027
300.00012
300.00005
300
300
300
300
300
300
300
300
300
300
300.00002
300.0009
300.02408
300.04936
300.06654
300.06942
300.05689
300.04427
300.03276
300.02302
300.01535
300.0097
300.00581
300.0033
300.00178
300.00091
300.00044
300.00021
300.00009
300.00004
300
300
300
300
300
300
300
300
300
300
300.00002
300.00074
300.01944
300.03841
300.04924
300.04889
300.04134
300.03373
300.02643
300.01976
300.01404
300.00947
300.00608
300.00376
300.00224
300.00129
300.00072
300.0004
300.00022
300.00012
300
300.00001
300.00001
300.00001
300.00002
300.00003
300.00005
300.00008
300.00012
300.00018
300.00028
300.00116
300.02025
300.29624
300.45217
300.52082
300.5254
300.48356
300.41294
300.33013
300.24871
300.17767
300.12115
300.07937
300.05029
300.031
300.01872
300.0112
300.00683
300.00454
300
300
300
300
300
299.99999
299.99999
299.99999
300
300.00002
300.00118
300.04185
300.86219
301.21477
301.23081
301.04134
300.85998
300.66822
300.48555
300.32954
300.20853
300.12292
300.06749
300.0346
300.01659
300.00744
300.00312
300.00123
300.00046
300.00016
300
300
300
300
300
300
300
300
300
300
300.00032
300.01499
300.43029
300.7695
301.00469
301.08606
300.9631
300.8102
300.64549
300.48778
300.34995
300.23847
300.15435
300.09477
300.05512
300.03035
300.01582
300.00781
300.00365
300.00163
300
300
300
300
300
300
300
300
300
300
300.00016
300.00849
300.27175
300.50618
300.68567
300.77545
300.70587
300.58982
300.46922
300.35529
300.25574
300.17479
300.11332
300.06963
300.04051
300.02231
300.01163
300.00575
300.00269
300.0012
300
300
300
300
300
300
300
300
300
300
300.00014
300.00702
300.2209
300.38886
300.49587
300.52231
300.4496
300.36817
300.2854
300.2091
300.14466
300.0945
300.05835
300.03416
300.01902
300.01009
300.0051
300.00247
300.00115
300.00053
300
300.00001
300.00001
300.00002
300.00003
300.00004
300.00007
300.00012
300.00019
300.00031
300.00066
300.00858
300.20485
300.72312
300.99089
301.07149
301.04959
300.93878
300.77576
300.5976
300.43261
300.2968
300.19463
300.1229
300.07526
300.04499
300.02642
300.0154
300.00913
300.00589
300
300
300
300
299.99999
299.99999
299.99999
299.99999
300
300.00011
300.0054
300.20255
304.89134
307.37808
309.88922
311.97879
313.02468
309.81557
306.75925
304.34592
302.62888
301.50502
300.81675
300.42082
300.20545
300.09468
300.04106
300.01674
300.00642
300.00234
300
300
300
300
300
300
300
299.99999
300
300.00002
300.00153
300.07614
302.58497
304.30917
306.11835
307.80708
309.11069
307.71764
306.04927
304.48248
303.17237
302.15723
301.41101
300.8853
300.53126
300.3042
300.16583
300.0859
300.04223
300.01977
300
300
300
300
300
300
300
300
300
300.00001
300.00083
300.04575
301.73586
302.96913
304.22534
305.38133
306.31908
305.35785
304.21686
303.14018
302.23074
301.51884
300.99222
300.62132
300.37227
300.21301
300.11619
300.06033
300.02979
300.01404
300
300
300
300
300
300
300
300
300
300.00001
300.0007
300.03791
301.40753
302.33261
303.24577
304.03778
304.58613
303.64027
302.67191
301.85465
301.22954
300.78301
300.47954
300.28213
300.15917
300.08588
300.04422
300.0217
300.01014
300.00454
300
300.00001
300.00001
300.00002
300.00003
300.00006
300.0001
300.00017
300.00029
300.0005
300.00174
300.04491
301.30915
302.78261
303.9812
304.6982
304.81824
303.5006
302.33667
301.47646
300.89988
300.5375
300.31727
300.1858
300.10787
300.06198
300.03529
300.02004
300.01161
300.00731
300
300
300
300
299.99999
299.99999
299.99999
299.99999
300
300.00032
300.01528
300.60508
318.37962
327.2135
307.94635
303.52223
301.77523
300.92304
300.47657
300.2396
300.11591
300.05352
300.02345
300.00972
300.00381
300.00143
300
300
300
300
300
300
300
299.99999
300
300.00007
300.00455
300.24163
310.35879
320.93403
308.33299
304.40773
302.5913
301.56605
300.94233
300.55565
300.31802
300.17557
300.09309
300.04727
300.02294
300.01067
300
300
300
300
300
300
300
300
300
300.00003
300.00257
300.15211
307.30722
314.56818
305.88749
303.1102
301.81318
301.08896
300.6525
300.38354
300.21896
300.12064
300.06389
300.03244
300.01577
300.00735
300
300
300
300
300
300
300
300
300
300.00004
300.00215
300.12611
305.91489
309.76677
303.41653
301.65287
300.90193
300.5117
300.291
300.16268
300.08843
300.04644
300.02347
300.0114
300.00532
300.0024
300
300.00001
300.00001
300.00002
300.00004
300.00007
300.00012
300.00021
300.00037
300.0007
300.00407
300.14733
305.54747
308.07641
302.48487
301.25816
300.73757
300.45191
300.27955
300.17206
300.10456
300.06251
300.03676
300.0214
300.01262
300.00803
300
300
300
300
299.99999
299.99999
299.99999
299.99999
300
300.00032
300.01528
300.60507
318.3796
327.2135
307.94634
303.52223
301.77523
300.92304
300.47657
300.2396
300.11591
300.05352
300.02345
300.00972
300.00381
300.00143
300
300
300
300
300
300
300
299.99999
300
300.00007
300.00455
300.24163
310.35877
320.93404
308.333
304.40773
302.59131
301.56606
300.94234
300.55566
300.31802
300.17557
300.0931
300.04728
300.02294
300.01067
300
300
300
300
300
300
300
300
300
300.00003
300.00257
300.15211
307.30721
314.56821
305.88752
303.11022
301.81319
301.08897
300.65251
300.38355
300.21896
300.12065
300.0639
300.03244
300.01577
300.00735
300
300
300
300
300
300
300
300
300
300.00004
300.00215
300.12611
305.91488
309.76681
303.41656
301.65289
300.90194
300.51171
300.29101
300.16268
300.08843
300.04644
300.02347
300.0114
300.00532
300.0024
300
300.00001
300.00001
300.00002
300.00004
300.00007
300.00012
300.00021
300.00037
300.0007
300.00407
300.14733
305.54746
308.07645
302.4849
301.25817
300.73758
300.45191
300.27955
300.17206
300.10457
300.06251
300.03676
300.0214
300.01262
300.00803
300
300
300
300
299.99999
299.99999
299.99999
299.99999
300
300.00011
300.0054
300.20255
304.89134
307.37807
309.8892
311.97877
313.02467
309.81556
306.75924
304.34592
302.62888
301.50502
300.81675
300.42082
300.20545
300.09468
300.04106
300.01674
300.00642
300.00234
300
300
300
300
300
300
300
299.99999
300
300.00002
300.00153
300.07614
302.58496
304.30917
306.11834
307.80707
309.11067
307.71763
306.04926
304.48248
303.17236
302.15723
301.41101
300.8853
300.53126
300.3042
300.16583
300.0859
300.04223
300.01977
300
300
300
300
300
300
300
300
300
300.00001
300.00083
300.04575
301.73585
302.96912
304.22533
305.38132
306.31907
305.35784
304.21686
303.14018
302.23074
301.51885
300.99222
300.62133
300.37228
300.21301
300.11619
300.06033
300.02979
300.01404
300
300
300
300
300
300
300
300
300
300.00001
300.0007
300.03791
301.40753
302.33261
303.24576
304.03777
304.58613
303.64027
302.67192
301.85465
301.22955
300.78301
300.47955
300.28213
300.15917
300.08589
300.04422
300.0217
300.01014
300.00454
300
300.00001
300.00001
300.00002
300.00003
300.00006
300.0001
300.00017
300.00029
300.0005
300.00174
300.04491
301.30915
302.7826
303.9812
304.6982
304.81825
303.50062
302.33668
301.47648
300.89989
300.53751
300.31727
300.18581
300.10787
300.06199
300.03529
300.02004
300.01161
300.00731
300
300
300
300
299.99999
299.99999
299.99999
299.99999
299.99999
300.00002
300.00118
300.04185
300.86219
301.21477
301.23081
301.04133
300.85997
300.66822
300.48555
300.32954
300.20853
300.12292
300.06749
300.0346
300.01659
300.00744
300.00312
300.00123
300.00046
300.00016
300
300
300
300
300
300
300
299.99999
299.99999
300
300.00032
300.01499
300.43029
300.76949
301.00468
301.08606
300.96309
300.81019
300.64549
300.48778
300.34995
300.23847
300.15435
300.09477
300.05512
300.03035
300.01582
300.00781
300.00365
300.00163
300
300
300
300
300
300
300
300
300
300
300.00016
300.00849
300.27175
300.50618
300.68566
300.77545
300.70586
300.58982
300.46922
300.35529
300.25574
300.17479
300.11332
300.06963
300.04051
300.02231
300.01163
300.00575
300.00269
300.0012
300
300
300
300
300
300
300
300
300
300
300.00014
300.00702
300.2209
300.38885
300.49587
300.52231
300.4496
300.36817
300.2854
300.2091
300.14466
300.0945
300.05835
300.03416
300.01902
300.01009
300.0051
300.00247
300.00115
300.00053
300
300.00001
300.00001
300.00002
300.00003
300.00004
300.00007
300.00012
300.00019
300.00031
300.00066
300.00858
300.20485
300.72312
300.99089
301.07149
301.0496
300.93879
300.77577
300.59761
300.43262
300.2968
300.19463
300.12291
300.07527
300.04499
300.02642
300.0154
300.00913
300.00589
300
300
300
300
300
299.99999
299.99999
299.99999
299.99999
300
300.00014
300.00469
300.08118
300.10957
300.09413
300.07014
300.05017
300.03435
300.02242
300.01391
300.00819
300.00455
300.00239
300.00117
300.00054
300.00023
300.00009
300.00004
300.00001
300
300
300
300
300
300
300
300
299.99999
299.99999
300
300.00004
300.00169
300.04061
300.07856
300.09962
300.09688
300.07853
300.06063
300.0445
300.03103
300.02054
300.0129
300.00769
300.00435
300.00234
300.00119
300.00058
300.00027
300.00012
300.00005
300
300
300
300
300
300
300
300
300
300
300.00002
300.0009
300.02408
300.04936
300.06654
300.06942
300.05689
300.04427
300.03276
300.02302
300.01535
300.0097
300.00581
300.0033
300.00178
300.00091
300.00044
300.00021
300.00009
300.00004
300
300
300
300
300
300
300
300
300
300
300.00002
300.00074
300.01944
300.03841
300.04924
300.04889
300.04134
300.03373
300.02643
300.01976
300.01404
300.00947
300.00608
300.00376
300.00224
300.00129
300.00072
300.0004
300.00022
300.00012
300
300.00001
300.00001
300.00001
300.00002
300.00003
300.00005
300.00008
300.00012
300.00018
300.00028
300.00116
300.02025
300.29624
300.45217
300.52082
300.52541
300.48357
300.41295
300.33014
300.24871
300.17768
300.12115
300.07937
300.05029
300.031
300.01872
300.0112
300.00683
300.00454
300
300
300
300
300
299.99999
299.99999
299.99999
299.99999
299.99999
300
300.00025
300.00369
300.00488
300.0036
300.00239
300.00152
300.00093
300.00054
300.0003
300.00016
300.00008
300.00004
300.00002
300.00001
300
300
300
300
300
300
300
300
300
300
300
299.99999
299.99999
299.99999
300
300
300.0001
300.00209
300.0043
300.00506
300.00418
300.00297
300.00202
300.0013
300.0008
300.00046
300.00026
300.00013
300.00007
300.00003
300.00001
300.00001
300
300
300
300
300
300
300
300
300
300
300
300
300
300
300.00005
300.00119
300.00265
300.00338
300.00305
300.00221
300.00152
300.00101
300.00064
300.00038
300.00022
300.00012
300.00007
300.00003
300.00002
300.00001
300
300
300
300
300
300
300
300
300
300
300
300
300
300
300.00004
300.00096
300.00381
300.006
300.00688
300.0069
300.00642
300.00558
300.00455
300.00349
300.00253
300.00173
300.00113
300.00071
300.00043
300.00026
300.00015
300.00009
300.00005
300
300
300.00001
300.00001
300.00002
300.00002
300.00004
300.00006
300.00009
300.00013
300.00017
300.00031
300.00445
300.23002
300.33537
300.36809
300.35655
300.31868
300.26685
300.2108
300.15794
300.11288
300.07743
300.05127
300.03294
300.02063
300.01269
300.00776
300.00489
300.00344
)
;

boundaryField
{
    minX
    {
        type            fixedValue;
        value           uniform 300;
    }
    maxX
    {
        type            inletOutlet;
        inletValue      uniform 300;
        value           nonuniform List<scalar> 
50
(
300
300
300
300.00005
300.00342
300
300.00005
300.00004
300.00012
300.00452
300.00016
300.00162
300.0012
300.00052
300.00586
300.00233
300.01965
300.01395
300.00451
300.00728
300.00142
300.01061
300.0073
300.00238
300.008
300.00142
300.01061
300.0073
300.00238
300.008
300.00233
300.01965
300.01395
300.00451
300.00728
300.00016
300.00162
300.0012
300.00052
300.00586
300
300.00005
300.00004
300.00012
300.00452
300
300
300
300.00005
300.00342
)
;
    }
    minY
    {
        type            zeroGradient;
    }
    minZ
    {
        type            zeroGradient;
    }
    maxZ
    {
        type            zeroGradient;
    }
    bottomWater_to_rightSolid
    {
        type            compressible::turbulentTemperatureRadCoupledMixed;
        refValue        nonuniform List<scalar> 
130
(
306.36207
305.19427
304.08199
303.09723
302.27564
301.62336
301.12713
300.76377
300.50713
300.33268
300.21985
300.15314
300.1223
308.31528
306.65179
305.11507
303.8
302.73814
301.91954
301.31251
300.8776
300.57599
300.37402
300.24496
300.16932
300.13455
312.41974
309.58146
307.10615
305.10648
303.57293
302.44174
301.63342
301.07188
300.69226
300.44328
300.28678
300.19616
300.15481
318.89007
313.7611
309.72041
306.71374
304.55015
303.03063
301.98544
301.28071
300.81541
300.5159
300.33033
300.22401
300.1758
326.88271
317.89928
311.95532
307.95918
305.25896
303.43913
302.22233
301.4184
300.89555
300.56278
300.35834
300.24191
300.18931
326.88271
317.89927
311.95534
307.95917
305.25895
303.43913
302.22234
301.4184
300.89555
300.56278
300.35834
300.24191
300.18931
318.89008
313.7611
309.72042
306.71375
304.55016
303.03064
301.98546
301.28071
300.81542
300.51591
300.33034
300.22401
300.17581
312.4198
309.5815
307.10619
305.10651
303.57296
302.44175
301.63345
301.07189
300.69227
300.44329
300.28678
300.19616
300.15481
308.31536
306.65185
305.11512
303.80005
302.73817
301.91956
301.31254
300.87761
300.576
300.37403
300.24496
300.16932
300.13455
306.36217
305.19435
304.08205
303.09727
302.27568
301.62339
301.12716
300.76379
300.50715
300.33269
300.21986
300.15314
300.1223
)
;
        refGradient     uniform 0;
        valueFraction   uniform 0.99248593;
        source          uniform 0;
        logInterval     -1;
        writePrecision  8;
        updateHeader    1;
        writeToFile     0;
        useUserTime     1;
        kappaMethod     fluidThermo;
        value           nonuniform List<scalar> 
130
(
306.31665
305.15724
304.05289
303.07514
302.25939
301.61174
301.11905
300.75828
300.50348
300.33027
300.21826
300.15202
300.12141
308.25643
306.6049
305.07911
303.77331
302.7189
301.90602
301.30324
300.87138
300.57189
300.37135
300.2432
300.1681
300.13357
312.33346
309.51528
307.05723
305.07135
303.54831
302.42485
301.62207
301.06439
300.68739
300.44015
300.28474
300.19475
300.15369
318.77439
313.67523
309.65844
306.67004
304.51999
303.01024
301.97191
301.27189
300.80975
300.51229
300.328
300.22241
300.17454
326.74133
317.78342
311.87493
307.9049
305.22283
303.41538
302.20692
301.40853
300.88929
300.55882
300.35581
300.24019
300.18795
326.74133
317.78341
311.87494
307.9049
305.22283
303.41538
302.20693
301.40853
300.88929
300.55882
300.35581
300.24019
300.18795
318.7744
313.67523
309.65846
306.67005
304.52
303.01025
301.97193
301.2719
300.80976
300.51229
300.328
300.22241
300.17454
312.33352
309.51533
307.05727
305.07138
303.54833
302.42486
301.6221
301.0644
300.6874
300.44016
300.28474
300.19475
300.15369
308.25651
306.60496
305.07916
303.77336
302.71893
301.90604
301.30327
300.87139
300.5719
300.37136
300.24321
300.1681
300.13357
306.31675
305.15732
304.05295
303.07518
302.25943
301.61177
301.11908
300.75829
300.50349
300.33028
300.21826
300.15203
300.12141
)
;
    }
    bottomWater_to_leftSolid
    {
        type            compressible::turbulentTemperatureRadCoupledMixed;
        refValue        nonuniform List<scalar> 
130
(
300.00014
300.00019
300.00028
300.00045
300.00071
300.0011
300.00166
300.00242
300.00342
300.00464
300.006
300.00731
300.00832
300.00016
300.00022
300.00033
300.00053
300.00086
300.00136
300.0021
300.00317
300.00464
300.00652
300.00877
300.01114
300.01308
300.0002
300.00026
300.00041
300.00068
300.00112
300.00182
300.00292
300.00458
300.00699
300.01037
300.01482
300.02015
300.02536
300.00023
300.00032
300.0005
300.00084
300.00141
300.00235
300.00388
300.00629
300.01003
300.01572
300.02411
300.03591
300.05059
300.00026
300.00035
300.00056
300.00094
300.0016
300.00271
300.00455
300.00756
300.01245
300.02038
300.03326
300.05444
300.08857
300.00026
300.00035
300.00056
300.00094
300.0016
300.00271
300.00455
300.00756
300.01245
300.02038
300.03326
300.05444
300.08857
300.00023
300.00032
300.0005
300.00084
300.00141
300.00235
300.00388
300.00629
300.01003
300.01572
300.02411
300.03591
300.05059
300.0002
300.00026
300.00041
300.00068
300.00112
300.00182
300.00292
300.00458
300.00699
300.01037
300.01482
300.02015
300.02536
300.00016
300.00022
300.00033
300.00053
300.00086
300.00136
300.0021
300.00317
300.00464
300.00652
300.00877
300.01114
300.01308
300.00014
300.00019
300.00028
300.00045
300.00071
300.0011
300.00165
300.00242
300.00342
300.00464
300.006
300.00731
300.00832
)
;
        refGradient     uniform 0;
        valueFraction   uniform 0.99248593;
        source          uniform 0;
        logInterval     -1;
        writePrecision  8;
        updateHeader    1;
        writeToFile     0;
        useUserTime     1;
        kappaMethod     fluidThermo;
        value           nonuniform List<scalar> 
130
(
300.00014
300.00019
300.00028
300.00044
300.0007
300.00109
300.00164
300.00241
300.0034
300.00461
300.00595
300.00726
300.00829
300.00016
300.00021
300.00033
300.00053
300.00085
300.00135
300.00209
300.00315
300.0046
300.00648
300.00871
300.01106
300.01314
300.0002
300.00026
300.00041
300.00067
300.00111
300.00181
300.0029
300.00454
300.00694
300.01029
300.01472
300.02007
300.0267
300.00023
300.00031
300.0005
300.00083
300.0014
300.00233
300.00385
300.00624
300.00996
300.01561
300.02395
300.03598
300.06004
300.00025
300.00034
300.00055
300.00093
300.00159
300.00269
300.00452
300.00751
300.01236
300.02023
300.03304
300.05514
300.12955
300.00025
300.00034
300.00055
300.00093
300.00159
300.00269
300.00452
300.00751
300.01236
300.02023
300.03305
300.05514
300.12955
300.00023
300.00031
300.0005
300.00083
300.0014
300.00233
300.00385
300.00624
300.00996
300.01561
300.02395
300.03598
300.06004
300.0002
300.00026
300.00041
300.00067
300.00111
300.00181
300.0029
300.00454
300.00694
300.01029
300.01472
300.02007
300.0267
300.00016
300.00021
300.00033
300.00053
300.00085
300.00135
300.00209
300.00315
300.0046
300.00648
300.00871
300.01106
300.01314
300.00014
300.00019
300.00028
300.00044
300.0007
300.00109
300.00164
300.00241
300.0034
300.00461
300.00595
300.00726
300.00829
)
;
    }
    bottomWater_to_heater
    {
        type            compressible::turbulentTemperatureRadCoupledMixed;
        refValue        nonuniform List<scalar> 
92
(
309.49542
309.13407
308.44075
307.4802
312.80382
312.29971
311.31857
309.93708
320.06321
319.26665
317.66082
315.29435
480.51726
481.26577
481.26848
480.5533
446.05458
446.92736
446.877
445.97417
415.79349
416.43794
416.2175
415.28498
389.80991
390.05332
389.42449
388.24578
332.52278
368.32536
331.35207
367.95299
328.80867
366.41743
324.62849
364.15722
480.51726
480.5533
446.05458
445.97417
415.79349
415.28498
389.80991
388.24578
368.32536
364.15722
480.51722
480.51722
481.26574
481.26845
480.55329
480.55329
446.05449
446.05449
446.9273
446.87697
445.97417
445.97417
415.79339
415.79339
416.43789
416.21748
415.28501
415.28501
389.80982
389.80982
390.05328
389.42449
388.24583
388.24583
368.3253
368.3253
367.95298
366.41746
364.15729
364.15729
332.52279
331.3521
328.80872
324.62855
320.0632
319.26667
317.66088
315.29443
312.80381
312.29973
311.31863
309.93717
309.49536
309.13409
308.44082
307.48032
)
;
        refGradient     uniform 0;
        valueFraction   uniform 0.99248593;
        source          uniform 0;
        logInterval     -1;
        writePrecision  8;
        updateHeader    1;
        writeToFile     0;
        useUserTime     1;
        kappaMethod     fluidThermo;
        value           nonuniform List<scalar> 
92
(
309.42579
309.06795
308.38008
307.42667
312.70984
312.21068
311.23743
309.86635
319.91788
319.12931
317.53615
315.1873
479.21626
479.978
479.99638
479.29444
444.98949
445.8693
445.832
444.94574
414.94572
415.59476
415.38465
414.46618
389.15259
389.40103
388.78287
387.61713
332.29929
367.83285
331.14637
367.47227
328.62746
365.95363
324.47959
363.7113
479.29891
479.40099
445.03494
445.03451
414.97831
414.5281
389.1795
387.65601
367.85361
363.73575
479.29887
479.21622
479.97797
479.99636
479.40098
479.29442
445.03485
444.9894
445.86924
445.83197
445.0345
444.94574
414.97821
414.94562
415.5947
415.38463
414.52813
414.4662
389.1794
389.1525
389.40099
388.78287
387.65607
387.61718
367.85355
367.83279
367.47227
365.95366
363.73583
363.71137
332.2993
331.1464
328.62752
324.47965
319.91787
319.12934
317.53621
315.18738
312.70982
312.2107
311.23749
309.86644
309.42574
309.06797
308.38016
307.42679
)
;
    }
}


// ************************************************************************* //
