/*--------------------------------*- C++ -*----------------------------------*\
| =========                 |                                                 |
| \\      /  F ield         | OpenFOAM: The Open Source CFD Toolbox           |
|  \\    /   O peration     | Version:  2412                                  |
|   \\  /    A nd           | Website:  www.openfoam.com                      |
|    \\/     M anipulation  |                                                 |
\*---------------------------------------------------------------------------*/
FoamFile
{
    version     2.0;
    format      ascii;
    arch        "LSB;label=32;scalar=64";
    class       volVectorField;
    location    "40/bottomWater";
    object      U;
}
// * * * * * * * * * * * * * * * * * * * * * * * * * * * * * * * * * * * * * //

dimensions      [0 1 -1 0 0 0 0];

internalField   nonuniform List<vector> 
1460
(
(0.00091095279 5.8755223e-05 4.1771635e-05)
(0.00088217754 6.2044992e-05 4.8864234e-05)
(0.00078488129 5.3336533e-05 4.4987585e-05)
(0.00070190392 4.2569594e-05 3.7385252e-05)
(0.00064051688 3.2096871e-05 2.8316405e-05)
(0.00059722359 2.3360911e-05 1.9117677e-05)
(0.00057009307 1.6839418e-05 1.0265303e-05)
(0.00055842955 1.2390441e-05 1.7363199e-06)
(0.00056063099 9.4775658e-06 -6.0812483e-06)
(0.00057536579 7.1769052e-06 -1.2430088e-05)
(0.00060205839 4.8796853e-06 -1.63317e-05)
(0.00063948516 2.3389042e-06 -1.5881245e-05)
(0.00068426188 -5.4478749e-07 -7.9474372e-06)
(0.00072017225 -2.9249735e-06 1.2911981e-05)
(0.00073641296 -4.6233863e-06 2.9610733e-05)
(0.00073532583 -5.3930419e-06 3.7883073e-05)
(0.00071872866 -5.0121408e-06 4.1228357e-05)
(0.00068899841 -4.0918037e-06 4.2313137e-05)
(0.00065015514 -3.2969588e-06 4.0007399e-05)
(0.00060858286 -2.750099e-06 3.4679119e-05)
(0.00056996334 -2.296154e-06 2.7917795e-05)
(0.00053732924 -1.7814099e-06 2.1116911e-05)
(0.00051151393 -1.1512594e-06 1.5083382e-05)
(0.00049212179 -4.5623485e-07 1.0148986e-05)
(0.00047819759 1.9220098e-07 6.368441e-06)
(0.00046863632 6.8535434e-07 3.683081e-06)
(0.00046219484 1.0065099e-06 1.9487223e-06)
(0.00045786266 1.1692212e-06 9.5222107e-07)
(0.00045473882 1.1966569e-06 4.6961038e-07)
(0.00045078353 1.3886013e-06 4.8269758e-07)
(0.00097320957 5.5334855e-05 4.6056416e-05)
(0.00099252332 5.9626511e-05 5.9100269e-05)
(0.00097528958 5.488889e-05 5.794452e-05)
(0.00095089587 4.622284e-05 5.2227523e-05)
(0.00092955068 3.603743e-05 4.3956636e-05)
(0.000912548 2.6414186e-05 3.4170441e-05)
(0.00090150786 1.8431179e-05 2.3570197e-05)
(0.000898769 1.2498753e-05 1.2269772e-05)
(0.00090815719 8.5516761e-06 5.6120341e-07)
(0.0009303601 5.800142e-06 -1.0349902e-05)
(0.00096610839 3.4543356e-06 -1.9098138e-05)
(0.0010153002 1.0989237e-06 -2.3552054e-05)
(0.0010749238 -1.2426716e-06 -1.958928e-05)
(0.0011287851 -3.1690667e-06 4.8952815e-08)
(0.0011639213 -4.4313562e-06 2.0456372e-05)
(0.0011776965 -5.1336861e-06 3.5141898e-05)
(0.0011734265 -4.8979323e-06 4.4066142e-05)
(0.0011526182 -4.0529343e-06 4.9365585e-05)
(0.001117299 -3.2564427e-06 5.0707601e-05)
(0.0010726195 -2.7810353e-06 4.8019337e-05)
(0.0010243419 -2.5311843e-06 4.2437765e-05)
(0.00097698139 -2.2782004e-06 3.5369778e-05)
(0.00093360724 -1.8429243e-06 2.7959318e-05)
(0.00089608209 -1.1904437e-06 2.1020892e-05)
(0.00086522615 -4.1465489e-07 1.5092856e-05)
(0.00084093638 3.4082577e-07 1.0404646e-05)
(0.00082263689 9.6472958e-07 6.9351976e-06)
(0.00080932557 1.3956151e-06 4.5439671e-06)
(0.00079973852 1.6764014e-06 3.0371779e-06)
(0.00079001373 1.9779576e-06 2.5862276e-06)
(0.00097777558 1.3734335e-12 4.5991094e-05)
(0.0010092167 5.5650782e-12 5.9690974e-05)
(0.0010092278 1.3097266e-11 5.9305755e-05)
(0.0010006008 2.180704e-11 5.4289062e-05)
(0.00099165748 2.7345298e-11 4.6459928e-05)
(0.00098332261 2.6233654e-11 3.6789732e-05)
(0.00097742918 1.8648546e-11 2.6026494e-05)
(0.00097691648 8.3540829e-12 1.4388304e-05)
(0.00098651471 -4.9741771e-14 2.2173757e-06)
(0.001008239 -3.8764307e-12 -9.2754516e-06)
(0.0010430421 -3.2538678e-12 -1.8578771e-05)
(0.001091113 -2.3882472e-14 -2.3614991e-05)
(0.001149915 4.0712489e-12 -2.0471704e-05)
(0.0012043058 7.9160282e-12 -2.0692041e-06)
(0.0012416022 1.0455205e-11 1.7608982e-05)
(0.0012586049 1.1007239e-11 3.2448792e-05)
(0.0012571199 8.7023903e-12 4.231116e-05)
(0.0012398668 3.0770069e-12 4.8358127e-05)
(0.0012079802 -4.7161247e-12 5.0446596e-05)
(0.001166018 -1.2376109e-11 4.8552065e-05)
(0.0011191647 -1.6629505e-11 4.3705139e-05)
(0.0010716005 -1.398775e-11 3.721807e-05)
(0.001026432 -3.5628869e-12 3.0207766e-05)
(0.00098588791 1.1306046e-11 2.344284e-05)
(0.00095135611 2.5290384e-11 1.7438326e-05)
(0.00092334351 3.5730078e-11 1.2478749e-05)
(0.00090160475 3.8448344e-11 8.6474299e-06)
(0.00088540122 3.4404264e-11 5.9007383e-06)
(0.00087360914 2.6058129e-11 4.0856162e-06)
(0.00086190639 1.7047629e-11 3.4577904e-06)
(0.00097320957 -5.5334853e-05 4.6056416e-05)
(0.00099252332 -5.9626504e-05 5.9100269e-05)
(0.00097528959 -5.4888873e-05 5.7944519e-05)
(0.00095089589 -4.6222812e-05 5.2227523e-05)
(0.00092955071 -3.6037394e-05 4.3956636e-05)
(0.00091254806 -2.641415e-05 3.4170441e-05)
(0.00090150793 -1.8431152e-05 2.3570198e-05)
(0.00089876908 -1.2498739e-05 1.2269775e-05)
(0.00090815726 -8.5516731e-06 5.612086e-07)
(0.00093036017 -5.8001439e-06 -1.0349894e-05)
(0.00096610845 -3.4543359e-06 -1.9098127e-05)
(0.0010153002 -1.0989176e-06 -2.355204e-05)
(0.0010749238 1.242686e-06 -1.9589265e-05)
(0.0011287851 3.1690889e-06 4.8967615e-08)
(0.0011639213 4.4313843e-06 2.0456385e-05)
(0.0011776965 5.1337167e-06 3.5141908e-05)
(0.0011734265 4.89796e-06 4.4066148e-05)
(0.0011526182 4.0529537e-06 4.9365588e-05)
(0.001117299 3.2564494e-06 5.0707602e-05)
(0.0010726195 2.7810287e-06 4.8019339e-05)
(0.0010243419 2.5311687e-06 4.2437772e-05)
(0.00097698139 2.2781853e-06 3.5369796e-05)
(0.00093360723 1.8429214e-06 2.7959352e-05)
(0.00089608207 1.1904608e-06 2.1020937e-05)
(0.00086522612 4.1469338e-07 1.5092903e-05)
(0.00084093635 -3.4077212e-07 1.0404689e-05)
(0.00082263686 -9.6467001e-07 6.935234e-06)
(0.00080932553 -1.3955595e-06 4.5439968e-06)
(0.00079973848 -1.6763573e-06 3.0372008e-06)
(0.00079001368 -1.9779273e-06 2.5862448e-06)
(0.00091095279 -5.8755223e-05 4.1771635e-05)
(0.00088217754 -6.204499e-05 4.8864234e-05)
(0.0007848813 -5.3336529e-05 4.4987585e-05)
(0.00070190394 -4.2569588e-05 3.7385253e-05)
(0.00064051692 -3.2096863e-05 2.8316406e-05)
(0.00059722365 -2.3360905e-05 1.911768e-05)
(0.00057009313 -1.6839414e-05 1.0265307e-05)
(0.00055842962 -1.239044e-05 1.7363253e-06)
(0.00056063105 -9.4775668e-06 -6.0812413e-06)
(0.00057536585 -7.1769068e-06 -1.2430079e-05)
(0.00060205844 -4.8796859e-06 -1.6331689e-05)
(0.0006394852 -2.338902e-06 -1.5881231e-05)
(0.00068426191 5.447927e-07 -7.9474214e-06)
(0.00072017228 2.924981e-06 1.2911997e-05)
(0.00073641299 4.6233949e-06 2.9610748e-05)
(0.00073532586 5.3930494e-06 3.7883086e-05)
(0.0007187287 5.0121449e-06 4.1228369e-05)
(0.00068899845 4.0918022e-06 4.2313148e-05)
(0.00065015518 3.2969505e-06 4.0007411e-05)
(0.00060858289 2.7500846e-06 3.4679133e-05)
(0.00056996335 2.2961367e-06 2.7917811e-05)
(0.00053732924 1.7813938e-06 2.1116929e-05)
(0.00051151391 1.1512488e-06 1.5083408e-05)
(0.00049212176 4.5623203e-07 1.0149021e-05)
(0.00047819754 -1.9219653e-07 6.3684824e-06)
(0.00046863626 -6.8534731e-07 3.6831226e-06)
(0.00046219478 -1.0065007e-06 1.9487586e-06)
(0.00045786259 -1.1692119e-06 9.522495e-07)
(0.00045473875 -1.1966497e-06 4.6963087e-07)
(0.00045078346 -1.3885979e-06 4.8271186e-07)
(0.00094610172 6.2059074e-05 4.7700304e-05)
(0.00094085927 6.9476929e-05 6.0839778e-05)
(0.00089267117 6.1259e-05 6.1020201e-05)
(0.00084737625 5.1170483e-05 5.2568506e-05)
(0.00081334261 4.1057037e-05 3.8398535e-05)
(0.00078895548 3.1860347e-05 2.0761264e-05)
(0.00077389578 2.422113e-05 8.4536754e-07)
(0.00076863169 1.7854844e-05 -2.0881004e-05)
(0.0007747302 1.2275575e-05 -4.4176668e-05)
(0.00079427139 7.3470773e-06 -6.8874186e-05)
(0.00082993876 2.9196446e-06 -9.4237003e-05)
(0.00088470719 -7.0016875e-07 -0.00011644079)
(0.00096077916 -2.532833e-06 -0.00012416907)
(0.0010185046 5.0484393e-07 -8.4933339e-05)
(0.0010362327 3.2847595e-06 -4.0125044e-05)
(0.0010317685 4.8841276e-06 1.3903688e-06)
(0.0010143621 5.4444955e-06 3.8774097e-05)
(0.00098139041 5.7082578e-06 7.2030767e-05)
(0.00093418363 5.4139972e-06 8.9055668e-05)
(0.00088267511 4.4420457e-06 9.109713e-05)
(0.00083490287 3.076413e-06 8.3153748e-05)
(0.00079448944 1.7524583e-06 6.9933447e-05)
(0.00076238189 7.6698434e-07 5.4994864e-05)
(0.00073813692 2.4740576e-07 4.0654732e-05)
(0.0007204523 1.9927804e-07 2.8188452e-05)
(0.00070798682 4.2843146e-07 1.8264677e-05)
(0.0006994641 7.1368112e-07 1.1094211e-05)
(0.00069366238 9.5709805e-07 6.4713741e-06)
(0.00068949094 1.170256e-06 3.9911159e-06)
(0.0006845593 1.7165221e-06 3.1987989e-06)
(0.0010168951 5.8900031e-05 5.2997169e-05)
(0.0010678537 6.5913543e-05 7.1370736e-05)
(0.0011137112 6.0605544e-05 7.397685e-05)
(0.0011500252 5.2870025e-05 6.8788081e-05)
(0.0011799452 4.3943619e-05 5.7443619e-05)
(0.0012058441 3.4985464e-05 4.0988341e-05)
(0.0012297216 2.6923052e-05 2.0135138e-05)
(0.0012546137 1.987492e-05 -5.1310616e-06)
(0.0012823769 1.354564e-05 -3.4668516e-05)
(0.0013173793 7.9555176e-06 -6.8169625e-05)
(0.0013645251 3.0905694e-06 -0.00010491758)
(0.0014291461 -1.0239015e-06 -0.00014158672)
(0.0015170627 -3.2196475e-06 -0.00016627098)
(0.0015984872 -1.8358807e-06 -0.00014174992)
(0.0016472081 7.3144938e-07 -0.00010148981)
(0.0016745181 2.6411109e-06 -5.7392245e-05)
(0.0016848533 3.6301657e-06 -1.1983314e-05)
(0.0016748807 3.8965691e-06 3.3740351e-05)
(0.0016441013 3.732874e-06 6.8203371e-05)
(0.0015992697 2.9420235e-06 8.8995711e-05)
(0.0015478064 1.6680069e-06 9.8102758e-05)
(0.0014946617 3.1301862e-07 9.8089322e-05)
(0.0014431072 -7.2231468e-07 9.136732e-05)
(0.0013955539 -1.2389355e-06 8.0266183e-05)
(0.0013539675 -1.2051448e-06 6.7040272e-05)
(0.0013193474 -7.6299076e-07 5.3607628e-05)
(0.0012917853 -1.2966121e-07 4.1306641e-05)
(0.0012708254 5.3568729e-07 3.096474e-05)
(0.0012554684 1.2084245e-06 2.3022186e-05)
(0.0012411186 2.0673633e-06 1.7842038e-05)
(0.0010224217 1.7146949e-12 5.368647e-05)
(0.0010875595 7.0908472e-12 7.2824244e-05)
(0.001153259 1.64969e-11 7.6144676e-05)
(0.0012090606 2.7624918e-11 7.1810525e-05)
(0.0012560322 3.5794502e-11 6.1291703e-05)
(0.0012960125 3.6589702e-11 4.5487384e-05)
(0.0013308487 2.8584864e-11 2.5036344e-05)
(0.0013635909 1.4121943e-11 -8.8639048e-08)
(0.0013964251 -2.2749198e-12 -2.980955e-05)
(0.001433598 -1.6027959e-11 -6.3704968e-05)
(0.0014805664 -2.4411057e-11 -0.0001010402)
(0.0015432489 -2.7706112e-11 -0.00013903148)
(0.0016279996 -2.7812417e-11 -0.00016659535)
(0.0017079615 -2.6268671e-11 -0.00014768515)
(0.0017589922 -2.5873139e-11 -0.00011242313)
(0.0017915806 -2.7742633e-11 -7.1410521e-05)
(0.0018096252 -3.3697285e-11 -2.7599223e-05)
(0.0018076779 -4.5432896e-11 1.7775983e-05)
(0.0017849593 -6.3118349e-11 5.3517511e-05)
(0.0017469885 -8.4617275e-11 7.7111147e-05)
(0.0017001321 -1.0520396e-10 9.0128718e-05)
(0.0016488405 -1.1751402e-10 9.4540164e-05)
(0.0015963024 -1.1153148e-10 9.2137616e-05)
(0.0015453739 -9.2037339e-11 8.4697434e-05)
(0.0014986713 -6.9004695e-11 7.4054087e-05)
(0.0014581545 -4.5141177e-11 6.1913486e-05)
(0.0014248515 -2.4890956e-11 4.9770311e-05)
(0.0013988689 -1.1592101e-11 3.8780961e-05)
(0.0013795441 -6.0742478e-12 2.9749167e-05)
(0.0013617679 -6.6033864e-12 2.3433806e-05)
(0.0010168951 -5.8900029e-05 5.2997169e-05)
(0.0010678537 -6.5913535e-05 7.1370736e-05)
(0.0011137112 -6.0605524e-05 7.3976849e-05)
(0.0011500253 -5.2869989e-05 6.8788079e-05)
(0.0011799453 -4.3943571e-05 5.7443618e-05)
(0.0012058442 -3.4985413e-05 4.0988343e-05)
(0.0012297217 -2.692301e-05 2.0135142e-05)
(0.0012546139 -1.9874897e-05 -5.1310532e-06)
(0.001282377 -1.3545639e-05 -3.4668503e-05)
(0.0013173794 -7.9555361e-06 -6.8169607e-05)
(0.0013645252 -3.0906e-06 -0.00010491756)
(0.0014291462 1.0238674e-06 -0.0001415867)
(0.0015170628 3.2196168e-06 -0.00016627096)
(0.0015984873 1.8358563e-06 -0.0001417499)
(0.0016472081 -7.3146838e-07 -0.00010148979)
(0.0016745181 -2.6411285e-06 -5.7392231e-05)
(0.0016848533 -3.6301872e-06 -1.1983305e-05)
(0.0016748807 -3.8966021e-06 3.3740353e-05)
(0.0016441012 -3.7329271e-06 6.8203366e-05)
(0.0015992696 -2.9421043e-06 8.8995701e-05)
(0.0015478063 -1.6681188e-06 9.8102747e-05)
(0.0014946616 -3.1315735e-07 9.8089315e-05)
(0.001443107 7.2216758e-07 9.1367326e-05)
(0.0013955537 1.2388012e-06 8.0266203e-05)
(0.0013539673 1.2050452e-06 6.7040308e-05)
(0.0013193472 7.6293224e-07 5.3607671e-05)
(0.0012917851 1.2963794e-07 4.1306687e-05)
(0.0012708253 -5.3568812e-07 3.0964787e-05)
(0.0012554683 -1.2084164e-06 2.302223e-05)
(0.0012411185 -2.0673568e-06 1.7842076e-05)
(0.00094610172 -6.2059073e-05 4.7700303e-05)
(0.00094085928 -6.9476928e-05 6.0839777e-05)
(0.00089267118 -6.1258996e-05 6.10202e-05)
(0.00084737627 -5.1170475e-05 5.2568505e-05)
(0.00081334266 -4.1057026e-05 3.8398536e-05)
(0.00078895556 -3.1860337e-05 2.0761268e-05)
(0.00077389588 -2.4221124e-05 8.4537628e-07)
(0.0007686318 -1.7854843e-05 -2.0880991e-05)
(0.00077473031 -1.227558e-05 -4.4176652e-05)
(0.00079427149 -7.3470877e-06 -6.8874167e-05)
(0.00082993885 -2.9196574e-06 -9.423698e-05)
(0.00088470725 7.001568e-07 -0.00011644077)
(0.0009607792 2.5328244e-06 -0.00012416905)
(0.0010185047 -5.0484887e-07 -8.4933315e-05)
(0.0010362327 -3.2847614e-06 -4.0125022e-05)
(0.0010317685 -4.8841291e-06 1.3903872e-06)
(0.0010143621 -5.4444984e-06 3.877411e-05)
(0.00098139042 -5.7082644e-06 7.2030772e-05)
(0.00093418365 -5.4140104e-06 8.9055667e-05)
(0.00088267512 -4.4420691e-06 9.1097127e-05)
(0.00083490287 -3.0764498e-06 8.3153746e-05)
(0.00079448942 -1.75251e-06 6.9933448e-05)
(0.00076238181 -7.6704533e-07 5.499487e-05)
(0.00073813679 -2.4746061e-07 4.0654752e-05)
(0.00072045215 -1.9931207e-07 2.8188493e-05)
(0.00070798667 -4.284478e-07 1.8264732e-05)
(0.00069946395 -7.1368706e-07 1.109427e-05)
(0.00069366224 -9.5709984e-07 6.47143e-06)
(0.00068949081 -1.1702572e-06 3.9911648e-06)
(0.00068455917 -1.7165252e-06 3.1988395e-06)
(0.00094479706 6.2212676e-05 1.3650942e-05)
(0.00093817066 7.0100945e-05 2.222552e-05)
(0.00089282692 6.2067817e-05 2.4372526e-05)
(0.0008513052 5.2061435e-05 2.0408006e-05)
(0.0008201255 4.1843148e-05 1.0908165e-05)
(0.00079667844 3.2185178e-05 -3.4273194e-06)
(0.00077968004 2.3616338e-05 -2.1923427e-05)
(0.00076944446 1.6280275e-05 -4.4638309e-05)
(0.00076768188 9.6661042e-06 -7.2702412e-05)
(0.00077779817 3.0062437e-06 -0.00010769514)
(0.0008073691 -4.1111219e-06 -0.0001506637)
(0.00086557436 -1.0688725e-05 -0.00019515459)
(0.00097923862 -1.3287486e-05 -0.00020767841)
(0.0010749454 -2.5311883e-06 -5.7932112e-05)
(0.0011000231 6.1279944e-06 1.0957861e-05)
(0.0011000477 1.255908e-05 6.0617173e-05)
(0.0010842225 1.7173248e-05 0.00010553265)
(0.0010390236 2.0960524e-05 0.00016022927)
(0.00096695756 2.0521784e-05 0.00017781512)
(0.00089840981 1.6706364e-05 0.00017312964)
(0.00084346171 1.1349861e-05 0.00015437357)
(0.00080304688 6.0125501e-06 0.0001287948)
(0.00077512331 1.576548e-06 0.00010167918)
(0.00075718439 -1.4283665e-06 7.6360281e-05)
(0.00074616138 -2.7787326e-06 5.4540609e-05)
(0.00073933206 -2.7939154e-06 3.6986483e-05)
(0.00073505159 -2.1306133e-06 2.3842755e-05)
(0.00073224112 -1.2850257e-06 1.4737546e-05)
(0.00073022194 -4.6687197e-07 9.0057167e-06)
(0.00072801311 4.4761331e-07 5.999716e-06)
(0.0010161946 5.917253e-05 1.5877793e-05)
(0.0010668399 6.6773099e-05 2.7514481e-05)
(0.0011171987 6.1622244e-05 3.2235672e-05)
(0.001160134 5.3950499e-05 3.0510059e-05)
(0.0011962957 4.4914436e-05 2.2582841e-05)
(0.0012265705 3.5500197e-05 8.5938656e-06)
(0.0012518055 2.6487514e-05 -1.150303e-05)
(0.0012731337 1.8304893e-05 -3.7805574e-05)
(0.0012929511 1.0860181e-05 -7.1730747e-05)
(0.0013158163 3.6372094e-06 -0.00011588297)
(0.0013488256 -3.8962453e-06 -0.00017256767)
(0.0014043913 -1.197562e-05 -0.00023861587)
(0.001512461 -1.6203847e-05 -0.00028093897)
(0.0016268583 -7.5449033e-06 -0.00014393602)
(0.0016792349 1.9950121e-06 -7.1992651e-05)
(0.0017107499 1.0018163e-05 -1.3815306e-05)
(0.0017336276 1.6528707e-05 4.9371021e-05)
(0.0017232783 2.1248521e-05 0.00012458359)
(0.0016800608 2.258799e-05 0.00017104293)
(0.0016277456 2.0103819e-05 0.00019519435)
(0.0015769372 1.5331028e-05 0.00020200085)
(0.0015300346 9.7411975e-06 0.00019568944)
(0.0014874666 4.4027144e-06 0.00017986729)
(0.0014491794 1.2590591e-07 0.00015777941)
(0.001415558 -2.5346218e-06 0.00013253215)
(0.0013871876 -3.5991307e-06 0.00010686813)
(0.001364152 -3.4784495e-06 8.290836e-05)
(0.001346304 -2.6716786e-06 6.207744e-05)
(0.0013332011 -1.5259738e-06 4.5095645e-05)
(0.001322124 -1.3403346e-07 3.2531869e-05)
(0.0010218341 1.707029e-12 1.6143539e-05)
(0.0010870666 7.1610815e-12 2.8227415e-05)
(0.001157805 1.6651964e-11 3.3444415e-05)
(0.0012209151 2.7742753e-11 3.2330822e-05)
(0.0012749618 3.5645652e-11 2.5097644e-05)
(0.0013202314 3.5797103e-11 1.1816757e-05)
(0.0013572974 2.6520884e-11 -7.6286799e-06)
(0.001387217 1.0027645e-11 -3.339518e-05)
(0.0014123859 -8.6811045e-12 -6.6678164e-05)
(0.0014373239 -2.4411412e-11 -0.00010995103)
(0.0014693379 -3.4552812e-11 -0.00016587056)
(0.0015209171 -4.0042293e-11 -0.0002323551)
(0.0016206127 -4.1472404e-11 -0.0002779388)
(0.0017299693 -4.0801842e-11 -0.00015168938)
(0.0017833628 -4.2007274e-11 -8.8150806e-05)
(0.0018196463 -4.553102e-11 -3.6411739e-05)
(0.0018520669 -5.4493579e-11 2.4504818e-05)
(0.0018544941 -7.1712778e-11 9.9088341e-05)
(0.0018242313 -9.5693975e-11 0.00014882224)
(0.0017828175 -1.2245486e-10 0.00017870445)
(0.0017394456 -1.4657947e-10 0.00019277935)
(0.0016959542 -1.6056666e-10 0.00019420261)
(0.0016529703 -1.5816464e-10 0.00018552931)
(0.0016114005 -1.4300998e-10 0.00016921023)
(0.0015724352 -1.1581957e-10 0.00014776716)
(0.0015375521 -9.0091747e-11 0.00012375297)
(0.0015079384 -6.6428611e-11 9.9539895e-05)
(0.0014842155 -4.8091401e-11 7.7072503e-05)
(0.0014664064 -3.6796793e-11 5.7673547e-05)
(0.0014512962 -3.1972254e-11 4.2524427e-05)
(0.0010161946 -5.9172528e-05 1.5877793e-05)
(0.0010668399 -6.6773091e-05 2.751448e-05)
(0.0011171987 -6.1622224e-05 3.2235671e-05)
(0.001160134 -5.3950463e-05 3.0510058e-05)
(0.0011962958 -4.4914389e-05 2.258284e-05)
(0.0012265705 -3.5500147e-05 8.5938668e-06)
(0.0012518056 -2.6487475e-05 -1.1503025e-05)
(0.0012731338 -1.8304875e-05 -3.7805566e-05)
(0.0012929512 -1.0860189e-05 -7.1730734e-05)
(0.0013158164 -3.6372417e-06 -0.00011588295)
(0.0013488257 3.8961983e-06 -0.00017256765)
(0.0014043914 1.1975568e-05 -0.00023861585)
(0.001512461 1.6203798e-05 -0.00028093896)
(0.0016268583 7.5448603e-06 -0.00014393602)
(0.0016792349 -1.9950515e-06 -7.1992649e-05)
(0.0017107498 -1.0018203e-05 -1.3815309e-05)
(0.0017336276 -1.6528755e-05 4.9371007e-05)
(0.0017232782 -2.1248587e-05 0.00012458355)
(0.0016800607 -2.2588081e-05 0.00017104287)
(0.0016277455 -2.0103943e-05 0.00019519426)
(0.001576937 -1.5331187e-05 0.00020200074)
(0.0015300343 -9.7413889e-06 0.00019568932)
(0.0014874663 -4.4029254e-06 0.00017986716)
(0.0014491792 -1.2611029e-07 0.00015777928)
(0.0014155578 2.5344526e-06 0.00013253204)
(0.0013871875 3.5990076e-06 0.00010686805)
(0.0013641519 3.4783689e-06 8.2908298e-05)
(0.0013463039 2.6716297e-06 6.2077404e-05)
(0.001333201 1.5259435e-06 4.5095632e-05)
(0.0013221239 1.3400984e-07 3.2531871e-05)
(0.00094479706 -6.2212675e-05 1.3650942e-05)
(0.00093817066 -7.0100944e-05 2.222552e-05)
(0.00089282693 -6.2067812e-05 2.4372525e-05)
(0.00085130522 -5.2061426e-05 2.0408005e-05)
(0.00082012555 -4.1843137e-05 1.0908165e-05)
(0.00079667852 -3.2185168e-05 -3.4273167e-06)
(0.00077968015 -2.3616333e-05 -2.1923421e-05)
(0.00076944457 -1.6280277e-05 -4.4638299e-05)
(0.000767682 -9.666114e-06 -7.2702398e-05)
(0.00077779828 -3.0062602e-06 -0.00010769513)
(0.00080736918 4.1111025e-06 -0.00015066367)
(0.00086557441 1.0688708e-05 -0.00019515456)
(0.00097923865 1.3287472e-05 -0.00020767839)
(0.0010749454 2.5311779e-06 -5.7932099e-05)
(0.0011000231 -6.1280012e-06 1.0957865e-05)
(0.0011000476 -1.2559086e-05 6.0617168e-05)
(0.0010842225 -1.7173256e-05 0.00010553263)
(0.0010390236 -2.0960536e-05 0.00016022922)
(0.00096695754 -2.0521802e-05 0.00017781504)
(0.0008984098 -1.6706393e-05 0.00017312953)
(0.0008434617 -1.1349907e-05 0.00015437345)
(0.00080304685 -6.0126156e-06 0.00012879469)
(0.00077512326 -1.5766279e-06 0.00010167907)
(0.00075718427 1.428293e-06 7.6360183e-05)
(0.00074616123 2.7786806e-06 5.4540537e-05)
(0.00073933191 2.7938865e-06 3.6986441e-05)
(0.00073505143 2.1305985e-06 2.3842741e-05)
(0.00073224097 1.2850178e-06 1.4737552e-05)
(0.00073022179 4.6686712e-07 9.0057349e-06)
(0.00072801296 -4.4761881e-07 5.9997398e-06)
(0.0009422654 6.2373311e-05 9.3703273e-06)
(0.00092921806 7.0406774e-05 1.5396875e-05)
(0.00087857318 6.2230551e-05 1.6710289e-05)
(0.00083322894 5.1967175e-05 1.3484313e-05)
(0.00079872011 4.1506496e-05 5.7113497e-06)
(0.00077127574 3.1724899e-05 -6.8605464e-06)
(0.00074907837 2.3038822e-05 -2.5261488e-05)
(0.00073195047 1.5167274e-05 -5.1534935e-05)
(0.00072099051 7.1604062e-06 -8.9377779e-05)
(0.00072007148 -2.2233441e-06 -0.00014563293)
(0.00074086549 -1.3707265e-05 -0.00023155193)
(0.00079732724 -2.5806097e-05 -0.00035841114)
(0.00093448208 -2.0972731e-05 -0.00050109225)
(0.00098307142 3.8431403e-05 -0.00024483374)
(0.00080506163 4.633109e-05 -0.00010151901)
(0.00076538893 4.2320941e-05 -1.8724098e-05)
(0.00077577917 4.3102201e-05 6.1001142e-05)
(0.00077040754 4.8564985e-05 0.00021615985)
(0.00069370591 4.172489e-05 0.00023406255)
(0.00065767038 3.031821e-05 0.00022114271)
(0.00064333355 1.8236093e-05 0.00018535425)
(0.00064486964 8.0249345e-06 0.00014662584)
(0.00065542655 5.2814194e-07 0.00011144239)
(0.00067069398 -3.9768132e-06 8.2091641e-05)
(0.00068640084 -5.6309354e-06 5.8683846e-05)
(0.00070017897 -5.3539848e-06 4.0602622e-05)
(0.00071105981 -4.2110616e-06 2.7107628e-05)
(0.00071891074 -2.9348587e-06 1.7466604e-05)
(0.00072425614 -1.8873535e-06 1.0954172e-05)
(0.00072912559 -1.3841374e-06 6.9683041e-06)
(0.0010136287 5.919285e-05 1.0655252e-05)
(0.0010574309 6.7046559e-05 1.8506059e-05)
(0.0011020701 6.1805379e-05 2.1502806e-05)
(0.0011409319 5.3898204e-05 1.975134e-05)
(0.0011734923 4.4602796e-05 1.3097488e-05)
(0.0011991316 3.498041e-05 9.0451822e-07)
(0.0012176268 2.5739922e-05 -1.8219087e-05)
(0.0012295179 1.6980801e-05 -4.7004652e-05)
(0.0012362913 8.1902121e-06 -9.0237487e-05)
(0.0012409796 -1.7555398e-06 -0.00015617365)
(0.0012519581 -1.4256083e-05 -0.00025911379)
(0.0012880108 -3.0560062e-05 -0.0004196313)
(0.0013861952 -3.3408729e-05 -0.00063560856)
(0.0014518937 3.2548049e-05 -0.00040046972)
(0.0012559848 5.3043205e-05 -0.00024337069)
(0.0012011234 5.1306129e-05 -0.00013861824)
(0.0012108692 5.1580889e-05 -2.525722e-05)
(0.0012392817 5.6928979e-05 0.00017107973)
(0.0012027491 5.3112119e-05 0.00023337825)
(0.001194059 4.1927473e-05 0.00025942745)
(0.0012007413 2.8642305e-05 0.00025478932)
(0.0012151803 1.6108634e-05 0.0002352688)
(0.0012321386 5.7849056e-06 0.00020948467)
(0.0012481457 -1.5622699e-06 0.00018095192)
(0.001262403 -5.6865679e-06 0.00015171251)
(0.0012746316 -7.1119224e-06 0.00012329328)
(0.0012846995 -6.7621259e-06 9.6955588e-05)
(0.0012926834 -5.533237e-06 7.3640672e-05)
(0.0012988609 -4.1118567e-06 5.3854997e-05)
(0.0013051551 -2.9803288e-06 3.8145509e-05)
(0.0010192737 1.5535281e-12 1.0936756e-05)
(0.0010777118 6.661673e-12 1.9120856e-05)
(0.0011428818 1.5651444e-11 2.2457373e-05)
(0.0012020913 2.6177656e-11 2.1128445e-05)
(0.0012526733 3.3579333e-11 1.4991509e-05)
(0.001293486 3.3445316e-11 3.3960617e-06)
(0.0013239707 2.4210411e-11 -1.5039044e-05)
(0.0013445965 8.0819262e-12 -4.2994232e-05)
(0.0013568446 -1.0107779e-11 -8.5168106e-05)
(0.0013637697 -2.590789e-11 -0.00014985305)
(0.0013735597 -3.7712028e-11 -0.00025215342)
(0.0014048659 -4.4927721e-11 -0.00041442072)
(0.0014838432 -4.576459e-11 -0.00064208405)
(0.0015438327 -4.4148575e-11 -0.00042075408)
(0.0013509302 -4.5471641e-11 -0.00027187499)
(0.0012982955 -5.2402594e-11 -0.00017133542)
(0.0013073761 -7.005673e-11 -5.7876913e-05)
(0.0013419318 -1.1503405e-10 0.00013837875)
(0.0013184345 -1.5977516e-10 0.00020837305)
(0.0013198778 -1.9041219e-10 0.00024480421)
(0.0013338871 -2.0221817e-10 0.00025146859)
(0.0013521349 -1.9340521e-10 0.0002418381)
(0.0013696745 -1.6685027e-10 0.00022362505)
(0.0013843336 -1.3240747e-10 0.00020020938)
(0.0013958512 -9.8298845e-11 0.00017361316)
(0.0014048231 -6.9419223e-11 0.00014565756)
(0.001411863 -4.7834423e-11 0.00011803024)
(0.0014174587 -3.3760507e-11 9.219792e-05)
(0.0014219972 -2.6006162e-11 6.9191191e-05)
(0.0014271529 -2.2744349e-11 5.0074006e-05)
(0.0010136287 -5.9192848e-05 1.0655252e-05)
(0.0010574309 -6.7046551e-05 1.8506058e-05)
(0.0011020701 -6.180536e-05 2.1502804e-05)
(0.0011409319 -5.389817e-05 1.9751337e-05)
(0.0011734923 -4.4602751e-05 1.3097485e-05)
(0.0011991317 -3.4980362e-05 9.0451785e-07)
(0.0012176269 -2.5739885e-05 -1.8219084e-05)
(0.001229518 -1.6980786e-05 -4.7004644e-05)
(0.0012362914 -8.1902234e-06 -9.0237475e-05)
(0.0012409798 1.7555053e-06 -0.00015617363)
(0.0012519582 1.4256035e-05 -0.00025911377)
(0.0012880109 3.0560009e-05 -0.00041963129)
(0.0013861952 3.3408679e-05 -0.00063560855)
(0.0014518937 -3.2548093e-05 -0.00040046972)
(0.0012559847 -5.3043248e-05 -0.00024337069)
(0.0012011234 -5.1306178e-05 -0.00013861825)
(0.0012108691 -5.1580953e-05 -2.5257238e-05)
(0.0012392815 -5.6929085e-05 0.00017107967)
(0.0012027489 -5.3112265e-05 0.00023337815)
(0.0011940587 -4.1927649e-05 0.0002594273)
(0.0012007411 -2.8642498e-05 0.00025478912)
(0.00121518 -1.6108833e-05 0.00023526856)
(0.0012321384 -5.7850961e-06 0.00020948441)
(0.0012481456 1.5621083e-06 0.00018095166)
(0.0012624029 5.6864486e-06 0.00015171227)
(0.0012746315 7.1118436e-06 0.00012329309)
(0.0012846995 6.7620782e-06 9.6955439e-05)
(0.0012926834 5.5332092e-06 7.3640572e-05)
(0.0012988609 4.1118388e-06 5.385494e-05)
(0.001305155 2.9803135e-06 3.8145484e-05)
(0.0009422654 -6.2373311e-05 9.3703271e-06)
(0.00092921806 -7.0406772e-05 1.5396874e-05)
(0.00087857319 -6.2230546e-05 1.6710287e-05)
(0.00083322896 -5.1967167e-05 1.348431e-05)
(0.00079872016 -4.1506486e-05 5.7113476e-06)
(0.00077127582 -3.1724889e-05 -6.8605458e-06)
(0.00074907847 -2.3038817e-05 -2.5261483e-05)
(0.00073195058 -1.5167276e-05 -5.1534925e-05)
(0.00072099063 -7.1604176e-06 -8.9377766e-05)
(0.00072007158 2.2233266e-06 -0.00014563291)
(0.00074086556 1.3707246e-05 -0.00023155191)
(0.00079732728 2.5806079e-05 -0.00035841113)
(0.0009344821 2.0972717e-05 -0.00050109224)
(0.00098307143 -3.8431413e-05 -0.00024483374)
(0.00080506162 -4.6331099e-05 -0.00010151902)
(0.00076538889 -4.2320948e-05 -1.8724109e-05)
(0.0007757791 -4.3102206e-05 6.100111e-05)
(0.00077040743 -4.8564992e-05 0.00021615976)
(0.0006937058 -4.17249e-05 0.00023406241)
(0.00065767031 -3.0318227e-05 0.00022114252)
(0.00064333352 -1.8236121e-05 0.00018535403)
(0.00064486961 -8.0249772e-06 0.00014662561)
(0.00065542651 -5.2819504e-07 0.00011144217)
(0.00067069391 3.9767659e-06 8.2091438e-05)
(0.00068640075 5.6309033e-06 5.8683676e-05)
(0.00070017888 5.3539651e-06 4.0602497e-05)
(0.0007110597 4.2110487e-06 2.7107552e-05)
(0.00071891063 2.9348489e-06 1.7466568e-05)
(0.00072425602 1.887345e-06 1.0954166e-05)
(0.00072912545 1.3841279e-06 6.9683154e-06)
(0.0009414529 6.2462644e-05 5.2672193e-07)
(0.00092590372 7.0566849e-05 7.6648352e-07)
(0.00087173843 6.2418342e-05 7.1602274e-08)
(0.00082214345 5.2130914e-05 -1.9539574e-06)
(0.00078234665 4.1603744e-05 -5.7492798e-06)
(0.00074731942 3.1530722e-05 -1.1789374e-05)
(0.00071254377 2.2314876e-05 -2.1348119e-05)
(0.00067405487 1.324389e-05 -3.684306e-05)
(0.00062620043 2.2667983e-06 -6.2898903e-05)
(0.00056352993 -1.3532095e-05 -0.00010913803)
(0.00047606947 -3.8751009e-05 -0.00019452788)
(0.00033315487 -7.5884324e-05 -0.00034483548)
(0.00014878827 -0.00010296522 -0.00047611269)
(6.2676387e-05 6.6747274e-05 0.00019980055)
(9.7355825e-05 3.8708972e-05 0.0001842253)
(0.00024060324 1.9053485e-05 0.00015743122)
(0.0003294186 6.0728079e-07 0.00011838318)
(0.00042260121 -1.1399564e-05 8.6702924e-05)
(0.00050206327 -1.6760735e-05 6.2001997e-05)
(0.00056694893 -1.7544901e-05 4.3163347e-05)
(0.00061801535 -1.5651486e-05 2.9230197e-05)
(0.00065655608 -1.2511865e-05 1.918772e-05)
(0.00068434196 -9.1868999e-06 1.216081e-05)
(0.00070347373 -6.3793391e-06 7.462322e-06)
(0.00071629363 -4.4425628e-06 4.5296188e-06)
(0.00072907983 -4.1562089e-06 2.879591e-06)
(0.0010127805 5.9284874e-05 7.3442234e-07)
(0.0010539367 6.7287484e-05 1.279386e-06)
(0.0010948685 6.2136848e-05 8.9148371e-07)
(0.0011291836 5.4226723e-05 -8.8851573e-07)
(0.0011558782 4.4837025e-05 -4.5544237e-06)
(0.0011731825 3.4883693e-05 -1.076582e-05)
(0.001178179 2.5067952e-05 -2.079759e-05)
(0.0011666028 1.5085539e-05 -3.7345075e-05)
(0.0011318194 3.3155402e-06 -6.5821239e-05)
(0.0010598766 -1.3373351e-05 -0.00011728642)
(0.00093138115 -4.1090953e-05 -0.00021581694)
(0.00068348953 -8.8492994e-05 -0.00040408836)
(0.00032781358 -0.00014321578 -0.00062456127)
(0.00014755713 9.1191758e-05 0.00027047596)
(0.00024728205 5.677321e-05 0.00025846655)
(0.00047519216 2.9687813e-05 0.00023979131)
(0.00062808833 8.0413798e-06 0.00020588389)
(0.00076631227 -8.4060445e-06 0.00017172453)
(0.00088466171 -1.774187e-05 0.00014144416)
(0.00098280587 -2.1561182e-05 0.00011489933)
(0.0010632968 -2.1571791e-05 9.1534232e-05)
(0.0011283446 -1.9203649e-05 7.118167e-05)
(0.0011797347 -1.5688488e-05 5.3876369e-05)
(0.0012191265 -1.2045268e-05 3.961466e-05)
(0.0012482982 -9.0943355e-06 2.8229946e-05)
(0.001275764 -7.6579102e-06 1.9590597e-05)
(0.0010184207 1.3746642e-12 7.5311833e-07)
(0.001074244 5.9068762e-12 1.3475545e-06)
(0.0011358088 1.3971641e-11 1.0350546e-06)
(0.0011906001 2.3532357e-11 -6.3112676e-07)
(0.00123542 3.0340091e-11 -4.1391676e-06)
(0.0012679738 3.0155144e-11 -1.0155066e-05)
(0.0012851258 2.1263189e-11 -1.9898812e-05)
(0.0012824743 5.47347e-12 -3.5987612e-05)
(0.0012530145 -1.2852469e-11 -6.3681436e-05)