/*--------------------------------*- C++ -*----------------------------------*\
| =========                 |                                                 |
| \\      /  F ield         | OpenFOAM: The Open Source CFD Toolbox           |
|  \\    /   O peration     | Version:  2412                                  |
|   \\  /    A nd           | Website:  www.openfoam.com                      |
|    \\/     M anipulation  |                                                 |
\*---------------------------------------------------------------------------*/
FoamFile
{
    version     2.0;
    format      ascii;
    arch        "LSB;label=32;scalar=64";
    class       volScalarField;
    location    "70/rightSolid";
    object      T;
}
// * * * * * * * * * * * * * * * * * * * * * * * * * * * * * * * * * * * * * //

dimensions      [0 0 0 1 0 0 0];

internalField   nonuniform List<scalar> 
130
(
317.80637
315.48079
313.13577
310.90588
308.88174
307.11335
305.61891
304.3948
303.42449
302.68565
302.15536
301.81382
301.64674
320.19848
317.32111
314.49209
311.87369
309.5559
307.57466
305.93051
304.60353
303.56394
302.77948
302.22024
301.86172
301.68678
325.04437
320.8954
317.02399
313.62024
310.73952
308.36717
306.45691
304.95164
303.79428
302.93341
302.32615
301.93965
301.75185
332.31246
325.76385
320.20867
315.68531
312.07513
309.23096
307.01625
305.31481
304.03149
303.09053
302.43364
302.01848
301.81756
340.83791
330.34714
322.80124
317.21188
313.00129
309.80513
307.37785
305.54543
304.18046
303.18856
302.5005
302.06749
301.85844
340.83789
330.34713
322.80124
317.21187
313.00129
309.80514
307.37786
305.54543
304.18046
303.18856
302.5005
302.06749
301.85845
332.31244
325.76383
320.20867
315.68531
312.07514
309.23097
307.01626
305.31481
304.03149
303.09053
302.43364
302.01848
301.81757
325.04438
320.89541
317.024
313.62026
310.73954
308.36718
306.45693
304.95165
303.79429
302.93342
302.32615
301.93965
301.75185
320.19851
317.32114
314.49211
311.87371
309.55592
307.57467
305.93054
304.60354
303.56394
302.77949
302.22025
301.86172
301.68679
317.80641
315.48083
313.13579
310.9059
308.88176
307.11337
305.61893
304.39481
303.4245
302.68566
302.15537
301.81383
301.64675
)
;

boundaryField
{
    maxX
    {
        type            zeroGradient;
    }
    minZ
    {
        type            zeroGradient;
    }
    maxZ
    {
        type            zeroGradient;
    }
    rightSolid_to_bottomWater
    {
        type            compressible::turbulentTemperatureRadCoupledMixed;
        refValue        nonuniform List<scalar> 
130
(
301.86094
301.74963
301.55802
301.32156
301.07374
300.84082
300.63888
300.47433
300.34665
300.25157
300.18381
300.13842
300.11162
302.14368
302.10295
301.952
301.72314
301.45254
301.17415
300.91444
300.68989
300.50741
300.36676
300.26352
300.19175
300.14607
303.28159
303.14311
302.85744
302.47427
302.04778
301.62653
301.24589
300.92534
300.67044
300.47726
300.33708
300.24008
300.17782
308.86657
307.24351
305.69051
304.33434
303.22146
302.34614
301.68021
301.18731
300.83103
300.57893
300.40332
300.28399
300.20747
317.49926
307.93468
305.10694
303.60124
302.60166
301.89346
301.37899
301.00058
300.72178
300.51771
300.37069
300.26788
300.20059
317.49928
307.9347
305.10696
303.60126
302.60167
301.89347
301.379
301.00058
300.72178
300.51771
300.37069
300.26788
300.20059
308.86658
307.24351
305.69052
304.33435
303.22147
302.34615
301.68022
301.18732
300.83104
300.57893
300.40333
300.284
300.20747
303.28159
303.14312
302.85744
302.47428
302.04779
301.62654
301.2459
300.92535
300.67045
300.47727
300.33708
300.24009
300.17783
302.14368
302.10296
301.952
301.72315
301.45255
301.17416
300.91445
300.6899
300.50742
300.36676
300.26352
300.19175
300.14607
301.86094
301.74964
301.55803
301.32157
301.07375
300.84083
300.63889
300.47434
300.34666
300.25157
300.18381
300.13842
300.11162
)
;
        refGradient     uniform 0;
        valueFraction   uniform 0.0075140686;
        source          uniform 0;
        logInterval     -1;
        writePrecision  8;
        updateHeader    1;
        writeToFile     0;
        useUserTime     1;
        kappaMethod     solidThermo;
        value           nonuniform List<scalar> 
130
(
317.67726
315.36901
313.04091
310.8268
308.81682
307.06075
305.57676
304.36129
303.3979
302.66437
302.13792
301.79886
301.63296
320.05348
317.1981
314.38994
311.79029
309.4887
307.52105
305.88806
304.57004
303.53747
302.75834
302.2029
301.84678
301.67294
324.87145
320.75326
316.90953
313.52928
310.66782
308.31093
306.41292
304.91725
303.76726
302.9119
302.30853
301.92446
301.73773
332.12689
325.61587
320.09148
315.5927
312.00211
309.17355
306.97125
305.2796
304.00385
303.06857
302.41567
302.003
301.80315
340.65324
330.16992
322.66015
317.10225
312.91662
309.73997
307.32784
305.50705
304.15085
303.16538
302.48177
302.0515
301.84366
340.65323
330.16991
322.66015
317.10224
312.91662
309.73997
307.32785
305.50705
304.15085
303.16538
302.48177
302.05151
301.84366
332.12687
325.61585
320.09148
315.59271
312.00212
309.17356
306.97127
305.2796
304.00386
303.06857
302.41568
302.003
301.80315
324.87146
320.75327
316.90954
313.52929
310.66783
308.31094
306.41294
304.91725
303.76727
302.91191
302.30853
301.92446
301.73773
320.05351
317.19812
314.38996
311.79031
309.48872
307.52107
305.88808
304.57005
303.53748
302.75835
302.2029
301.84678
301.67295
317.67731
315.36904
313.04094
310.82682
308.81684
307.06077
305.57679
304.3613
303.39791
302.66438
302.13793
301.79887
301.63297
)
;
    }
    rightSolid_to_topAir
    {
        type            compressible::turbulentTemperatureRadCoupledMixed;
        refValue        nonuniform List<scalar> 
130
(
305.04452
305.49412
305.76998
305.89155
305.88281
305.77008
305.58022
305.33942
305.05858
304.75502
304.44406
304.13772
303.85656
304.98572
305.42995
305.70181
305.8235
305.82066
305.71978
305.54682
305.32637
305.08123
304.83306
304.60178
304.36734
304.14539
306.17058
306.65331
306.91486
306.99302
306.92629
306.75104
306.50037
306.20414
305.88946
305.58124
305.29848
305.01875
304.76007
308.35811
308.90845
309.15896
309.17943
309.02895
308.75567
308.39833
307.98804
307.55006
307.10527
306.67125
306.2611
305.89575
311.41238
311.90671
312.02651
311.88788
311.57163
311.13592
310.62358
310.06651
309.48877
308.9087
308.34063
307.79599
307.2961
311.41238
311.90671
312.02651
311.88788
311.57162
311.13592
310.62358
310.06651
309.48877
308.90871
308.34064
307.79599
307.29611
308.35811
308.90845
309.15896
309.17943
309.02895
308.75567
308.39832
307.98804
307.55006
307.10527
306.67125
306.2611
305.89575
306.17058
306.65331
306.91486
306.99303
306.92629
306.75104
306.50037
306.20414
305.88946
305.58125
305.29848
305.01875
304.76008
304.98572
305.42995
305.70181
305.82351
305.82067
305.71978
305.54683
305.32637
305.08124
304.83306
304.60179
304.36735
304.14539
305.04453
305.49413
305.76999
305.89156
305.88282
305.77009
305.58023
305.33943
305.05859
304.75503
304.44407
304.13773
303.85657
)
;
        refGradient     uniform 0;
        valueFraction   uniform 0.00032132529;
        source          uniform 0;
        logInterval     -1;
        writePrecision  8;
        updateHeader    1;
        writeToFile     0;
        useUserTime     1;
        kappaMethod     solidThermo;
        value           nonuniform List<scalar> 
130
(
317.79291
315.46891
313.12548
310.89715
308.87448
307.10741
305.61414
304.39103
303.42153
302.6833
302.15346
301.81218
301.64519
320.18419
317.30856
314.48129
311.86457
309.54835
307.56851
305.92559
304.59965
303.5609
302.77711
302.21835
301.86011
301.68529
325.02885
320.88201
317.01267
313.61085
310.73185
308.36102
306.45206
304.94787
303.79138
302.93119
302.32441
301.9382
301.75051
332.2953
325.74955
320.19696
315.67585
312.06762
309.22509
307.01175
305.31144
304.02901
303.08871
302.43227
302.01738
301.81654
340.81909
330.33234
322.78959
317.20276
312.99425
309.79981
307.37393
305.54262
304.17852
303.18727
302.49963
302.06685
301.85784
340.81907
330.33233
322.78958
317.20275
312.99425
309.79981
307.37393
305.54262
304.17852
303.18727
302.49963
302.06685
301.85785
332.29528
325.74953
320.19696
315.67586
312.06762
309.2251
307.01177
305.31144
304.02901
303.08871
302.43228
302.01738
301.81655
325.02885
320.88202
317.01268
313.61086
310.73187
308.36103
306.45208
304.94788
303.79139
302.93119
302.32442
301.93821
301.75051
320.18422
317.30859
314.48131
311.86459
309.54836
307.56852
305.92561
304.59966
303.56091
302.77712
302.21835
301.86012
301.6853
317.79296
315.46895
313.12551
310.89718
308.8745
307.10743
305.61416
304.39104
303.42154
302.68331
302.15346
301.81219
301.64519
)
;
    }
    rightSolid_to_heater
    {
        type            compressible::turbulentTemperatureRadCoupledMixed;
        refValue        nonuniform List<scalar> 10(319.94277 322.8859 329.06216 339.26795 356.07692 356.07693 339.26795 329.06217 322.88592 319.94283);
        refGradient     uniform 0;
        valueFraction   uniform 0.50000003;
        source          uniform 0;
        logInterval     -1;
        writePrecision  8;
        updateHeader    1;
        writeToFile     0;
        useUserTime     1;
        kappaMethod     solidThermo;
        value           nonuniform List<scalar> 10(318.86989 321.53749 327.04854 335.78547 348.45273 348.45273 335.78546 327.04854 321.53751 318.86994);
    }
}


// ************************************************************************* //
