/*--------------------------------*- C++ -*----------------------------------*\
| =========                 |                                                 |
| \\      /  F ield         | OpenFOAM: The Open Source CFD Toolbox           |
|  \\    /   O peration     | Version:  2412                                  |
|   \\  /    A nd           | Website:  www.openfoam.com                      |
|    \\/     M anipulation  |                                                 |
\*---------------------------------------------------------------------------*/
FoamFile
{
    version     2.0;
    format      ascii;
    arch        "LSB;label=32;scalar=64";
    class       volScalarField;
    location    "70/bottomWater";
    object      p;
}
// * * * * * * * * * * * * * * * * * * * * * * * * * * * * * * * * * * * * * //

dimensions      [1 -1 -2 0 0 0 0];

internalField   nonuniform List<scalar> 
1460
(
353.16344
353.16309
353.16292
353.16279
353.16267
353.16255
353.16244
353.16233
353.16221
353.1621
353.16197
353.16184
353.16168
353.16151
353.16133
353.16117
353.16102
353.16089
353.16078
353.16068
353.1606
353.16053
353.16046
353.16039
353.16033
353.16027
353.16021
353.16015
353.16008
353.16002
274.68319
274.683
274.68287
274.68276
274.68264
274.68253
274.68242
274.68232
274.68221
274.68209
274.68197
274.68183
274.68168
274.68151
274.68134
274.68117
274.68102
274.68089
274.68077
274.68068
274.6806
274.68053
274.68046
274.68039
274.68033
274.68026
274.6802
274.68014
274.68008
274.68002
196.20323
196.20304
196.2029
196.20278
196.20266
196.20255
196.20244
196.20233
196.20221
196.20209
196.20197
196.20183
196.20168
196.20151
196.20134
196.20118
196.20102
196.20089
196.20078
196.20068
196.2006
196.20053
196.20046
196.20039
196.20033
196.20027
196.2002
196.20014
196.20008
196.20001
117.72319
117.723
117.72287
117.72276
117.72264
117.72253
117.72242
117.72232
117.72221
117.72209
117.72197
117.72183
117.72168
117.72151
117.72134
117.72117
117.72102
117.72089
117.72077
117.72068
117.7206
117.72053
117.72046
117.72039
117.72033
117.72026
117.7202
117.72014
117.72008
117.72002
39.243438
39.243087
39.242924
39.242792
39.242668
39.242551
39.242438
39.242327
39.242214
39.242097
39.241973
39.241836
39.241683
39.241508
39.241332
39.241167
39.241018
39.240887
39.240776
39.240683
39.240601
39.240528
39.240459
39.240394
39.240331
39.240268
39.240207
39.240145
39.240085
39.240023
353.16323
353.163
353.16286
353.16275
353.16264
353.16254
353.16243
353.16233
353.16222
353.16211
353.16198
353.16183
353.16165
353.16143
353.16124
353.16109
353.16096
353.16083
353.16073
353.16065
353.16058
353.16052
353.16045
353.16039
353.16033
353.16027
353.16021
353.16015
353.16008
353.16002
274.68299
274.68292
274.68283
274.68273
274.68263
274.68253
274.68242
274.68232
274.68222
274.68211
274.68198
274.68183
274.68165
274.68142
274.68123
274.68108
274.68095
274.68083
274.68073
274.68065
274.68058
274.68052
274.68045
274.68039
274.68033
274.68027
274.68021
274.68014
274.68008
274.68001
196.20303
196.20296
196.20286
196.20276
196.20265
196.20255
196.20244
196.20233
196.20223
196.20211
196.20199
196.20184
196.20165
196.20142
196.20123
196.20109
196.20095
196.20083
196.20073
196.20066
196.20059
196.20052
196.20046
196.20039
196.20033
196.20027
196.20021
196.20014
196.20008
196.20001
117.72299
117.72292
117.72283
117.72273
117.72263
117.72253
117.72242
117.72232
117.72222
117.72211
117.72198
117.72183
117.72165
117.72142
117.72123
117.72108
117.72095
117.72083
117.72073
117.72065
117.72058
117.72052
117.72045
117.72039
117.72033
117.72027
117.72021
117.72014
117.72008
117.72001
39.243229
39.242997
39.242864
39.242754
39.242645
39.242537
39.242433
39.24233
39.242224
39.24211
39.241983
39.241833
39.241652
39.241425
39.241244
39.241093
39.240956
39.240833
39.240734
39.240653
39.240582
39.240516
39.240452
39.24039
39.240329
39.240268
39.240207
39.240146
39.240085
39.240022
353.16322
353.163
353.16287
353.16277
353.16267
353.16257
353.16248
353.16239
353.16229
353.1622
353.16209
353.16196
353.16178
353.16147
353.16123
353.16104
353.16087
353.16073
353.16065
353.1606
353.16055
353.1605
353.16045
353.16039
353.16033
353.16028
353.16022
353.16015
353.16009
353.16003
274.68298
274.68292
274.68284
274.68275
274.68265
274.68256
274.68247
274.68238
274.68229
274.6822
274.6821
274.68197
274.68179
274.68146
274.68121
274.68102
274.68084
274.6807
274.68062
274.68058
274.68054
274.68049
274.68044
274.68039
274.68034
274.68028
274.68022
274.68016
274.68009
274.68003
196.20302
196.20296
196.20287
196.20277
196.20268
196.20258
196.20249
196.2024
196.20231
196.20221
196.20211
196.20198
196.2018
196.20147
196.20122
196.20102
196.20085
196.2007
196.20063
196.20059
196.20054
196.2005
196.20045
196.2004
196.20034
196.20028
196.20022
196.20016
196.20009
196.20002
117.72298
117.72292
117.72284
117.72275
117.72265
117.72256
117.72247
117.72238
117.72229
117.7222
117.7221
117.72197
117.72179
117.72146
117.72121
117.72102
117.72084
117.7207
117.72062
117.72058
117.72054
117.72049
117.72044
117.72039
117.72034
117.72028
117.72022
117.72016
117.72009
117.72003
39.243219
39.242997
39.242871
39.242768
39.242668
39.24257
39.242477
39.242386
39.242295
39.242199
39.242091
39.241957
39.241783
39.24147
39.241233
39.241042
39.240875
39.240728
39.24065
39.240597
39.240548
39.240499
39.240446
39.240391
39.240334
39.240276
39.240216
39.240155
39.240093
39.240029
353.16318
353.16297
353.16285
353.16276
353.16266
353.16258
353.16249
353.16241
353.16234
353.16225
353.16215
353.16199
353.16166
353.16084
353.16095
353.16085
353.16071
353.16052
353.16053
353.16052
353.16051
353.16048
353.16044
353.16039
353.16034
353.16028
353.16022
353.16016
353.1601
353.16004
274.68294
274.68289
274.68282
274.68273
274.68265
274.68257
274.68249
274.68241
274.68234
274.68226
274.68217
274.68201
274.68159
274.68058
274.68082
274.68079
274.68065
274.68047
274.68049
274.6805
274.6805
274.68047
274.68044
274.68039
274.68034
274.68029
274.68023
274.68017
274.68011
274.68004
196.20298
196.20293
196.20285
196.20276
196.20267
196.20259
196.2025
196.20242
196.20235
196.20227
196.20218
196.20201
196.20157
196.20054
196.20081
196.2008
196.20066
196.20049
196.2005
196.20051
196.20051
196.20048
196.20044
196.20039
196.20034
196.20029
196.20023
196.20017
196.2001
196.20004
117.72294
117.72289
117.72282
117.72273
117.72265
117.72257
117.72249
117.72241
117.72234
117.72226
117.72217
117.72201
117.72159
117.72058
117.72082
117.72079
117.72065
117.72047
117.72049
117.7205
117.7205
117.72047
117.72044
117.72039
117.72034
117.72029
117.72023
117.72017
117.72011
117.72004
39.243181
39.242967
39.24285
39.242756
39.242664
39.242576
39.242492
39.242414
39.242336
39.242254
39.242153
39.241985
39.241656
39.24084
39.24095
39.240847
39.24071
39.240522
39.240533
39.240525
39.240506
39.240476
39.240435
39.240388
39.240336
39.24028
39.240221
39.240161
39.2401
39.240039
353.16318
353.16297
353.16286
353.16277
353.16268
353.1626
353.16253
353.16248
353.16244
353.16242
353.16245
353.16251
353.16265
353.16019
353.16041
353.16045
353.16049
353.16048
353.16045
353.16041
353.16036
353.1603
353.16024
353.16018
353.16011
353.16005
274.68294
274.68289
274.68282
274.68274
274.68267
274.68259
274.68253
274.68247
274.68245
274.68246
274.68252
274.68265
274.68294
274.68005
274.68037
274.68044
274.68049
274.6805
274.68047
274.68043
274.68037
274.68031
274.68025
274.68019
274.68012
274.68006
196.20298
196.20293
196.20285
196.20277
196.20269
196.20261
196.20254
196.20249
196.20246
196.20247
196.20254
196.2027
196.20306
196.20005
196.20038
196.20044
196.2005
196.2005
196.20047
196.20043
196.20037
196.20032
196.20025
196.20019
196.20012
196.20007
117.72294
117.72289
117.72282
117.72274
117.72267
117.72259
117.72253
117.72247
117.72245
117.72246
117.72252
117.72265
117.72294
117.72005
117.72037
117.72044
117.72049
117.7205
117.72047
117.72043
117.72037
117.72031
117.72025
117.72019
117.72012
117.72006
39.24318
39.242968
39.242855
39.242766
39.24268
39.242601
39.242532
39.242477
39.242438
39.242423
39.242446
39.242509
39.242646
39.240192
39.240409
39.240447
39.240488
39.240481
39.240451
39.240408
39.240357
39.240301
39.240241
39.240178
39.240113
39.240052
353.16318
353.16297
353.16286
353.16277
353.16268
353.1626
353.16253
353.16248
353.16244
353.16242
353.16245
353.16251
353.16265
353.16019
353.16041
353.16045
353.16049
353.16048
353.16045
353.16041
353.16036
353.1603
353.16024
353.16018
353.16011
353.16005
274.68294
274.68289
274.68282
274.68274
274.68267
274.68259
274.68253
274.68247
274.68245
274.68246
274.68252
274.68265
274.68294
274.68005
274.68037
274.68044
274.68049
274.6805
274.68047
274.68043
274.68037
274.68031
274.68025
274.68019
274.68012
274.68006
196.20298
196.20293
196.20285
196.20277
196.20269
196.20261
196.20254
196.20249
196.20246
196.20247
196.20254
196.2027
196.20306
196.20005
196.20038
196.20044
196.2005
196.2005
196.20047
196.20043
196.20037
196.20032
196.20025
196.20019
196.20012
196.20007
117.72294
117.72289
117.72282
117.72274
117.72267
117.72259
117.72253
117.72247
117.72245
117.72246
117.72252
117.72265
117.72294
117.72005
117.72037
117.72044
117.72049
117.7205
117.72047
117.72043
117.72037
117.72031
117.72025
117.72019
117.72012
117.72006
39.24318
39.242968
39.242855
39.242766
39.24268
39.242601
39.242532
39.242477
39.242438
39.242423
39.242446
39.242509
39.242646
39.240192
39.240409
39.240447
39.240488
39.240481
39.240451
39.240408
39.240357
39.240301
39.240241
39.240178
39.240113
39.240052
353.16318
353.16297
353.16285
353.16276
353.16266
353.16258
353.16249
353.16241
353.16234
353.16225
353.16215
353.16199
353.16166
353.16084
353.16095
353.16085
353.16071
353.16052
353.16053
353.16052
353.16051
353.16048
353.16044
353.16039
353.16034
353.16028
353.16022
353.16016
353.1601
353.16004
274.68294
274.68289
274.68282
274.68273
274.68265
274.68257
274.68249
274.68241
274.68234
274.68226
274.68217
274.68201
274.68159
274.68058
274.68082
274.68079
274.68065
274.68047
274.68049
274.6805
274.6805
274.68047
274.68044
274.68039
274.68034
274.68029
274.68023
274.68017
274.68011
274.68004
196.20298
196.20293
196.20285
196.20276
196.20267
196.20259
196.2025
196.20242
196.20235
196.20227
196.20218
196.20201
196.20157
196.20054
196.20081
196.2008
196.20066
196.20049
196.2005
196.20051
196.20051
196.20048
196.20044
196.20039
196.20034
196.20029
196.20023
196.20017
196.2001
196.20004
117.72294
117.72289
117.72282
117.72273
117.72265
117.72257
117.72249
117.72241
117.72234
117.72226
117.72217
117.72201
117.72159
117.72058
117.72082
117.72079
117.72065
117.72047
117.72049
117.7205
117.7205
117.72047
117.72044
117.72039
117.72034
117.72029
117.72023
117.72017
117.72011
117.72004
39.243181
39.242967
39.24285
39.242756
39.242664
39.242576
39.242492
39.242414
39.242336
39.242254
39.242153
39.241985
39.241656
39.24084
39.24095
39.240847
39.24071
39.240522
39.240533
39.240525
39.240506
39.240476
39.240435
39.240388
39.240336
39.24028
39.240221
39.240161
39.2401
39.240039
353.16322
353.163
353.16287
353.16277
353.16267
353.16257
353.16248
353.16239
353.16229
353.1622
353.16209
353.16196
353.16178
353.16147
353.16123
353.16104
353.16087
353.16073
353.16065
353.1606
353.16055
353.1605
353.16045
353.16039
353.16033
353.16028
353.16022
353.16015
353.16009
353.16003
274.68298
274.68292
274.68284
274.68275
274.68265
274.68256
274.68247
274.68238
274.68229
274.6822
274.6821
274.68197
274.68179
274.68146
274.68121
274.68102
274.68084
274.6807
274.68062
274.68058
274.68054
274.68049
274.68044
274.68039
274.68034
274.68028
274.68022
274.68016
274.68009
274.68003
196.20302
196.20296
196.20287
196.20277
196.20268
196.20258
196.20249
196.2024
196.20231
196.20221
196.20211
196.20198
196.2018
196.20147
196.20122
196.20102
196.20085
196.2007
196.20063
196.20059
196.20054
196.2005
196.20045
196.2004
196.20034
196.20028
196.20022
196.20016
196.20009
196.20002
117.72298
117.72292
117.72284
117.72275
117.72265
117.72256
117.72247
117.72238
117.72229
117.7222
117.7221
117.72197
117.72179
117.72146
117.72121
117.72102
117.72084
117.7207
117.72062
117.72058
117.72054
117.72049
117.72044
117.72039
117.72034
117.72028
117.72022
117.72016
117.72009
117.72003
39.243219
39.242997
39.242871
39.242768
39.242668
39.24257
39.242477
39.242386
39.242295
39.242199
39.242091
39.241957
39.241783
39.24147
39.241233
39.241042
39.240875
39.240728
39.24065
39.240597
39.240548
39.240499
39.240446
39.240391
39.240334
39.240276
39.240216
39.240155
39.240093
39.240029
353.16323
353.163
353.16286
353.16275
353.16264
353.16254
353.16243
353.16233
353.16222
353.16211
353.16198
353.16183
353.16165
353.16143
353.16124
353.16109
353.16096
353.16083
353.16073
353.16065
353.16058
353.16052
353.16045
353.16039
353.16033
353.16027
353.16021
353.16015
353.16008
353.16002
274.68299
274.68292
274.68283
274.68273
274.68263
274.68253
274.68242
274.68232
274.68222
274.68211
274.68198
274.68183
274.68165
274.68142
274.68123
274.68108
274.68095
274.68083
274.68073
274.68065
274.68058
274.68052
274.68045
274.68039
274.68033
274.68027
274.68021
274.68014
274.68008
274.68001
196.20303
196.20296
196.20286
196.20276
196.20265
196.20255
196.20244
196.20233
196.20223
196.20211
196.20199
196.20184
196.20165
196.20142
196.20123
196.20109
196.20095
196.20083
196.20073
196.20066
196.20059
196.20052
196.20046
196.20039
196.20033
196.20027
196.20021
196.20014
196.20008
196.20001
117.72299
117.72292
117.72283
117.72273
117.72263
117.72253
117.72242
117.72232
117.72222
117.72211
117.72198
117.72183
117.72165
117.72142
117.72123
117.72108
117.72095
117.72083
117.72073
117.72065
117.72058
117.72052
117.72045
117.72039
117.72033
117.72027
117.72021
117.72014
117.72008
117.72001
39.243229
39.242997
39.242864
39.242754
39.242645
39.242537
39.242433
39.24233
39.242224
39.24211
39.241983
39.241833
39.241652
39.241425
39.241244
39.241093
39.240956
39.240833
39.240734
39.240653
39.240582
39.240516
39.240452
39.24039
39.240329
39.240268
39.240207
39.240146
39.240085
39.240022
353.16344
353.16309
353.16292
353.16279
353.16267
353.16255
353.16244
353.16233
353.16221
353.1621
353.16197
353.16184
353.16168
353.16151
353.16133
353.16117
353.16102
353.16089
353.16078
353.16068
353.1606
353.16053
353.16046
353.16039
353.16033
353.16027
353.16021
353.16015
353.16008
353.16002
274.68319
274.683
274.68287
274.68276
274.68264
274.68253
274.68242
274.68232
274.68221
274.68209
274.68197
274.68183
274.68168
274.68151
274.68134
274.68117
274.68102
274.68089
274.68077
274.68068
274.6806
274.68053
274.68046
274.68039
274.68033
274.68026
274.6802
274.68014
274.68008
274.68002
196.20323
196.20304
196.2029
196.20278
196.20266
196.20255
196.20244
196.20233
196.20221
196.20209
196.20197
196.20183
196.20168
196.20151
196.20134
196.20118
196.20102
196.20089
196.20078
196.20068
196.2006
196.20053
196.20046
196.20039
196.20033
196.20027
196.2002
196.20014
196.20008
196.20001
117.72319
117.723
117.72287
117.72276
117.72264
117.72253
117.72242
117.72232
117.72221
117.72209
117.72197
117.72183
117.72168
117.72151
117.72134
117.72117
117.72102
117.72089
117.72077
117.72068
117.7206
117.72053
117.72046
117.72039
117.72033
117.72026
117.7202
117.72014
117.72008
117.72002
39.243438
39.243087
39.242924
39.242792
39.242668
39.242551
39.242438
39.242327
39.242214
39.242097
39.241973
39.241836
39.241683
39.241508
39.241332
39.241167
39.241018
39.240887
39.240776
39.240683
39.240601
39.240528
39.240459
39.240394
39.240331
39.240268
39.240207
39.240145
39.240085
39.240023
)
;

boundaryField
{
    minX
    {
        type            calculated;
        value           nonuniform List<scalar> 
50
(
353.16344
274.68319
196.20323
117.72319
39.243438
353.16323
274.68299
196.20303
117.72299
39.243229
353.16322
274.68298
196.20302
117.72298
39.243219
353.16318
274.68294
196.20298
117.72294
39.243181
353.16318
274.68294
196.20298
117.72294
39.24318
353.16318
274.68294
196.20298
117.72294
39.24318
353.16318
274.68294
196.20298
117.72294
39.243181
353.16322
274.68298
196.20302
117.72298
39.243219
353.16323
274.68299
196.20303
117.72299
39.243229
353.16344
274.68319
196.20323
117.72319
39.243438
)
;
    }
    maxX
    {
        type            calculated;
        value           nonuniform List<scalar> 
50
(
353.16
274.68
196.2
117.72
39.24
353.16
274.68
196.2
117.72
39.24
353.16
274.68
196.2
117.72
39.24
353.16
274.68
196.2
117.72
39.24
353.16
274.68
196.2
117.72
39.24
353.16
274.68
196.2
117.72
39.24
353.16
274.68
196.2
117.72
39.24
353.16
274.68
196.2
117.72
39.24
353.16
274.68
196.2
117.72
39.24
353.16
274.68
196.2
117.72
39.24
)
;
    }
    minY
    {
        type            calculated;
        value           nonuniform List<scalar> 
292
(
392.40344
392.40323
392.40322
392.40318
392.40318
392.40318
392.40318
392.40322
392.40323
392.40344
392.40309
392.403
392.403
392.40297
392.40297
392.40297
392.40297
392.403
392.403
392.40309
392.40292
392.40286
392.40287
392.40285
392.40286
392.40286
392.40285
392.40287
392.40286
392.40292
392.40279
392.40275
392.40277
392.40276
392.40277
392.40277
392.40276
392.40277
392.40275
392.40279
392.40267
392.40264
392.40267
392.40266
392.40268
392.40268
392.40266
392.40267
392.40264
392.40267
392.40255
392.40254
392.40257
392.40258
392.4026
392.4026
392.40258
392.40257
392.40254
392.40255
392.40244
392.40243
392.40248
392.40249
392.40253
392.40253
392.40249
392.40248
392.40243
392.40244
392.40233
392.40233
392.40239
392.40241
392.40248
392.40248
392.40241
392.40239
392.40233
392.40233
392.40221
392.40222
392.40229
392.40234
392.40244
392.40244
392.40234
392.40229
392.40222
392.40221
392.4021
392.40211
392.4022
392.40225
392.40242
392.40242
392.40225
392.4022
392.40211
392.4021
392.40197
392.40198
392.40209
392.40215
392.40245
392.40245
392.40215
392.40209
392.40198
392.40197
392.40184
392.40183
392.40196
392.40199
392.40251
392.40251
392.40199
392.40196
392.40183
392.40184
392.40168
392.40165
392.40178
392.40166
392.40265
392.40265
392.40166
392.40178
392.40165
392.40168
392.40151
392.40143
392.40147
392.40084
392.40084
392.40147
392.40143
392.40151
392.40133
392.40124
392.40123
392.40095
392.40095
392.40123
392.40124
392.40133
392.40117
392.40109
392.40104
392.40085
392.40085
392.40104
392.40109
392.40117
392.40102
392.40096
392.40087
392.40071
392.40071
392.40087
392.40096
392.40102
392.40089
392.40083
392.40073
392.40052
392.40019
392.40019
392.40052
392.40073
392.40083
392.40089
392.40078
392.40073
392.40065
392.40053
392.40041
392.40041
392.40053
392.40065
392.40073
392.40078
392.40068
392.40065
392.4006
392.40052
392.40045
392.40045
392.40052
392.4006
392.40065
392.40068
392.4006
392.40058
392.40055
392.40051
392.40049
392.40049
392.40051
392.40055
392.40058
392.4006
392.40053
392.40052
392.4005
392.40048
392.40048
392.40048
392.40048
392.4005
392.40052
392.40053
392.40046
392.40045
392.40045
392.40044
392.40045
392.40045
392.40044
392.40045
392.40045
392.40046
392.40039
392.40039
392.40039
392.40039
392.40041
392.40041
392.40039
392.40039
392.40039
392.40039
392.40033
392.40033
392.40033
392.40034
392.40036
392.40036
392.40034
392.40033
392.40033
392.40033
392.40027
392.40027
392.40028
392.40028
392.4003
392.4003
392.40028
392.40028
392.40027
392.40027
392.40021
392.40021
392.40022
392.40022
392.40024
392.40024
392.40022
392.40022
392.40021
392.40021
392.40015
392.40015
392.40015
392.40016
392.40018
392.40018
392.40016
392.40015
392.40015
392.40015
392.40008
392.40008
392.40009
392.4001
392.40011
392.40011
392.4001
392.40009
392.40008
392.40008
392.40002
392.40002
392.40003
392.40004
392.40005
392.40005
392.40004
392.40003
392.40002
392.40002
)
;
    }
    minZ
    {
        type            calculated;
        value           nonuniform List<scalar> 
150
(
353.16344
274.68319
196.20323
117.72319
39.243438
353.16309
274.683
196.20304
117.723
39.243087
353.16292
274.68287
196.2029
117.72287
39.242924
353.16279
274.68276
196.20278
117.72276
39.242792
353.16267
274.68264
196.20266
117.72264
39.242668
353.16255
274.68253
196.20255
117.72253
39.242551
353.16244
274.68242
196.20244
117.72242
39.242438
353.16233
274.68232
196.20233
117.72232
39.242327
353.16221
274.68221
196.20221
117.72221
39.242214
353.1621
274.68209
196.20209
117.72209
39.242097
353.16197
274.68197
196.20197
117.72197
39.241973
353.16184
274.68183
196.20183
117.72183
39.241836
353.16168
274.68168
196.20168
117.72168
39.241683
353.16151
274.68151
196.20151
117.72151
39.241508
353.16133
274.68134
196.20134
117.72134
39.241332
353.16117
274.68117
196.20118
117.72117
39.241167
353.16102
274.68102
196.20102
117.72102
39.241018
353.16089
274.68089
196.20089
117.72089
39.240887
353.16078
274.68077
196.20078
117.72077
39.240776
353.16068
274.68068
196.20068
117.72068
39.240683
353.1606
274.6806
196.2006
117.7206
39.240601
353.16053
274.68053
196.20053
117.72053
39.240528
353.16046
274.68046
196.20046
117.72046
39.240459
353.16039
274.68039
196.20039
117.72039
39.240394
353.16033
274.68033
196.20033
117.72033
39.240331
353.16027
274.68026
196.20027
117.72026
39.240268
353.16021
274.6802
196.2002
117.7202
39.240207
353.16015
274.68014
196.20014
117.72014
39.240145
353.16008
274.68008
196.20008
117.72008
39.240085
353.16002
274.68002
196.20001
117.72002
39.240023
)
;
    }
    maxZ
    {
        type            calculated;
        value           nonuniform List<scalar> 
150
(
353.16344
274.68319
196.20323
117.72319
39.243438
353.16309
274.683
196.20304
117.723
39.243087
353.16292
274.68287
196.2029
117.72287
39.242924
353.16279
274.68276
196.20278
117.72276
39.242792
353.16267
274.68264
196.20266
117.72264
39.242668
353.16255
274.68253
196.20255
117.72253
39.242551
353.16244
274.68242
196.20244
117.72242
39.242438
353.16233
274.68232
196.20233
117.72232
39.242327
353.16221
274.68221
196.20221
117.72221
39.242214
353.1621
274.68209
196.20209
117.72209
39.242097
353.16197
274.68197
196.20197
117.72197
39.241973
353.16184
274.68183
196.20183
117.72183
39.241836
353.16168
274.68168
196.20168
117.72168
39.241683
353.16151
274.68151
196.20151
117.72151
39.241508
353.16133
274.68134
196.20134
117.72134
39.241332
353.16117
274.68117
196.20118
117.72117
39.241167
353.16102
274.68102
196.20102
117.72102
39.241018
353.16089
274.68089
196.20089
117.72089
39.240887
353.16078
274.68077
196.20078
117.72077
39.240776
353.16068
274.68068
196.20068
117.72068
39.240683
353.1606
274.6806
196.2006
117.7206
39.240601
353.16053
274.68053
196.20053
117.72053
39.240528
353.16046
274.68046
196.20046
117.72046
39.240459
353.16039
274.68039
196.20039
117.72039
39.240394
353.16033
274.68033
196.20033
117.72033
39.240331
353.16027
274.68026
196.20027
117.72026
39.240268
353.16021
274.6802
196.2002
117.7202
39.240207
353.16015
274.68014
196.20014
117.72014
39.240145
353.16008
274.68008
196.20008
117.72008
39.240085
353.16002
274.68002
196.20001
117.72002
39.240023
)
;
    }
    bottomWater_to_rightSolid
    {
        type            calculated;
        value           nonuniform List<scalar> 
130
(
0.00088701801
0.00077623323
0.00068277135
0.00060145772
0.00052797702
0.00045949214
0.00039414132
0.00033068023
0.0002683077
0.00020659374
0.00014542784
8.4757223e-05
2.3060738e-05
0.00083315052
0.00073390017
0.00065321063
0.00058213127
0.00051594328
0.00045240375
0.00039030341
0.00032895155
0.00026792571
0.00020700488
0.00014608652
8.4928451e-05
2.2437308e-05
0.00072773358
0.00064990443
0.00059705118
0.0005484825
0.00049851094
0.00044603382
0.00039122542
0.00033440091
0.00027585982
0.00021586248
0.00015470781
9.2555635e-05
2.947119e-05
0.00052208567
0.00053263406
0.00052462496
0.00050607536
0.00047567079
0.00043542844
0.00038820934
0.00033592171
0.00027983311
0.00022135559
0.00016144604
0.00010024749
3.8910494e-05
0.00019162946
0.00040948382
0.00044719107
0.00048769634
0.00048065472
0.00045084212
0.00040800547
0.0003570614
0.00030073725
0.00024077974
0.00017811132
0.00011340103
5.2412698e-05
0.00019162944
0.00040948379
0.00044719103
0.00048769631
0.00048065468
0.00045084208
0.00040800543
0.00035706137
0.00030073723
0.00024077972
0.00017811131
0.00011340101
5.241268e-05
0.00052208562
0.00053263401
0.00052462491
0.00050607531
0.00047567074
0.00043542839
0.00038820929
0.00033592167
0.00027983307
0.00022135556
0.00016144602
0.00010024747
3.891047e-05
0.00072773353
0.00064990438
0.00059705113
0.00054848245
0.0004985109
0.00044603378
0.00039122538
0.00033440088
0.00027585979
0.00021586246
0.00015470779
9.2555621e-05
2.947117e-05
0.00083315047
0.00073390013
0.00065321059
0.00058213123
0.00051594324
0.00045240372
0.00039030338
0.00032895153
0.00026792569
0.00020700487
0.00014608651
8.492844e-05
2.2437285e-05
0.00088701797
0.00077623319
0.00068277131
0.00060145768
0.00052797699
0.0004594921
0.00039414129
0.00033068021
0.00026830768
0.00020659372
0.00014542783
8.4757211e-05
2.3060717e-05
)
;
    }
    bottomWater_to_leftSolid
    {
        type            calculated;
        value           nonuniform List<scalar> 
130
(
0.0034383158
0.0030866307
0.0029236168
0.0027922907
0.0026681091
0.0025506922
0.0024381894
0.0023270673
0.0022142635
0.0020972823
0.0019725439
0.0018357479
0.0016827552
0.0032290941
0.0029974869
0.0028644422
0.0027538635
0.0026445792
0.0025374103
0.0024330015
0.0023298184
0.0022240251
0.0021103368
0.0019826019
0.001832537
0.0016522978
0.0032192978
0.002997048
0.0028712295
0.0027683521
0.0026677476
0.0025704417
0.0024768945
0.0023857343
0.0022946291
0.0021990691
0.0020911186
0.0019568389
0.0017834419
0.0031807906
0.0029669926
0.0028504593
0.002756217
0.0026640091
0.0025755267
0.0024924029
0.0024135984
0.0023364088
0.0022540849
0.0021526623
0.0019851707
0.0016559836
0.0031804461
0.0029684329
0.0028553551
0.002765782
0.0026801832
0.0026009568
0.0025320857
0.0024765882
0.0024382727
0.0024233105
0.0024458572
0.0025093025
0.0026456269
0.0031804461
0.0029684329
0.0028553551
0.002765782
0.0026801832
0.0026009567
0.0025320857
0.0024765882
0.0024382727
0.0024233105
0.0024458572
0.0025093025
0.0026456269
0.0031807906
0.0029669926
0.0028504593
0.002756217
0.0026640092
0.0025755267
0.0024924029
0.0024135984
0.0023364088
0.0022540849
0.0021526622
0.0019851706
0.0016559835
0.0032192978
0.002997048
0.0028712295
0.0027683521
0.0026677476
0.0025704417
0.0024768945
0.0023857343
0.0022946291
0.0021990691
0.0020911186
0.0019568389
0.0017834418
0.0032290941
0.0029974869
0.0028644422
0.0027538635
0.0026445792
0.0025374103
0.0024330015
0.0023298184
0.0022240251
0.0021103369
0.0019826019
0.001832537
0.0016522977
0.0034383158
0.0030866307
0.0029236168
0.0027922907
0.0026681091
0.0025506922
0.0024381894
0.0023270673
0.0022142635
0.0020972823
0.0019725439
0.0018357479
0.0016827552
)
;
    }
    bottomWater_to_heater
    {
        type            calculated;
        value           nonuniform List<scalar> 
92
(
0.0015082152
0.0013324723
0.0011671853
0.0010178772
0.0014250546
0.001243791
0.0010926227
0.00095608224
0.0014700273
0.0012332882
0.0010423268
0.00087486294
353.16084
353.16095
353.16085
353.16071
274.68058
274.68082
274.68079
274.68065
196.20054
196.20081
196.2008
196.20066
117.72058
117.72082
117.72079
117.72065
0.00083997427
39.24084
0.00094987752
39.24095
0.0008466749
39.240847
0.00070969235
39.24071
353.16265
353.16019
274.68294
274.68005
196.20306
196.20005
117.72294
117.72005
39.242646
39.240192
353.16265
353.16084
353.16095
353.16085
353.16019
353.16071
274.68294
274.68058
274.68082
274.68079
274.68005
274.68065
196.20306
196.20054
196.20081
196.2008
196.20005
196.20066
117.72294
117.72058
117.72082
117.72079
117.72005
117.72065
39.242646
39.24084
39.24095
39.240847
39.240192
39.24071
0.00083997413
0.00094987741
0.00084667481
0.00070969228
0.0014700273
0.0012332882
0.0010423267
0.00087486288
0.0014250546
0.001243791
0.0010926226
0.00095608219
0.0015082151
0.0013324723
0.0011671853
0.0010178772
)
;
    }
}


// ************************************************************************* //
