/*--------------------------------*- C++ -*----------------------------------*\
| =========                 |                                                 |
| \\      /  F ield         | OpenFOAM: The Open Source CFD Toolbox           |
|  \\    /   O peration     | Version:  2412                                  |
|   \\  /    A nd           | Website:  www.openfoam.com                      |
|    \\/     M anipulation  |                                                 |
\*---------------------------------------------------------------------------*/
FoamFile
{
    version     2.0;
    format      ascii;
    arch        "LSB;label=32;scalar=64";
    class       volScalarField;
    location    "70/bottomWater";
    object      p_rgh;
}
// * * * * * * * * * * * * * * * * * * * * * * * * * * * * * * * * * * * * * //

dimensions      [1 -1 -2 0 0 0 0];

internalField   nonuniform List<scalar> 
1460
(
0.0034383158
0.0030866307
0.0029236168
0.0027922907
0.0026681091
0.0025506922
0.0024381894
0.0023270673
0.0022142635
0.0020972823
0.0019725439
0.0018357479
0.0016827552
0.0015082152
0.0013324723
0.0011671853
0.0010178772
0.00088701801
0.00077623323
0.00068277135
0.00060145772
0.00052797702
0.00045949213
0.00039414132
0.00033068023
0.00026830771
0.00020659375
0.00014542785
8.4757228e-05
2.3060742e-05
0.0031939382
0.0030039107
0.0028696382
0.0027552088
0.0026428035
0.002532417
0.0024243068
0.0023162692
0.0022050891
0.0020886725
0.0019655294
0.0018316346
0.0016821717
0.0015112148
0.0013368555
0.0011713583
0.0010193482
0.00088551589
0.00077322047
0.00067951354
0.00059843724
0.00052513451
0.00045663224
0.00039111193
0.00032740349
0.0002648257
0.0002030192
0.00014178024
8.0646205e-05
1.6810493e-05
0.0032302517
0.0030403659
0.0029002114
0.002780753
0.0026641149
0.0025498202
0.0024381495
0.0023270123
0.0022130089
0.0020938394
0.0019683992
0.0018330963
0.0016832941
0.0015132655
0.0013401976
0.0011760737
0.0010246921
0.00089037971
0.00077798798
0.00068430882
0.00060306381
0.00052943176
0.00046054728
0.00039462686
0.00033046802
0.00026732692
0.00020479489
0.00014265637
8.0447559e-05
1.4763913e-05
0.0031939382
0.0030039107
0.0028696382
0.0027552088
0.0026428035
0.002532417
0.0024243068
0.0023162692
0.0022050891
0.0020886725
0.0019655294
0.0018316346
0.0016821717
0.0015112148
0.0013368555
0.0011713583
0.0010193482
0.00088551589
0.00077322047
0.00067951354
0.00059843724
0.00052513451
0.00045663224
0.00039111193
0.00032740349
0.0002648257
0.0002030192
0.00014178024
8.06462e-05
1.681049e-05
0.0034383158
0.0030866307
0.0029236168
0.0027922907
0.0026681091
0.0025506922
0.0024381894
0.0023270673
0.0022142635
0.0020972823
0.0019725439
0.0018357479
0.0016827552
0.0015082152
0.0013324723
0.0011671853
0.0010178772
0.00088701801
0.00077623323
0.00068277135
0.00060145772
0.00052797702
0.00045949214
0.00039414132
0.00033068023
0.0002683077
0.00020659374
0.00014542784
8.4757223e-05
2.3060738e-05
0.0032290941
0.0029974869
0.0028644422
0.0027538635
0.0026445792
0.0025374103
0.0024330015
0.0023298184
0.0022240251
0.0021103368
0.0019826019
0.001832537
0.0016522978
0.0014250546
0.001243791
0.0010926227
0.00095608224
0.00083315051
0.00073390017
0.00065321063
0.00058213126
0.00051594327
0.00045240375
0.00039030341
0.00032895155
0.00026792572
0.00020700489
0.00014608653
8.492846e-05
2.2437317e-05
0.0029906391
0.0029230158
0.0028301483
0.0027311741
0.0026294403
0.0025267262
0.0024241731
0.002321551
0.0022172897
0.0021063939
0.00198116
0.0018328729
0.0016508149
0.0014182915
0.0012329658
0.0010833751
0.0009488037
0.0008280021
0.00072955618
0.0006501458
0.00058043592
0.00051505669
0.00045183365
0.00038967926
0.0003280544
0.00026668867
0.00020541889
0.00014394244
8.1330667e-05
1.4291334e-05
0.0030250552
0.0029584128
0.0028601358
0.0027562425
0.0026509057
0.002545003
0.0024392912
0.0023334203
0.0022266536
0.0021136997
0.0019863575
0.0018357143
0.001651143
0.0014175914
0.0012330571
0.001085385
0.00095233315
0.00083248185
0.00073472731
0.00065532393
0.00058530682
0.0005194896
0.00045578089
0.00039311931
0.00033094888
0.0002689535
0.00020684058
0.00014435501
8.0379007e-05
1.0731716e-05
0.0029906391
0.0029230158
0.0028301483
0.0027311741
0.0026294403
0.0025267262
0.0024241731
0.002321551
0.0022172897
0.0021063939
0.00198116
0.0018328729
0.0016508149
0.0014182916
0.0012329658
0.0010833751
0.0009488037
0.00082800211
0.00072955618
0.00065014581
0.00058043593
0.00051505669
0.00045183366
0.00038967927
0.0003280544
0.00026668865
0.00020541889
0.00014394243
8.133066e-05
1.4291329e-05
0.0032290941
0.0029974869
0.0028644422
0.0027538635
0.0026445792
0.0025374103
0.0024330015
0.0023298184
0.0022240251
0.0021103368
0.0019826019
0.001832537
0.0016522978
0.0014250546
0.001243791
0.0010926227
0.00095608224
0.00083315052
0.00073390017
0.00065321063
0.00058213127
0.00051594328
0.00045240375
0.00039030341
0.00032895155
0.00026792571
0.00020700488
0.00014608652
8.4928451e-05
2.2437308e-05
0.0032192978
0.002997048
0.0028712295
0.0027683521
0.0026677476
0.0025704417
0.0024768945
0.0023857343
0.0022946291
0.0021990691
0.0020911186
0.0019568389
0.0017834419
0.0014700273
0.0012332882
0.0010423268
0.00087486294
0.00072773358
0.00064990443
0.00059705117
0.0005484825
0.00049851094
0.00044603382
0.00039122542
0.00033440091
0.00027585982
0.00021586249
0.00015470782
9.2555654e-05
2.9471208e-05
0.002979936
0.0029211356
0.0028362539
0.0027451428
0.0026523709
0.0025601204
0.0024698391
0.0023812452
0.0022927902
0.0022014376
0.0021001526
0.0019733047
0.0017949814
0.0014641773
0.0012129355
0.0010151946
0.00084440905
0.00069672629
0.00062438746
0.00058143924
0.00054015088
0.00049473467
0.00044498533
0.00039169212
0.00033557367
0.00027724138
0.00021722858
0.00015567775
9.2150604e-05
2.5403193e-05
0.0030151367
0.0029573445
0.0028671094
0.0027711586
0.002675002
0.0025799113
0.0024870888
0.0023962512
0.0023055988
0.0022125686
0.0021098435
0.0019823518
0.0018045434
0.0014738529
0.0012225377
0.0010223528
0.00084556803
0.0006969192
0.00062675837
0.00058573773
0.00054496831
0.00049942655
0.00044927853
0.0003954623
0.00033874352
0.00027969753
0.00021878912
0.00015625341
9.154239e-05
2.2702136e-05
0.002979936
0.0029211356
0.0028362539
0.0027451428
0.0026523709
0.0025601204
0.0024698391
0.0023812452
0.0022927902
0.0022014376
0.0021001526
0.0019733047
0.0017949814
0.0014641773
0.0012129355
0.0010151946
0.00084440906
0.0006967263
0.00062438746
0.00058143924
0.00054015089
0.00049473468
0.00044498533
0.00039169213
0.00033557367
0.00027724138
0.00021722857
0.00015567773
9.2150593e-05
2.540319e-05
0.0032192978
0.002997048
0.0028712295
0.0027683521
0.0026677476
0.0025704417
0.0024768945
0.0023857343
0.0022946291
0.0021990691
0.0020911186
0.0019568389
0.0017834419
0.0014700273
0.0012332882
0.0010423268
0.00087486294
0.00072773358
0.00064990443
0.00059705118
0.0005484825
0.00049851094
0.00044603382
0.00039122542
0.00033440091
0.00027585982
0.00021586248
0.00015470781
9.2555635e-05
2.947119e-05
0.0031807906
0.0029669926
0.0028504593
0.002756217
0.0026640091
0.0025755267
0.0024924029
0.0024135984
0.0023364088
0.0022540849
0.0021526622
0.0019851707
0.0016559836
0.00083997428
0.00094987752
0.0008466749
0.00070969235
0.00052208566
0.00053263405
0.00052462495
0.00050607534
0.00047567078
0.00043542842
0.00038820933
0.00033592171
0.0002798331
0.0002213556
0.00016144606
0.00010024751
3.8910506e-05
0.0029424001
0.0028913008
0.0028162424
0.0027340793
0.0026496866
0.00256609
0.00248588
0.0024100109
0.0023374455
0.0022638639
0.0021738238
0.0020090546
0.0015933905
0.00057797205
0.00081932684
0.00079200754
0.00065403236
0.00046976044
0.00049311735
0.00050389709
0.00049632373
0.00047198235
0.00043557903
0.00039080005
0.00034019587
0.00028553814
0.00022773022
0.00016716499
0.00010506072
4.2725765e-05
0.0029768019
0.0029267514
0.0028465222
0.0027595929
0.002671862
0.0025853788
0.002502404
0.0024240424
0.002348942
0.0022721812
0.0021779224
0.0020099095
0.0015710473
0.00054197293
0.0008089196
0.00079936355
0.00066140388
0.00048545668
0.0005041734
0.00051420654
0.0005052173
0.00047898387
0.00044078459
0.00039454127
0.00034257488
0.00028651753
0.00022749684
0.00016670207
0.00010460733
4.2289544e-05
0.0029424001
0.0028913008
0.0028162424
0.0027340793
0.0026496866
0.00256609
0.00248588
0.0024100109
0.0023374455
0.0022638639
0.0021738238
0.0020090546
0.0015933905
0.00057797205
0.00081932683
0.00079200754
0.00065403236
0.00046976045
0.00049311737
0.00050389711
0.00049632375
0.00047198238
0.00043557906
0.00039080007
0.00034019588
0.00028553814
0.00022773023
0.00016716499
0.00010506071
4.2725762e-05
0.0031807906
0.0029669926
0.0028504593
0.002756217
0.0026640091
0.0025755267
0.0024924029
0.0024135984
0.0023364088
0.0022540849
0.0021526623
0.0019851707
0.0016559836
0.00083997427
0.00094987752
0.0008466749
0.00070969235
0.00052208567
0.00053263406
0.00052462496
0.00050607536
0.00047567079
0.00043542844
0.00038820934
0.00033592171
0.00027983311
0.00022135559
0.00016144604
0.00010024749
3.8910494e-05
0.0031804461
0.0029684329
0.0028553551
0.002765782
0.0026801832
0.0026009567
0.0025320857
0.0024765882
0.0024382727
0.0024233105
0.0024458572
0.0025093025
0.0026456269
0.00019162945
0.00040948381
0.00044719107
0.00048769634
0.00048065472
0.00045084212
0.00040800547
0.00035706141
0.00030073727
0.00024077975
0.00017811133
0.00011340103
5.2412701e-05
0.0029416875
0.0028921481
0.0028203883
0.0027428694
0.0026650087
0.0025909915
0.0025255417
0.0024746706
0.0024469405
0.0024558644
0.0025194189
0.0026465519
0.0029420164
5.4099106e-05
0.00037330786
0.00043504163
0.00049092197
0.00049553603
0.00046925098
0.00042621317
0.00037325715
0.00031444075
0.00025208454
0.00018756974
0.00012253892
6.3998854e-05
0.0029761524
0.0029276721
0.0028507641
0.0027685287
0.0026874886
0.0026109819
0.0025432536
0.0024907956
0.0024623368
0.0024720714
0.0025442728
0.0026952904
0.003056573
4.9772984e-05
0.0003795531
0.00044316404
0.00049864749
0.00050237419
0.00047366309
0.00042883813
0.00037499577
0.00031565383
0.00025303085
0.00018854912
0.00012392508
6.6763775e-05
0.0029416875
0.0028921481
0.0028203883
0.0027428694
0.0026650087
0.0025909915
0.0025255417
0.0024746706
0.0024469405
0.0024558644
0.0025194189
0.0026465519
0.0029420165
5.4099121e-05
0.00037330786
0.00043504163
0.00049092197
0.00049553603
0.00046925098
0.00042621316
0.00037325714
0.00031444073
0.00025208453
0.00018756973
0.00012253891
6.3998852e-05
0.0031804461
0.0029684329
0.0028553551
0.002765782
0.0026801832
0.0026009568
0.0025320857
0.0024765882
0.0024382727
0.0024233105
0.0024458572
0.0025093025
0.0026456269
0.00019162946
0.00040948382
0.00044719107
0.00048769634
0.00048065472
0.00045084212
0.00040800547
0.0003570614
0.00030073725
0.00024077974
0.00017811132
0.00011340103
5.2412698e-05
0.0031804461
0.0029684329
0.0028553551
0.002765782
0.0026801832
0.0026009567
0.0025320857
0.0024765882
0.0024382726
0.0024233105
0.0024458572
0.0025093024
0.0026456269
0.00019162945
0.00040948379
0.00044719104
0.00048769631
0.00048065469
0.00045084209
0.00040800543
0.00035706137
0.00030073722
0.00024077971
0.0001781113
0.00011340101
5.241268e-05
0.0029416875
0.0028921481
0.0028203883
0.0027428694
0.0026650087
0.0025909915
0.0025255417
0.0024746706
0.0024469405
0.0024558644
0.0025194189
0.0026465519
0.0029420164
5.4099114e-05
0.00037330784
0.0004350416
0.00049092194
0.00049553598
0.00046925094
0.00042621313
0.0003732571
0.0003144407
0.00025208451
0.00018756971
0.0001225389
6.3998829e-05
0.0029761524
0.0029276721
0.0028507641
0.0027685287
0.0026874886
0.0026109819
0.0025432536
0.0024907956
0.0024623368
0.0024720714
0.0025442728
0.0026952904
0.003056573
4.9772982e-05
0.00037955307
0.00044316401
0.00049864745
0.00050237414
0.00047366304
0.00042883808
0.00037499572
0.00031565379
0.00025303081
0.0001885491
0.00012392505
6.6763746e-05
0.0029416875
0.0028921481
0.0028203883
0.0027428694
0.0026650087
0.0025909915
0.0025255417
0.0024746706
0.0024469405
0.0024558644
0.0025194189
0.0026465519
0.0029420165
5.4099104e-05
0.00037330783
0.0004350416
0.00049092193
0.00049553598
0.00046925093
0.00042621311
0.00037325709
0.0003144407
0.0002520845
0.00018756971
0.00012253889
6.3998824e-05
0.0031804461
0.0029684329
0.0028553551
0.002765782
0.0026801832
0.0026009567
0.0025320857
0.0024765882
0.0024382727
0.0024233105
0.0024458572
0.0025093025
0.0026456269
0.00019162944
0.00040948379
0.00044719103
0.00048769631
0.00048065468
0.00045084208
0.00040800543
0.00035706137
0.00030073723
0.00024077972
0.00017811131
0.00011340101
5.241268e-05
0.0031807906
0.0029669926
0.0028504593
0.002756217
0.0026640092
0.0025755267
0.0024924029
0.0024135984
0.0023364088
0.0022540849
0.0021526622
0.0019851706
0.0016559835
0.00083997415
0.00094987741
0.00084667482
0.00070969228
0.00052208563
0.00053263403
0.00052462493
0.00050607532
0.00047567076
0.0004354284
0.00038820931
0.00033592168
0.00027983308
0.00022135557
0.00016144602
0.00010024747
3.8910472e-05
0.0029424001
0.0028913008
0.0028162424
0.0027340793
0.0026496866
0.00256609
0.00248588
0.0024100109
0.0023374455
0.0022638639
0.0021738238
0.0020090545
0.0015933904
0.00057797186
0.00081932671
0.00079200745
0.00065403228
0.00046976041
0.00049311734
0.00050389707
0.00049632371
0.00047198233
0.00043557901
0.00039080002
0.00034019583
0.00028553809
0.00022773018
0.00016716495
0.00010506067
4.272572e-05
0.0029768019
0.0029267514
0.0028465222
0.0027595929
0.002671862
0.0025853788
0.002502404
0.0024240424
0.002348942
0.0022721812
0.0021779224
0.0020099094
0.0015710471
0.0005419727
0.00080891946
0.00079936345
0.00066140379
0.00048545664
0.00050417336
0.0005142065
0.00050521725
0.00047898382
0.00044078454
0.00039454122
0.00034257483
0.00028651748
0.00022749679
0.00016670203
0.00010460729
4.2289492e-05
0.0029424001
0.0028913008
0.0028162424
0.0027340793
0.0026496866
0.00256609
0.00248588
0.0024100109
0.0023374455
0.0022638639
0.0021738238
0.0020090545
0.0015933904
0.00057797185
0.0008193267
0.00079200744
0.00065403228
0.00046976041
0.00049311732
0.00050389705
0.00049632369
0.00047198231
0.00043557899
0.00039080001
0.00034019582
0.00028553808
0.00022773017
0.00016716495
0.00010506067
4.2725716e-05
0.0031807906
0.0029669926
0.0028504593
0.002756217
0.0026640092
0.0025755267
0.0024924029
0.0024135984
0.0023364088
0.0022540849
0.0021526622
0.0019851706
0.0016559835
0.00083997413
0.00094987741
0.00084667481
0.00070969228
0.00052208562
0.00053263401
0.00052462491
0.00050607531
0.00047567074
0.00043542839
0.00038820929
0.00033592167
0.00027983307
0.00022135556
0.00016144602
0.00010024747
3.891047e-05
0.0032192978
0.002997048
0.0028712295
0.0027683521
0.0026677476
0.0025704417
0.0024768945
0.0023857343
0.0022946291
0.0021990691
0.0020911186
0.0019568389
0.0017834418
0.0014700273
0.0012332882
0.0010423267
0.00087486288
0.00072773353
0.00064990438
0.00059705113
0.00054848246
0.0004985109
0.00044603378
0.00039122538
0.00033440088
0.00027585979
0.00021586246
0.0001547078
9.2555624e-05
2.9471175e-05
0.002979936
0.0029211356
0.0028362539
0.0027451428
0.0026523709
0.0025601204
0.0024698391
0.0023812452
0.0022927902
0.0022014376
0.0021001526
0.0019733047
0.0017949814
0.0014641772
0.0012129355
0.0010151945
0.00084440898
0.00069672624
0.00062438741
0.0005814392
0.00054015084
0.00049473464
0.00044498529
0.00039169209
0.00033557364
0.00027724135
0.00021722855
0.00015567772
9.2150573e-05
2.5403149e-05
0.0030151367
0.0029573445
0.0028671094
0.0027711586
0.002675002
0.0025799113
0.0024870888
0.0023962512
0.0023055988
0.0022125686
0.0021098435
0.0019823518
0.0018045434
0.0014738528
0.0012225377
0.0010223527
0.00084556796
0.00069691914
0.00062675832
0.00058573768
0.00054496827
0.00049942651
0.00044927849
0.00039546226
0.00033874348
0.0002796975
0.0002187891
0.00015625339
9.1542361e-05
2.2702084e-05
0.002979936
0.0029211356
0.0028362539
0.0027451428
0.0026523709
0.0025601204
0.0024698391
0.0023812452
0.0022927902
0.0022014376
0.0021001526
0.0019733047
0.0017949814
0.0014641772
0.0012129355
0.0010151945
0.00084440898
0.00069672624
0.00062438741
0.00058143919
0.00054015084
0.00049473463
0.00044498529
0.00039169209
0.00033557364
0.00027724135
0.00021722854
0.00015567772
9.2150571e-05
2.5403147e-05
0.0032192978
0.002997048
0.0028712295
0.0027683521
0.0026677476
0.0025704417
0.0024768945
0.0023857343
0.0022946291
0.0021990691
0.0020911186
0.0019568389
0.0017834418
0.0014700273
0.0012332882
0.0010423267
0.00087486288
0.00072773353
0.00064990438
0.00059705113
0.00054848245
0.0004985109
0.00044603378
0.00039122538
0.00033440088
0.00027585979
0.00021586246
0.00015470779
9.2555621e-05
2.947117e-05
0.0032290941
0.0029974869
0.0028644422
0.0027538635
0.0026445792
0.0025374103
0.0024330015
0.0023298184
0.0022240251
0.0021103368
0.0019826019
0.001832537
0.0016522977
0.0014250546
0.001243791
0.0010926226
0.00095608219
0.00083315047
0.00073390013
0.00065321059
0.00058213123
0.00051594324
0.00045240372
0.00039030338
0.00032895153
0.0002679257
0.00020700487
0.00014608651
8.4928442e-05
2.2437287e-05
0.0029906391
0.0029230158
0.0028301483
0.0027311741
0.0026294403
0.0025267262
0.0024241731
0.002321551
0.0022172897
0.0021063939
0.00198116
0.0018328729
0.0016508149
0.0014182915
0.0012329657
0.001083375
0.00094880366
0.00082800206
0.00072955614
0.00065014577
0.00058043589
0.00051505666
0.00045183362
0.00038967924
0.00032805438
0.00026668864
0.00020541888
0.00014394242
8.1330648e-05
1.4291292e-05
0.0030250552
0.0029584128
0.0028601358
0.0027562425
0.0026509057
0.002545003
0.0024392912
0.0023334203
0.0022266536
0.0021136997
0.0019863575
0.0018357143
0.001651143
0.0014175913
0.0012330571
0.001085385
0.0009523331
0.0008324818
0.00073472727
0.00065532389
0.00058530678
0.00051948957
0.00045578086
0.00039311928
0.00033094886
0.00026895348
0.00020684057
0.00014435499
8.037899e-05
1.0731669e-05
0.0029906391
0.0029230158
0.0028301483
0.0027311741
0.0026294403
0.0025267262
0.0024241731
0.002321551
0.0022172897
0.0021063939
0.00198116
0.0018328729
0.0016508149
0.0014182915
0.0012329657
0.001083375
0.00094880366
0.00082800206
0.00072955614
0.00065014577
0.00058043589
0.00051505666
0.00045183362
0.00038967924
0.00032805438
0.00026668864
0.00020541888
0.00014394242
8.1330647e-05
1.429129e-05
0.0032290941
0.0029974869
0.0028644422
0.0027538635
0.0026445792
0.0025374103
0.0024330015
0.0023298184
0.0022240251
0.0021103369
0.0019826019
0.001832537
0.0016522977
0.0014250546
0.001243791
0.0010926226
0.00095608219
0.00083315047
0.00073390013
0.00065321059
0.00058213123
0.00051594324
0.00045240372
0.00039030338
0.00032895153
0.00026792569
0.00020700487
0.00014608651
8.492844e-05
2.2437285e-05
0.0034383158
0.0030866307
0.0029236168
0.0027922907
0.0026681091
0.0025506922
0.0024381894
0.0023270673
0.0022142635
0.0020972823
0.0019725439
0.0018357479
0.0016827552
0.0015082151
0.0013324723
0.0011671853
0.0010178772
0.00088701797
0.00077623319
0.00068277131
0.00060145768
0.00052797699
0.0004594921
0.00039414129
0.00033068021
0.00026830768
0.00020659372
0.00014542783
8.4757211e-05
2.3060718e-05
0.0031939382
0.0030039107
0.0028696382
0.0027552088
0.0026428035
0.002532417
0.0024243068
0.0023162692
0.0022050891
0.0020886725
0.0019655294
0.0018316346
0.0016821717
0.0015112147
0.0013368555
0.0011713583
0.0010193481
0.00088551585
0.00077322043
0.0006795135
0.0005984372
0.00052513447
0.00045663221
0.00039111191
0.00032740346
0.00026482568
0.00020301918
0.00014178023
8.0646188e-05
1.6810462e-05
0.0032302517
0.0030403659
0.0029002114
0.002780753
0.0026641149
0.0025498202
0.0024381495
0.0023270123
0.0022130089
0.0020938394
0.0019683992
0.0018330963
0.0016832941
0.0015132655
0.0013401976
0.0011760736
0.001024692
0.00089037968
0.00077798794
0.00068430878
0.00060306377
0.00052943173
0.00046054724
0.00039462683
0.000330468
0.00026732689
0.00020479488
0.00014265635
8.0447543e-05
1.476388e-05
0.0031939382
0.0030039107
0.0028696382
0.0027552088
0.0026428035
0.002532417
0.0024243068
0.0023162692
0.0022050891
0.0020886725
0.0019655294
0.0018316346
0.0016821717
0.0015112147
0.0013368555
0.0011713583
0.0010193481
0.00088551585
0.00077322043
0.0006795135
0.0005984372
0.00052513447
0.0004566322
0.0003911119
0.00032740346
0.00026482568
0.00020301918
0.00014178022
8.0646186e-05
1.6810461e-05
0.0034383158
0.0030866307
0.0029236168
0.0027922907
0.0026681091
0.0025506922
0.0024381894
0.0023270673
0.0022142635
0.0020972823
0.0019725439
0.0018357479
0.0016827552
0.0015082151
0.0013324723
0.0011671853
0.0010178772
0.00088701797
0.00077623319
0.00068277131
0.00060145768
0.00052797699
0.0004594921
0.00039414129
0.00033068021
0.00026830768
0.00020659372
0.00014542783
8.4757211e-05
2.3060717e-05
)
;

boundaryField
{
    minX
    {
        type            zeroGradient;
    }
    maxX
    {
        type            fixedValue;
        value           uniform 0;
    }
    minY
    {
        type            fixedFluxPressure;
        gradient        uniform 0;
        value           nonuniform List<scalar> 
292
(
0.0034383158
0.0032290941
0.0032192978
0.0031807906
0.0031804461
0.0031804461
0.0031807906
0.0032192978
0.0032290941
0.0034383158
0.0030866307
0.0029974869
0.002997048
0.0029669926
0.0029684329
0.0029684329
0.0029669926
0.002997048
0.0029974869
0.0030866307
0.0029236168
0.0028644422
0.0028712295
0.0028504593
0.0028553551
0.0028553551
0.0028504593
0.0028712295
0.0028644422
0.0029236168
0.0027922907
0.0027538635
0.0027683521
0.002756217
0.002765782
0.002765782
0.002756217
0.0027683521
0.0027538635
0.0027922907
0.0026681091
0.0026445792
0.0026677476
0.0026640091
0.0026801832
0.0026801832
0.0026640092
0.0026677476
0.0026445792
0.0026681091
0.0025506922
0.0025374103
0.0025704417
0.0025755267
0.0026009567
0.0026009567
0.0025755267
0.0025704417
0.0025374103
0.0025506922
0.0024381894
0.0024330015
0.0024768945
0.0024924029
0.0025320857
0.0025320857
0.0024924029
0.0024768945
0.0024330015
0.0024381894
0.0023270673
0.0023298184
0.0023857343
0.0024135984
0.0024765882
0.0024765882
0.0024135984
0.0023857343
0.0023298184
0.0023270673
0.0022142635
0.0022240251
0.0022946291
0.0023364088
0.0024382727
0.0024382726
0.0023364088
0.0022946291
0.0022240251
0.0022142635
0.0020972823
0.0021103368
0.0021990691
0.0022540849
0.0024233105
0.0024233105
0.0022540849
0.0021990691
0.0021103368
0.0020972823
0.0019725439
0.0019826019
0.0020911186
0.0021526622
0.0024458572
0.0024458572
0.0021526622
0.0020911186
0.0019826019
0.0019725439
0.0018357479
0.001832537
0.0019568389
0.0019851707
0.0025093025
0.0025093024
0.0019851706
0.0019568389
0.001832537
0.0018357479
0.0016827552
0.0016522978
0.0017834419
0.0016559836
0.0026456269
0.0026456269
0.0016559835
0.0017834418
0.0016522977
0.0016827552
0.0015082152
0.0014250546
0.0014700273
0.00083997428
0.00083997415
0.0014700273
0.0014250546
0.0015082151
0.0013324723
0.001243791
0.0012332882
0.00094987752
0.00094987741
0.0012332882
0.001243791
0.0013324723
0.0011671853
0.0010926227
0.0010423268
0.0008466749
0.00084667482
0.0010423267
0.0010926226
0.0011671853
0.0010178772
0.00095608224
0.00087486294
0.00070969235
0.00070969228
0.00087486288
0.00095608219
0.0010178772
0.00088701801
0.00083315051
0.00072773358
0.00052208566
0.00019162945
0.00019162945
0.00052208563
0.00072773353
0.00083315047
0.00088701797
0.00077623323
0.00073390017
0.00064990443
0.00053263405
0.00040948381
0.00040948379
0.00053263403
0.00064990438
0.00073390013
0.00077623319
0.00068277135
0.00065321063
0.00059705117
0.00052462495
0.00044719107
0.00044719104
0.00052462493
0.00059705113
0.00065321059
0.00068277131
0.00060145772
0.00058213126
0.0005484825
0.00050607534
0.00048769634
0.00048769631
0.00050607532
0.00054848246
0.00058213123
0.00060145768
0.00052797702
0.00051594327
0.00049851094
0.00047567078
0.00048065472
0.00048065469
0.00047567076
0.0004985109
0.00051594324
0.00052797699
0.00045949213
0.00045240375
0.00044603382
0.00043542842
0.00045084212
0.00045084209
0.0004354284
0.00044603378
0.00045240372
0.0004594921
0.00039414132
0.00039030341
0.00039122542
0.00038820933
0.00040800547
0.00040800543
0.00038820931
0.00039122538
0.00039030338
0.00039414129
0.00033068023
0.00032895155
0.00033440091
0.00033592171
0.00035706141
0.00035706137
0.00033592168
0.00033440088
0.00032895153
0.00033068021
0.00026830771
0.00026792572
0.00027585982
0.0002798331
0.00030073727
0.00030073722
0.00027983308
0.00027585979
0.0002679257
0.00026830768
0.00020659375
0.00020700489
0.00021586249
0.0002213556
0.00024077975
0.00024077971
0.00022135557
0.00021586246
0.00020700487
0.00020659372
0.00014542785
0.00014608653
0.00015470782
0.00016144606
0.00017811133
0.0001781113
0.00016144602
0.0001547078
0.00014608651
0.00014542783
8.4757228e-05
8.492846e-05
9.2555654e-05
0.00010024751
0.00011340103
0.00011340101
0.00010024747
9.2555624e-05
8.4928442e-05
8.4757211e-05
2.3060742e-05
2.2437317e-05
2.9471208e-05
3.8910506e-05
5.2412701e-05
5.241268e-05
3.8910472e-05
2.9471175e-05
2.2437287e-05
2.3060718e-05
)
;
    }
    minZ
    {
        type            fixedFluxPressure;
        gradient        uniform 0;
        value           nonuniform List<scalar> 
150
(
0.0034383158
0.0031939382
0.0032302517
0.0031939382
0.0034383158
0.0030866307
0.0030039107
0.0030403659
0.0030039107
0.0030866307
0.0029236168
0.0028696382
0.0029002114
0.0028696382
0.0029236168
0.0027922907
0.0027552088
0.002780753
0.0027552088
0.0027922907
0.0026681091
0.0026428035
0.0026641149
0.0026428035
0.0026681091
0.0025506922
0.002532417
0.0025498202
0.002532417
0.0025506922
0.0024381894
0.0024243068
0.0024381495
0.0024243068
0.0024381894
0.0023270673
0.0023162692
0.0023270123
0.0023162692
0.0023270673
0.0022142635
0.0022050891
0.0022130089
0.0022050891
0.0022142635
0.0020972823
0.0020886725
0.0020938394
0.0020886725
0.0020972823
0.0019725439
0.0019655294
0.0019683992
0.0019655294
0.0019725439
0.0018357479
0.0018316346
0.0018330963
0.0018316346
0.0018357479
0.0016827552
0.0016821717
0.0016832941
0.0016821717
0.0016827552
0.0015082152
0.0015112148
0.0015132655
0.0015112148
0.0015082152
0.0013324723
0.0013368555
0.0013401976
0.0013368555
0.0013324723
0.0011671853
0.0011713583
0.0011760737
0.0011713583
0.0011671853
0.0010178772
0.0010193482
0.0010246921
0.0010193482
0.0010178772
0.00088701801
0.00088551589
0.00089037971
0.00088551589
0.00088701801
0.00077623323
0.00077322047
0.00077798798
0.00077322047
0.00077623323
0.00068277135
0.00067951354
0.00068430882
0.00067951354
0.00068277135
0.00060145772
0.00059843724
0.00060306381
0.00059843724
0.00060145772
0.00052797702
0.00052513451
0.00052943176
0.00052513451
0.00052797702
0.00045949213
0.00045663224
0.00046054728
0.00045663224
0.00045949214
0.00039414132
0.00039111193
0.00039462686
0.00039111193
0.00039414132
0.00033068023
0.00032740349
0.00033046802
0.00032740349
0.00033068023
0.00026830771
0.0002648257
0.00026732692
0.0002648257
0.0002683077
0.00020659375
0.0002030192
0.00020479489
0.0002030192
0.00020659374
0.00014542785
0.00014178024
0.00014265637
0.00014178024
0.00014542784
8.4757228e-05
8.0646205e-05
8.0447559e-05
8.06462e-05
8.4757223e-05
2.3060742e-05
1.6810493e-05
1.4763913e-05
1.681049e-05
2.3060738e-05
)
;
    }
    maxZ
    {
        type            fixedFluxPressure;
        gradient        uniform 0;
        value           nonuniform List<scalar> 
150
(
0.0034383158
0.0031939382
0.0032302517
0.0031939382
0.0034383158
0.0030866307
0.0030039107
0.0030403659
0.0030039107
0.0030866307
0.0029236168
0.0028696382
0.0029002114
0.0028696382
0.0029236168
0.0027922907
0.0027552088
0.002780753
0.0027552088
0.0027922907
0.0026681091
0.0026428035
0.0026641149
0.0026428035
0.0026681091
0.0025506922
0.002532417
0.0025498202
0.002532417
0.0025506922
0.0024381894
0.0024243068
0.0024381495
0.0024243068
0.0024381894
0.0023270673
0.0023162692
0.0023270123
0.0023162692
0.0023270673
0.0022142635
0.0022050891
0.0022130089
0.0022050891
0.0022142635
0.0020972823
0.0020886725
0.0020938394
0.0020886725
0.0020972823
0.0019725439
0.0019655294
0.0019683992
0.0019655294
0.0019725439
0.0018357479
0.0018316346
0.0018330963
0.0018316346
0.0018357479
0.0016827552
0.0016821717
0.0016832941
0.0016821717
0.0016827552
0.0015082151
0.0015112147
0.0015132655
0.0015112147
0.0015082151
0.0013324723
0.0013368555
0.0013401976
0.0013368555
0.0013324723
0.0011671853
0.0011713583
0.0011760736
0.0011713583
0.0011671853
0.0010178772
0.0010193481
0.001024692
0.0010193481
0.0010178772
0.00088701797
0.00088551585
0.00089037968
0.00088551585
0.00088701797
0.00077623319
0.00077322043
0.00077798794
0.00077322043
0.00077623319
0.00068277131
0.0006795135
0.00068430878
0.0006795135
0.00068277131
0.00060145768
0.0005984372
0.00060306377
0.0005984372
0.00060145768
0.00052797699
0.00052513447
0.00052943173
0.00052513447
0.00052797699
0.0004594921
0.00045663221
0.00046054724
0.0004566322
0.0004594921
0.00039414129
0.00039111191
0.00039462683
0.0003911119
0.00039414129
0.00033068021
0.00032740346
0.000330468
0.00032740346
0.00033068021
0.00026830768
0.00026482568
0.00026732689
0.00026482568
0.00026830768
0.00020659372
0.00020301918
0.00020479488
0.00020301918
0.00020659372
0.00014542783
0.00014178023
0.00014265635
0.00014178022
0.00014542783
8.4757211e-05
8.0646188e-05
8.0447543e-05
8.0646186e-05
8.4757211e-05
2.3060718e-05
1.6810462e-05
1.476388e-05
1.6810461e-05
2.3060717e-05
)
;
    }
    bottomWater_to_rightSolid
    {
        type            fixedFluxPressure;
        gradient        uniform 0;
        value           nonuniform List<scalar> 
130
(
0.00088701801
0.00077623323
0.00068277135
0.00060145772
0.00052797702
0.00045949214
0.00039414132
0.00033068023
0.0002683077
0.00020659374
0.00014542784
8.4757223e-05
2.3060738e-05
0.00083315052
0.00073390017
0.00065321063
0.00058213127
0.00051594328
0.00045240375
0.00039030341
0.00032895155
0.00026792571
0.00020700488
0.00014608652
8.4928451e-05
2.2437308e-05
0.00072773358
0.00064990443
0.00059705118
0.0005484825
0.00049851094
0.00044603382
0.00039122542
0.00033440091
0.00027585982
0.00021586248
0.00015470781
9.2555635e-05
2.947119e-05
0.00052208567
0.00053263406
0.00052462496
0.00050607536
0.00047567079
0.00043542844
0.00038820934
0.00033592171
0.00027983311
0.00022135559
0.00016144604
0.00010024749
3.8910494e-05
0.00019162946
0.00040948382
0.00044719107
0.00048769634
0.00048065472
0.00045084212