/*--------------------------------*- C++ -*----------------------------------*\
| =========                 |                                                 |
| \\      /  F ield         | OpenFOAM: The Open Source CFD Toolbox           |
|  \\    /   O peration     | Version:  2412                                  |
|   \\  /    A nd           | Website:  www.openfoam.com                      |
|    \\/     M anipulation  |                                                 |
\*---------------------------------------------------------------------------*/
FoamFile
{
    version     2.0;
    format      ascii;
    arch        "LSB;label=32;scalar=64";
    class       surfaceScalarField;
    location    "70/bottomWater";
    object      phi;
}
// * * * * * * * * * * * * * * * * * * * * * * * * * * * * * * * * * * * * * //

dimensions      [1 0 -1 0 0 0 0];

oriented        oriented;

internalField   nonuniform List<scalar> 
3858
(
7.3283884e-05
4.1432538e-06
2.572862e-06
6.5949221e-05
4.2715214e-06
3.0631422e-06
5.9169365e-05
3.8095627e-06
2.9702935e-06
5.3429394e-05
3.1703034e-06
2.5696667e-06
4.8923806e-05
2.5084122e-06
1.9971758e-06
4.5657149e-05
1.9329188e-06
1.3337382e-06
4.35773e-05
1.4795871e-06
6.0026281e-07
4.2644733e-05
1.1452857e-06
-2.1271926e-07
4.2795357e-05
9.2835233e-07
-1.078976e-06
4.3997967e-05
8.0430781e-07
-2.0069177e-06
4.6216994e-05
6.9631066e-07
-2.915338e-06
4.9288317e-05
5.496912e-07
-3.6210139e-06
5.2664809e-05
3.42371e-07
-3.7188628e-06
5.4659609e-05
1.0700184e-07
-2.1018021e-06
5.5240265e-05
-1.0776336e-07
-4.7289264e-07
5.4595982e-05
-2.7786939e-07
9.221518e-07
5.2861994e-05
-3.4268223e-07
2.0766702e-06
5.0163672e-05
-3.3059236e-07
3.0289152e-06
4.694998e-05
-2.9612688e-07
3.5098188e-06
4.367713e-05
-2.6701583e-07
3.5398655e-06
4.0653276e-05
-2.4436096e-07
3.268215e-06
3.8030802e-05
-2.1995801e-07
2.842432e-06
3.585451e-05
-1.8750775e-07
2.3638002e-06
3.4106094e-05
-1.4474647e-07
1.893162e-06
3.2735475e-05
-9.2800959e-08
1.4634198e-06
3.1680737e-05
-3.6156145e-08
1.0908939e-06
3.0873701e-05
2.3678374e-08
7.8335791e-07
3.023979e-05
8.8534599e-08
5.4537659e-07
2.9705152e-05
1.5609205e-07
3.785459e-07
2.7729684e-07
2.9026558e-07
7.9636434e-05
1.6733668e-06
2.8334528e-06
7.8425004e-05
1.8621409e-06
3.6208102e-06
7.6829804e-05
1.7490391e-06
3.655724e-06
7.5073384e-05
1.5138681e-06
3.4128551e-06
7.3370771e-05
1.2353627e-06
2.9756631e-06
7.1936185e-05
9.7380787e-07
2.3936961e-06
7.097259e-05
7.546844e-07
1.6884982e-06
7.0695261e-05
5.8319136e-07
8.3942288e-07
7.1351595e-05
4.6522378e-07
-1.9320544e-07
7.3116807e-05
3.976547e-07
-1.3585583e-06
7.6107364e-05
3.4670717e-07
-2.6409533e-06
8.0243508e-05
2.827611e-07
-3.8692147e-06
8.4996504e-05
1.9561176e-07
-4.6062361e-06
8.8640354e-05
8.9857014e-08
-3.6267049e-06
9.0762247e-05
-1.2314093e-08
-2.2173426e-06
9.1422629e-05
-1.0788928e-07
-8.3036238e-07
9.0736981e-05
-1.6239524e-07
5.0536142e-07
8.8820931e-05
-1.7054699e-07
1.7560045e-06
8.5987661e-05
-1.6146983e-07
2.6986134e-06
8.2613677e-05
-1.5251256e-07
3.25948e-06
7.9007499e-05
-1.4663161e-07
3.5084492e-06
7.5391413e-05
-1.4053515e-07
3.5366626e-06
7.1923866e-05
-1.3037498e-07
3.4104147e-06
6.8713518e-05
-1.1340839e-07
3.1790103e-06
6.5826933e-05
-8.8260949e-08
2.8820443e-06
6.3297949e-05
-5.5419946e-08
2.5482483e-06
6.1135398e-05
-1.613502e-08
2.2023645e-06
5.9328638e-05
2.5182936e-08
1.8701113e-06
5.78343e-05
7.3520493e-08
1.5769096e-06
1.4901907e-07
1.3789705e-06
8.0494043e-05
-1.6733668e-06
2.8526906e-06
8.0538488e-05
-1.8621409e-06
3.6798365e-06
8.0279384e-05
-1.749039e-06
3.7571819e-06
7.9745536e-05
-1.5138679e-06
3.5615846e-06
7.9048519e-05
-1.2353624e-06
3.1677426e-06
7.8373293e-05
-9.7380743e-07
2.6228412e-06
7.7931533e-05
-7.546838e-07
1.9511281e-06
7.7959208e-05
-5.8319068e-07
1.1387064e-06
7.8763819e-05
-4.652231e-07
1.258359e-07
8.0584631e-05
-3.9765413e-07
-1.0255033e-06
8.3579074e-05
-3.4670676e-07
-2.301029e-06
8.7686239e-05
-2.8276087e-07
-3.5416428e-06
9.2428796e-05
-1.9561168e-07
-4.3513336e-06
9.6206274e-05
-8.985704e-08
-3.5977637e-06
9.8594286e-05
1.2314025e-08
-2.4126403e-06
9.9573566e-05
1.0788923e-07
-1.195058e-06
9.9241803e-05
1.6239523e-07
6.9718421e-09
9.7694975e-05
1.7054698e-07
1.2057341e-06
9.5246361e-05
1.6146976e-07
2.1256742e-06
9.2217893e-05
1.5251233e-07
2.7234436e-06
8.8866631e-05
1.4663114e-07
3.0579994e-06
8.5382214e-05
1.4053437e-07
3.2033476e-06
8.191122e-05
1.3037387e-07
3.2102454e-06
7.856957e-05
1.1340704e-07
3.1148339e-06
7.5446618e-05
8.8259541e-08
2.9464316e-06
7.2609692e-05
5.5418774e-08
2.7260871e-06
7.010464e-05
1.6134296e-08
2.472783e-06
6.7947424e-05
-2.518302e-08
2.2075818e-06
6.6139241e-05
-7.352006e-08
1.9552242e-06
-1.4901828e-07
1.7803344e-06
7.9636434e-05
-4.1432538e-06
2.8334528e-06
7.8425004e-05
-4.2715214e-06
3.6208102e-06
7.6829804e-05
-3.8095626e-06
3.655724e-06
7.5073384e-05
-3.1703033e-06
3.4128551e-06
7.3370771e-05
-2.5084121e-06
2.9756631e-06
7.1936186e-05
-1.9329186e-06
2.3936961e-06
7.0972591e-05
-1.4795868e-06
1.6884982e-06
7.0695263e-05
-1.1452854e-06
8.394229e-07
7.1351597e-05
-9.2835201e-07
-1.932054e-07
7.3116809e-05
-8.0430754e-07
-1.3585583e-06
7.6107366e-05
-6.9631047e-07
-2.6409532e-06
8.024351e-05
-5.496911e-07
-3.8692146e-06
8.4996506e-05
-3.4237097e-07
-4.6062359e-06
8.8640355e-05
-1.0700185e-07
-3.6267047e-06
9.0762248e-05
1.0776336e-07
-2.2173424e-06
9.142263e-05
2.7786941e-07
-8.3036216e-07
9.0736981e-05
3.4268227e-07
5.0536164e-07
8.8820931e-05
3.305924e-07
1.7560046e-06
8.5987661e-05
2.9612688e-07
2.6986135e-06
8.2613677e-05
2.6701575e-07
3.2594801e-06
7.9007499e-05
2.4436076e-07
3.5084491e-06
7.5391413e-05
2.1995767e-07
3.5366624e-06
7.1923865e-05
1.8750728e-07
3.4104143e-06
6.8713517e-05
1.4474592e-07
3.1790097e-06
6.5826932e-05
9.2800411e-08
2.8820437e-06
6.3297947e-05
3.6155721e-08
2.548248e-06
6.1135396e-05
-2.3678596e-08
2.2023642e-06
5.9328636e-05
-8.8534514e-08
1.8701113e-06
5.7834298e-05
-1.5609169e-07
1.5769098e-06
-2.772963e-07
1.3789709e-06
7.3283884e-05
2.572862e-06
6.5949221e-05
3.0631422e-06
5.9169365e-05
2.9702935e-06
5.3429395e-05
2.5696667e-06
4.8923807e-05
1.9971758e-06
4.565715e-05
1.3337382e-06
4.35773e-05
6.0026283e-07
4.2644734e-05
-2.1271923e-07
4.2795358e-05
-1.078976e-06
4.3997968e-05
-2.0069177e-06
4.6216996e-05
-2.9153379e-06
4.9288318e-05
-3.6210137e-06
5.266481e-05
-3.7188626e-06
5.465961e-05
-2.1018019e-06
5.5240266e-05
-4.7289244e-07
5.4595983e-05
9.2215201e-07
5.2861995e-05
2.0766704e-06
5.0163672e-05
3.0289154e-06
4.694998e-05
3.5098189e-06
4.367713e-05
3.5398655e-06
4.0653276e-05
3.268215e-06
3.8030802e-05
2.8424319e-06
3.5854509e-05
2.3638e-06
3.4106093e-05
1.8931618e-06
3.2735474e-05
1.4634195e-06
3.1680736e-05
1.0908937e-06
3.08737e-05
7.8335798e-07
3.0239788e-05
5.4537697e-07
2.970515e-05
3.7854657e-07
2.9026636e-07
7.6667324e-05
4.3743906e-06
1.5311479e-06
7.2868831e-05
4.7239634e-06
2.1376709e-06
6.935951e-05
4.2356704e-06
2.2439442e-06
6.6285833e-05
3.6579582e-06
1.9853861e-06
6.3771225e-05
3.0658941e-06
1.4458895e-06
6.1896497e-05
2.5251186e-06
6.8334733e-07
6.0712041e-05
2.0805193e-06
-2.95801e-07
6.031515e-05
1.7334378e-06
-1.5492655e-06
6.0862282e-05
1.4285738e-06
-3.0546818e-06
6.258875e-05
1.1208606e-06
-4.8542469e-06
6.5816436e-05
8.037553e-07
-6.9467788e-06
7.0776019e-05
4.831119e-07
-9.0637086e-06
7.6806318e-05
2.4426666e-07
-9.9934289e-06
7.9183e-05
2.9086083e-07
-4.7693445e-06
7.9786532e-05
3.8917047e-07
-1.4655951e-06
7.9182607e-05
4.3217314e-07
1.0939034e-06
7.7470699e-05
4.3343942e-07
3.3551391e-06
7.4349116e-05
4.1092534e-07
5.7395731e-06
7.0591469e-05
3.7496689e-07
6.8924983e-06
6.6797531e-05
3.2124412e-07
7.0125597e-06
6.329459e-05
2.5426488e-07
6.5168907e-06
6.02481e-05
1.8697951e-07
5.7019429e-06
5.770006e-05
1.2792276e-07
4.783918e-06
5.5625794e-05
8.2702807e-08
3.8847245e-06
5.3970516e-05
5.3723299e-08
3.0649745e-06
5.2666666e-05
4.1387601e-08
2.3533563e-06
5.1645469e-05
4.7245566e-08
1.7573092e-06
5.0836609e-05
7.703812e-08
1.2771984e-06
5.0157592e-05
1.443592e-07
9.1320437e-07
3.1748906e-07
6.5596262e-07
8.3691133e-05
1.7885853e-06
1.7281251e-06
8.7406073e-05
2.0674534e-06
2.5623805e-06
9.0538604e-05
1.9398487e-06
2.8190146e-06
9.3149111e-05
1.7336821e-06
2.7266239e-06
9.5350062e-05
1.4972789e-06
2.3433271e-06
9.7310071e-05
1.2669472e-06
1.6918589e-06
9.9238302e-05
1.068567e-06
7.7221932e-07
0.00010137037
9.0964947e-07
-4.6885193e-07
0.00010397096
7.677572e-07
-2.1329885e-06
0.00010735659
6.2258854e-07
-4.2459115e-06
0.00011193682
4.709918e-07
-6.8884208e-06
0.00011815769
3.118206e-07
-9.9187893e-06
0.00012580778
1.8336148e-07
-1.2195424e-05
0.00013053656
1.5730096e-07
-8.2219231e-06
0.00013380663
1.8095909e-07
-5.2792045e-06
0.00013592304
1.9332484e-07
-2.7079267e-06
0.00013666454
1.8881707e-07
8.4898645e-09
0.00013576424
1.717756e-07
2.8954511e-06
0.00013367629
1.5187927e-07
5.0096567e-06
0.00013089308
1.2804803e-07
6.2358813e-06
0.00012771314
9.9379596e-08
6.8432754e-06
0.00012435324
6.9473932e-08
7.0140672e-06
0.00012096894
4.1796557e-08
6.8808443e-06
0.00011766026
1.9375618e-08
6.5510172e-06
0.00011450034
4.544837e-09
6.091144e-06
0.00011154741
-2.2033232e-09
5.5447697e-06
0.00010884791
1.9471177e-09
4.9471576e-06
0.0001064441
1.9629699e-08
4.33133e-06
0.00010437422
6.3110196e-08
3.7280361e-06
1.6084058e-07
3.1699018e-06
8.4677205e-05
-1.7885853e-06
1.7526562e-06
8.9871197e-05
-2.0674534e-06
2.620751e-06
9.4594523e-05
-1.9398486e-06
2.9135539e-06
9.8756565e-05
-1.7336819e-06
2.8669064e-06
0.00010238291
-1.4972785e-06
2.5359576e-06
0.0001055988
-1.2669467e-06
1.940839e-06
0.00010860747
-1.0685662e-06
1.0795918e-06
0.00011163096
-9.0964845e-07
-6.5484369e-08
0.00011496346
-7.6775606e-07
-1.6711466e-06
0.00011888499
-6.2258744e-07
-3.7018619e-06
0.00012377582
-4.709909e-07
-6.2498773e-06
0.00013007867
-3.1182003e-07
-9.2208475e-06
0.00013768978
-1.8336131e-07
-1.1595718e-05
0.00014257223
-1.5730116e-07
-8.1656186e-06
0.00014621608
-1.8095962e-07
-5.6945696e-06
0.00014893518
-1.9332567e-07
-3.5275099e-06
0.00015043086
-1.8881816e-07
-1.1110672e-06
0.00015035867
-1.717769e-07
1.6214764e-06
0.00014913922
-1.5188078e-07
3.6488793e-06
0.00014716282
-1.2804978e-07
4.9559393e-06
0.0001446667
-9.9381671e-08
5.7528869e-06
0.00014182426
-6.9476449e-08
6.1847361e-06
0.00013876865
-4.1799654e-08
6.3494511e-06
0.00013559584
-1.937937e-08
6.3264037e-06
0.00013239006
-4.548991e-09
6.1613007e-06
0.00012923082
2.1966909e-09
5.8809245e-06
0.0001262004
-1.9515365e-09
5.5071071e-06
0.00012338684
-1.9634349e-08
5.0604008e-06
0.0001209042
-6.3114266e-08
4.564091e-06
-1.6084399e-07
4.0490369e-06
8.3691133e-05
-4.3743906e-06
1.7281251e-06
8.7406073e-05
-4.7239634e-06
2.5623805e-06
9.0538604e-05
-4.2356703e-06
2.8190146e-06
9.3149111e-05
-3.6579581e-06
2.7266239e-06
9.5350063e-05
-3.065894e-06
2.3433271e-06
9.7310072e-05
-2.5251184e-06
1.6918589e-06
9.9238303e-05
-2.080519e-06
7.7221932e-07
0.00010137037
-1.7334373e-06
-4.688519e-07
0.00010397097
-1.4285733e-06
-2.1329884e-06
0.00010735659
-1.1208601e-06
-4.2459114e-06
0.00011193682
-8.037549e-07
-6.8884205e-06
0.00011815769
-4.8311168e-07
-9.918789e-06
0.00012580778
-2.4426663e-07
-1.2195424e-05
0.00013053656
-2.9086096e-07
-8.2219226e-06
0.00013380663
-3.8917075e-07
-5.2792041e-06
0.00013592305
-4.3217354e-07
-2.7079264e-06
0.00013666454
-4.3343991e-07
8.490094e-09
0.00013576424
-4.1092591e-07
2.8954513e-06
0.00013367628
-3.7496752e-07
5.0096568e-06
0.00013089308
-3.2124484e-07
6.2358812e-06
0.00012771314
-2.5426572e-07
6.843275e-06
0.00012435324
-1.8698053e-07
7.0140665e-06
0.00012096893
-1.2792404e-07
6.8808434e-06
0.00011766025
-8.2704404e-08
6.551016e-06
0.00011450033
-5.3725269e-08
6.0911426e-06
0.0001115474
-4.1390013e-08
5.544768e-06
0.0001088479
-4.7247987e-08
4.947156e-06
0.00010644409
-7.7040368e-08
4.3313284e-06
0.00010437421
-1.4436108e-07
3.7280346e-06
-3.1749052e-07
3.1699004e-06
7.6667324e-05
1.5311479e-06
7.2868831e-05
2.1376709e-06
6.935951e-05
2.2439442e-06
6.6285833e-05
1.9853861e-06
6.3771225e-05
1.4458895e-06
6.1896498e-05
6.8334733e-07
6.0712042e-05
-2.9580099e-07
6.0315151e-05
-1.5492655e-06
6.0862284e-05
-3.0546817e-06
6.2588753e-05
-4.8542467e-06
6.5816439e-05
-6.9467786e-06
7.0776021e-05
-9.0637082e-06
7.6806321e-05
-9.9934285e-06
7.9183002e-05
-4.7693442e-06
7.9786534e-05
-1.4655948e-06
7.9182608e-05
1.0939036e-06
7.74707e-05
3.3551392e-06
7.4349116e-05
5.7395732e-06
7.0591469e-05
6.8924981e-06
6.6797531e-05
7.0125593e-06
6.329459e-05
6.51689e-06
6.0248099e-05
5.701942e-06
5.7700058e-05
4.7839169e-06
5.5625792e-05
3.8847233e-06
5.3970513e-05
3.0649731e-06
5.2666662e-05
2.3533549e-06
5.1645464e-05
1.757308e-06
5.0836603e-05
1.2771975e-06
5.0157585e-05
9.1320393e-07
6.5596249e-07
7.6491065e-05
4.3907637e-06
6.4931869e-07
7.2799082e-05
4.7785221e-06
1.0511322e-06
6.9575955e-05
4.3039872e-06
1.1630842e-06
6.6816886e-05
3.7377387e-06
1.0067165e-06
6.4522989e-05
3.1502377e-06
5.8954876e-07
6.2709952e-05
2.5957706e-06
-9.9386154e-08
6.1359398e-05
2.0993167e-06
-1.0445642e-06
6.0522117e-05
1.6551066e-06
-2.3670907e-06
6.04201e-05
1.2345391e-06
-4.1872045e-06
6.150747e-05
7.6725532e-07
-6.7088715e-06
6.4656052e-05
1.6626544e-07
-1.0261627e-05
7.1117891e-05
-5.713237e-07
-1.4954224e-05
8.1234488e-05
-1.0759507e-06
-1.9034075e-05
8.4990731e-05
-4.7636235e-07
-8.0492249e-06
8.6051155e-05
1.111088e-07
-2.6371278e-06
8.5639351e-05
6.4357568e-07
8.6213181e-07
8.3644278e-05
1.1020252e-06
4.2481869e-06
7.8399839e-05
1.4957445e-06
9.4882676e-06
7.3016036e-05
1.6462782e-06
1.0630023e-05
6.8217913e-05
1.5602037e-06
1.0250479e-05
6.4362891e-05
1.3451215e-06
9.0267913e-06
6.1437923e-05
1.0818077e-06
7.5451026e-06
5.9293999e-05
8.1560258e-07
6.1122401e-06
5.7770897e-05
5.706583e-07
4.8371679e-06
5.6723116e-05
3.5902374e-07
3.7537314e-06
5.6028297e-05
1.8572595e-07
2.8624502e-06
5.5581867e-05
5.9454279e-08
2.144284e-06
5.5296046e-05
-1.2002967e-08
1.5750231e-06
5.5087898e-05
-1.4676966e-08
1.1360296e-06
8.2955751e-08
7.8827633e-07
8.3577157e-05
1.7966527e-06
7.4507911e-07
8.7540236e-05
2.0945752e-06
1.2832481e-06
9.1169261e-05
1.9738567e-06
1.5201203e-06
9.4375006e-05
1.7730859e-06
1.4855316e-06
9.7145969e-05
1.5387769e-06
1.1838249e-06
9.9542721e-05
1.3018279e-06
5.8905008e-07
0.00010168173
1.0786498e-06
-3.4612243e-07
0.00010368915
8.7085206e-07
-1.6920208e-06
0.00010577262
6.7036272e-07
-3.6522753e-06
0.00010835738
4.4749591e-07
-6.510921e-06
0.0001121857
1.6275741e-07
-1.0713228e-05
0.0001186088
-2.3017842e-07
-1.668303e-05
0.00012933588
-5.5686533e-07
-2.3441591e-05
0.00013491853
-3.6499441e-07
-1.3915943e-05
0.00013832183
-7.0736499e-08
-8.5006591e-06
0.00014073116
1.832234e-07
-4.6569107e-06
0.00014186296
4.3263725e-07
-4.5391988e-07
0.00013951438
6.4898364e-07
6.090793e-06
0.00013639067
7.7067566e-07
9.00897e-06
0.00013310375
7.8182414e-07
1.0301177e-05
0.00012999682
7.2083821e-07
1.0574497e-05
0.00012722189
6.1994801e-07
1.0250852e-05
0.00012477879
5.0136921e-07
9.6381783e-06
0.00012262797
3.797752e-07
8.8927261e-06
0.00012072167
2.6507785e-07
8.0913869e-06
0.00011901683
1.643959e-07
7.2709346e-06
0.00011748825
8.3470371e-08
6.4517224e-06
0.00011613107
2.916634e-08
5.6473391e-06
0.00011498055
1.2324969e-08
4.851556e-06
5.1691307e-08
4.0599723e-06
8.4584205e-05
-1.7966527e-06
7.6175637e-07
9.0070718e-05
-2.0945752e-06
1.3233889e-06
9.534523e-05
-1.9738566e-06
1.5867549e-06
0.00010017156
-1.7730857e-06
1.5867469e-06
0.0001044558
-1.5387765e-06
1.3292738e-06
0.0001082097
-1.3018273e-06
7.905963e-07
0.0001115413
-1.078649e-06
-9.4712953e-08
0.00011457326
-8.7085104e-07
-1.3557447e-06
0.00011745777
-6.7036162e-07
-3.2149241e-06
0.00012058805
-4.4749492e-07
-5.9371584e-06
0.00012464679
-1.6275676e-07
-9.9830976e-06
0.00013084971
2.3017855e-07
-1.5884127e-05
0.00014116851
5.5686484e-07
-2.3028245e-05
0.0001466377
3.6499347e-07
-1.4364797e-05
0.00015031812
7.0735123e-08
-9.5164671e-06
0.00015327494
-1.832249e-07
-6.1178817e-06
0.00015517289
-4.3263913e-07
-2.1437362e-06
0.00015404172
-6.4898591e-07
4.0506185e-06
0.00015216681
-7.7067835e-07
7.0651389e-06
0.00015000966
-7.8182733e-07
8.6767438e-06
0.00014781521
-7.2084199e-07
9.3890099e-06
0.00014571797
-6.1995249e-07
9.5218768e-06
0.00014371921
-5.013745e-07
9.3509632e-06
0.00014179712
-3.7978134e-07
9.0080429e-06
0.00013993116
-2.650848e-07
8.5574244e-06
0.00013811098
-1.6440339e-07
8.0299017e-06
0.0001363455
-8.3478001e-08
7.4395349e-06
0.00013467574
-2.9173684e-08
6.7885008e-06
0.00013319345
-1.2331988e-08
6.0710398e-06
-5.1697536e-08
5.2781454e-06
8.3577157e-05
-4.3907637e-06
7.4507911e-07
8.7540236e-05
-4.778522e-06
1.2832481e-06
9.1169261e-05
-4.3039871e-06
1.5201203e-06
9.4375006e-05
-3.7377386e-06
1.4855316e-06
9.714597e-05
-3.1502376e-06
1.1838249e-06
9.9542721e-05
-2.5957703e-06
5.8905007e-07
0.00010168173
-2.0993163e-06
-3.4612244e-07
0.00010368915
-1.6551061e-06
-1.6920208e-06
0.00010577262
-1.2345386e-06
-3.6522752e-06
0.00010835739
-7.6725487e-07
-6.5109208e-06
0.0001121857
-1.662652e-07
-1.0713228e-05
0.0001186088
5.7132365e-07
-1.668303e-05
0.00012933588
1.0759504e-06
-2.344159e-05
0.00013491853
4.763619e-07
-1.3915943e-05
0.00013832183
-1.1110941e-07
-8.5006589e-06
0.00014073117
-6.4357638e-07
-4.6569105e-06
0.00014186296
-1.1020261e-06
-4.5391982e-07
0.00013951438
-1.4957455e-06
6.0907929e-06
0.00013639067
-1.6462794e-06
9.0089696e-06
0.00013310375
-1.560205e-06
1.0301176e-05
0.00012999681
-1.345123e-06
1.0574495e-05
0.00012722189
-1.0818095e-06
1.025085e-05
0.00012477878
-8.1560468e-07
9.6381759e-06
0.00012262796
-5.7066084e-07
8.8927231e-06
0.00012072166
-3.5902683e-07
8.0913833e-06
0.00011901682
-1.8572962e-07
7.2709305e-06
0.00011748824
-5.9458265e-08
6.4517178e-06
0.00011613106
1.1999006e-08
5.6473343e-06
0.00011498054
1.4673847e-08
4.8515512e-06
-8.2958385e-08
4.0599677e-06
7.6491065e-05
6.4931869e-07
7.2799082e-05
1.0511322e-06
6.9575955e-05
1.1630841e-06
6.6816886e-05
1.0067165e-06
6.4522989e-05
5.8954875e-07
6.2709952e-05
-9.9386164e-08
6.1359399e-05
-1.0445642e-06
6.0522118e-05
-2.3670906e-06
6.0420102e-05
-4.1872044e-06
6.1507472e-05
-6.7088713e-06
6.4656055e-05
-1.0261626e-05
7.1117894e-05
-1.4954224e-05
8.1234491e-05
-1.9034075e-05
8.4990733e-05
-8.0492247e-06
8.6051157e-05
-2.6371277e-06
8.5639352e-05
8.6213186e-07
8.3644278e-05
4.2481868e-06
7.8399839e-05
9.4882672e-06
7.3016035e-05
1.0630022e-05
6.8217912e-05
1.0250478e-05
6.4362889e-05
9.0267896e-06
6.1437921e-05
7.5451004e-06
5.9293996e-05
6.1122375e-06
5.7770894e-05
4.8371649e-06
5.6723112e-05
3.7537281e-06
5.602829e-05
2.8624467e-06
5.5581859e-05
2.1442806e-06
5.5296036e-05
1.5750198e-06
5.5087887e-05
1.1360266e-06
7.882738e-07
7.6009118e-05
4.3956867e-06
2.4451369e-07
7.1854723e-05
4.797124e-06
4.0840389e-07
6.8271459e-05
4.3144276e-06
4.3191996e-07
6.5234602e-05
3.733169e-06
3.1040496e-07
6.2657363e-05
3.1319347e-06
3.4852682e-08
6.0453632e-05
2.5676218e-06
-4.6327641e-07
5.8571288e-05
2.0665055e-06
-1.2287258e-06
5.700957e-05
1.5981342e-06
-2.403507e-06
5.5969695e-05
1.0855091e-06
-4.2328391e-06
5.6063899e-05
3.7998862e-07
-7.1830637e-06
5.8636395e-05
-6.6282319e-07
-1.2171299e-05
6.6120862e-05
-2.1277476e-06
-2.0310943e-05
7.7909642e-05
-2.3853583e-06
-2.8437498e-05
6.7582894e-05
2.2775236e-06
6.1519276e-05
3.4264901e-06
5.9206477e-05
3.1749309e-06
6.0215633e-05
3.2390307e-06
5.5136128e-05
3.5898936e-06
1.0977879e-05
5.1432357e-05
3.4282952e-06
1.0905499e-05
4.8953828e-05
2.9119075e-06
9.8171004e-06
4.7959656e-05
2.2877087e-06
7.7332545e-06
4.7862398e-05
1.6902462e-06
5.9521146e-06
4.8297394e-05
1.1557721e-06
4.521472e-06
4.9049045e-05
6.9043917e-07
3.3950772e-06
4.997215e-05
3.134591e-07
2.5171678e-06
5.0972848e-05
1.9100597e-08
1.8426518e-06
5.1981878e-05
-2.0289939e-07
1.3381531e-06
5.2916025e-05
-3.2906615e-07
9.6994222e-07
5.3722854e-05
-3.7783723e-07
7.0703779e-07
-3.9300021e-07
4.7892331e-07
8.3059094e-05
1.7980369e-06
2.8363525e-07
8.6529544e-05
2.1043565e-06
5.0556525e-07
8.9795536e-05
1.9815118e-06
5.8704381e-07
9.2718932e-05
1.7746832e-06
5.2062146e-07
9.5209389e-05
1.5341638e-06
2.9113914e-07
9.7217103e-05
1.2922781e-06
-1.4332067e-07
9.8760464e-05
1.0657581e-06
-8.8873538e-07
9.9896763e-05
8.4591257e-07
-2.0760986e-06
0.00010073413
6.045062e-07
-4.0086365e-06
0.00010157811
2.8018394e-07
-7.2550994e-06
0.00010334569
-2.2220504e-07
-1.2921425e-05
0.00010841402
-1.012938e-06
-2.2866175e-05
0.00012004118
-1.4543701e-06
-3.5999738e-05
0.00010762259
7.8017751e-07
0.0001009673
1.5811133e-06
9.7929446e-05
1.5558793e-06
9.9129871e-05
1.5846856e-06
9.629685e-05
1.7473122e-06
1.0766396e-05
9.5279621e-05
1.7675345e-06
1.1686959e-05
9.5148296e-05
1.5853308e-06
1.1759079e-05
9.6044447e-05
1.3222073e-06
1.0643847e-05
9.7484318e-05
1.0441655e-06
9.4570614e-06
9.9165999e-05
7.7727325e-07
8.3349967e-06
0.00010089364
5.3258522e-07
7.3229415e-06
0.00010255142
3.1684319e-07
6.4302179e-06
0.00010406369
1.3599227e-07
5.6417754e-06
0.00010539543
-1.5132007e-08
4.9322133e-06
0.000106549
-1.1567621e-07
4.280382e-06
0.00010753561
-1.7746931e-07
3.6645749e-06
-2.0539739e-07
3.0326022e-06
8.4066232e-05
-1.7980369e-06
2.9159793e-07
8.90737e-05
-2.1043564e-06
5.2463452e-07
9.4004257e-05
-1.9815118e-06
6.1922071e-07
9.8570011e-05
-1.774683e-06
5.7035909e-07
0.00010260388
-1.5341634e-06
3.6373338e-07
0.00010600895
-1.2922775e-06
-2.9923733e-08
0.00010878331
-1.0657573e-06
-7.3755155e-07
0.00011098452
-8.459116e-07
-1.8651317e-06
0.00011268883
-6.045052e-07
-3.7102211e-06
0.00011413879
-2.8018314e-07
-6.8267562e-06
0.00011606795
2.2220534e-07
-1.2356666e-05
0.00012048017
1.0129374e-06
-2.2322219e-05
0.00013111962
1.4543688e-06
-3.6576436e-05
0.00011831518
-7.8017889e-07
0.00011196094
-1.5811149e-06
0.00010895482
-1.5558812e-06
0.00010998046
-1.584688e-06
0.0001077409
-1.7473155e-06
9.7848071e-06
0.00010753841
-1.767539e-06
1.0802698e-05
0.00010824783
-1.5853365e-06
1.1137993e-05
0.00010988936
-1.3222142e-06
1.0391896e-05
0.00011195547
-1.0441734e-06
9.5441123e-06
0.00011412525
-7.7728207e-07
8.7357383e-06
0.00011621276
-5.3259464e-07
7.9857114e-06
0.00011811112
-3.1685285e-07
7.2927596e-06
0.00011976766
-1.3600187e-07
6.6453598e-06
0.0001211511
1.512381e-08
6.0258357e-06
0.00012229073
1.1566872e-07
5.4175277e-06
0.00012321023
1.7746304e-07
4.7966071e-06
2.0539216e-07
4.1093832e-06
8.3059094e-05
-4.3956867e-06
2.8363525e-07
8.6529544e-05
-4.797124e-06
5.0556525e-07
8.9795536e-05
-4.3144275e-06
5.8704381e-07
9.2718932e-05
-3.7331689e-06
5.2062144e-07
9.5209389e-05
-3.1319345e-06
2.9113912e-07
9.7217104e-05
-2.5676215e-06
-1.433207e-07
9.8760465e-05
-2.0665051e-06
-8.887354e-07
9.9896765e-05
-1.5981337e-06
-2.0760986e-06
0.00010073413
-1.0855086e-06
-4.0086365e-06
0.00010157811
-3.7998829e-07
-7.2550993e-06
0.00010334569
6.6282323e-07
-1.2921425e-05
0.00010841403
2.1277472e-06
-2.2866175e-05
0.00012004119
2.3853576e-06
-3.5999738e-05
0.00010762259
-2.2775243e-06
0.00010096731
-3.4264908e-06
9.7929446e-05
-3.1749317e-06
9.912987e-05
-3.2390316e-06
9.6296847e-05
-3.5898949e-06
1.0766396e-05
9.5279616e-05
-3.428297e-06
1.1686958e-05
9.5148289e-05
-2.9119096e-06
1.1759077e-05
9.6044438e-05
-2.2877111e-06
1.0643844e-05
9.7484308e-05
-1.6902489e-06
9.4570561e-06
9.9165987e-05
-1.1557752e-06
8.33499e-06
0.00010089362
-6.904426e-07
7.3229335e-06
0.00010255141
-3.1346297e-07
6.4302091e-06
0.00010406368
-1.910438e-08
5.6417659e-06
0.00010539542
2.0289563e-07
4.9322036e-06
0.00010654899
3.2906305e-07
4.2803725e-06
0.0001075356
3.7783475e-07
3.6645659e-06
3.9299824e-07
3.032594e-06
7.6009118e-05
2.4451369e-07
7.1854723e-05
4.0840389e-07
6.8271459e-05
4.3191996e-07
6.5234602e-05
3.1040495e-07
6.2657363e-05
3.4852664e-08
6.0453632e-05
-4.6327643e-07
5.8571289e-05
-1.2287258e-06
5.7009571e-05
-2.403507e-06
5.5969697e-05
-4.232839e-06
5.6063901e-05
-7.1830635e-06
5.8636397e-05
-1.2171299e-05
6.6120864e-05
-2.0310943e-05
7.7909644e-05
-2.8437498e-05
6.7582895e-05
6.1519276e-05
5.9206477e-05
6.0215632e-05
5.5136125e-05
1.0977879e-05
5.1432354e-05
1.0905497e-05
4.8953824e-05
9.8170978e-06
4.7959652e-05
7.7332507e-06
4.7862393e-05
5.9521098e-06
4.8297389e-05
4.5214666e-06
4.904904e-05
3.3950713e-06
4.9972144e-05
2.5171616e-06
5.0972841e-05
1.8426455e-06
5.198187e-05
1.3381469e-06
5.2916016e-05
9.6993642e-07
5.3722845e-05
7.0703266e-07
4.7891907e-07
7.5841734e-05
4.4027798e-06
-9.022701e-15
7.1437141e-05
4.8129968e-06
-1.9667104e-14
6.7532617e-05
4.3364442e-06
2.0033872e-15
6.4086133e-05
3.7568884e-06
1.1630288e-13
6.0967676e-05
3.1533096e-06
3.6042479e-13
5.7933235e-05
2.5711635e-06
7.2596964e-13
5.4674273e-05
2.0302359e-06
1.138538e-12
5.0809153e-05
1.4616109e-06
1.4606644e-12
4.5911963e-05
6.6434965e-07
1.5535363e-12
3.9395968e-05
-6.6707055e-07
1.3677453e-12
3.034108e-05
-3.1164117e-06
9.8213776e-13
1.7184411e-05
-7.1542753e-06
6.0647744e-13
-1.1253087e-05
4.0356378e-13
5.2123463e-06
5.7655313e-06
1.4730586e-12
1.1924174e-05
4.193668e-06
2.6110659e-12
1.8938119e-05
2.8031532e-06
2.8817954e-12
2.5150359e-05
1.5210114e-06
2.7689285e-12
3.0614985e-05
4.874859e-07
2.487894e-12
3.5352331e-05
-2.1587603e-07
2.246035e-12
3.9437887e-05
-6.9048092e-07
1.8936156e-12
4.2922065e-05
-9.6701119e-07
1.4229581e-12
4.5867276e-05
-1.1025601e-06
9.2283972e-13
4.8343445e-05
-1.1380162e-06
4.3873463e-13
5.0426425e-05
-1.1130376e-06
-1.581478e-13
5.2199878e-05
-1.0664149e-06
-8.754763e-13
-1.1148096e-06
-1.54893e-12
8.2885362e-05
1.8010532e-06
-1.0090305e-14
8.6091365e-05
2.1125593e-06
-1.768793e-14
8.9021316e-05
1.9935365e-06
2.2038176e-14
9.1510913e-05
1.7879125e-06
1.7467721e-13
9.3410027e-05
1.5453343e-06
4.9884049e-13
9.4544672e-05
1.2931971e-06
1.02039e-12
9.4640523e-05
1.045648e-06
1.7078894e-12
9.3249824e-05
7.7620836e-07
2.4655614e-12
8.949924e-05
4.0629461e-07
3.1197376e-12
8.182238e-05
-2.453141e-07
3.4427031e-12
6.7257414e-05
-1.4728739e-06
3.1994132e-12
4.0929611e-05
-3.69265e-06
2.3628678e-12
-6.323215e-06
1.2635695e-12
1.346054e-05
3.0713854e-06
2.0905025e-12
2.6961365e-05
2.379798e-06
3.5529483e-12
3.986904e-05
1.6545541e-06
3.8472304e-12
5.1008589e-05
1.0253063e-06
3.5554707e-12
6.047417e-05
4.7896261e-07
2.9234434e-12
6.8519422e-05
7.3866736e-08
1.9824302e-12
7.5369481e-05
-2.1759853e-07
9.1751781e-13
8.1246821e-05
-4.1413343e-07
-1.6685051e-13
8.6323587e-05
-5.375494e-07
-1.2194416e-12
9.0721444e-05
-6.0365756e-07
-2.3578155e-12
9.4518255e-05
-6.2946334e-07
-3.4559099e-12
9.7754164e-05
-6.3774383e-07
-4.5109193e-12
-6.6664519e-07
-5.3587251e-12
8.3893704e-05
-1.8010532e-06
-1.0448861e-14
8.8643457e-05
-2.1125592e-06
-1.6850279e-14
9.3249751e-05
-1.9935364e-06
2.6949472e-14
9.7395935e-05
-1.7879123e-06
1.8501716e-13
0.00010085034
-1.545334e-06
5.1684104e-13
0.0001034068
-1.2931966e-06
1.0558739e-12
0.00010476055
-1.0456472e-06
1.7825748e-12
0.00010444783
-7.7620752e-07
2.6397384e-12
0.00010155019
-4.0629382e-07
3.4630404e-12
9.4232803e-05
2.4531453e-07
4.0099156e-12
7.8930385e-05
1.4728734e-06
3.9836646e-12
4.9222865e-05
3.6926482e-06
3.2050839e-12
6.3232122e-06
1.8328796e-12
1.592758e-05
-3.0713897e-06
2.2689517e-12
3.1489876e-05
-2.3798032e-06
3.002566e-12
4.5936979e-05
-1.6545587e-06
2.3743875e-12
5.8379491e-05
-1.0253101e-06
1.1161461e-12
6.8881532e-05
-4.7896544e-07
-5.0166196e-13
7.7765008e-05
-7.3868586e-08
-2.2548413e-12
8.5315527e-05
2.1759774e-07
-4.0697184e-12
9.1780025e-05
4.1413356e-07
-5.8311726e-12
9.7350293e-05
5.3755034e-07
-7.4487148e-12
0.00010216882
6.0365919e-07
-8.8472096e-12
0.00010632743
6.2946549e-07
-9.9860688e-12
0.00010984856
6.3774627e-07
-1.0831936e-11
6.6664762e-07
-1.1224358e-11
8.2885362e-05
-4.4027798e-06
-1.0676806e-14
8.6091365e-05
-4.8129968e-06
-1.9940925e-14
8.9021316e-05
-4.3364442e-06
1.5256533e-14
9.1510914e-05
-3.7568883e-06
1.6058053e-13
9.3410028e-05
-3.1533094e-06
4.7413516e-13
9.4544673e-05
-2.5711633e-06
9.8495751e-13
9.4640524e-05
-2.0302355e-06
1.6673258e-12
9.3249826e-05
-1.4616105e-06
2.4323874e-12
8.9499242e-05
-6.6434929e-07
3.1112501e-12
8.1822383e-05
6.6707069e-07
3.4775029e-12
6.7257417e-05
3.1164114e-06
3.2910703e-12
4.0929613e-05
7.1542744e-06
2.4969815e-12
1.1253086e-05
1.3903897e-12
1.3460537e-05
-5.7655329e-06
2.1682484e-12
2.6961359e-05
-4.1936698e-06
2.0880414e-12
3.9869032e-05
-2.8031546e-06
5.297095e-13
5.1008579e-05
-1.5210124e-06
-1.4873451e-12
6.047416e-05
-4.8748631e-07
-3.7036902e-12
6.8519411e-05
2.1587598e-07
-5.9013433e-12
7.5369469e-05
6.9048113e-07
-7.9301562e-12
8.124681e-05
9.6701159e-07
-9.7027929e-12
8.6323577e-05
1.1025606e-06
-1.1130405e-11
9.0721435e-05
1.1380169e-06
-1.2152947e-11
9.4518247e-05
1.1130385e-06
-1.2768268e-11
9.7754156e-05
1.0664158e-06
-1.2966996e-11
1.1148106e-06
-1.2663979e-11
7.5841734e-05
-9.4454502e-15
7.1437141e-05
-2.1543922e-14
6.7532617e-05
-3.7818799e-15
6.4086133e-05
1.0193289e-13
6.0967676e-05
3.3477728e-13
5.7933236e-05
6.9069803e-13
5.4674273e-05
1.1038102e-12
5.0809154e-05
1.4451306e-12
4.5911965e-05
1.5788214e-12
3.939597e-05
1.4478895e-12
3.0341081e-05
1.1090537e-12
1.7184412e-05
7.4921123e-13
5.1246499e-13
5.2123442e-06
1.5376491e-12
1.192417e-05
1.2211765e-12
1.8938114e-05
-1.9134277e-13
2.5150354e-05
-1.5836359e-12
3.061498e-05
-2.8094572e-12
3.5352326e-05
-3.7656157e-12
3.9437883e-05
-4.467554e-12
4.2922061e-05
-4.9440193e-12
4.5867273e-05
-5.22892e-12
4.8343442e-05
-5.3472999e-12
5.0426422e-05
-5.3122506e-12
5.2199876e-05
-5.1493914e-12
-4.8045591e-12
7.5841734e-05
4.4027798e-06
-2.4451372e-07
7.1437141e-05
4.8129968e-06
-4.0840394e-07
6.7532617e-05
4.3364442e-06
-4.3191997e-07
6.4086133e-05
3.7568883e-06
-3.1040476e-07
6.0967676e-05
3.1533096e-06
-3.4852074e-08
5.7933236e-05
2.5711635e-06
4.6327778e-07
5.4674273e-05
2.0302359e-06
1.2287279e-06
5.0809154e-05
1.4616109e-06
2.4035098e-06
4.5911963e-05
6.643497e-07
4.2328421e-06
3.9395969e-05
-6.6707041e-07
7.1830663e-06
3.034108e-05
-3.1164115e-06
1.2171301e-05
1.7184411e-05
-7.1542751e-06
2.0310944e-05
-1.1253087e-05
2.8437498e-05
5.212346e-06
5.7655326e-06
-1.0977877e-05
1.1924174e-05
4.1936701e-06
-1.0905496e-05
1.8938119e-05
2.8031558e-06
-9.8170974e-06
2.5150359e-05
1.5210145e-06
-7.733252e-06
3.0614985e-05
4.8748937e-07
-5.9521125e-06
3.5352329e-05
-2.1587214e-07
-4.5214705e-06
3.9437885e-05
-6.9047726e-07
-3.3950764e-06
4.2922062e-05