/*--------------------------------*- C++ -*----------------------------------*\
| =========                 |                                                 |
| \\      /  F ield         | OpenFOAM: The Open Source CFD Toolbox           |
|  \\    /   O peration     | Version:  2412                                  |
|   \\  /    A nd           | Website:  www.openfoam.com                      |
|    \\/     M anipulation  |                                                 |
\*---------------------------------------------------------------------------*/
FoamFile
{
    version     2.0;
    format      ascii;
    arch        "LSB;label=32;scalar=64";
    class       volScalarField;
    location    "70/bottomWater";
    object      T;
}
// * * * * * * * * * * * * * * * * * * * * * * * * * * * * * * * * * * * * * //

dimensions      [0 0 0 1 0 0 0];

internalField   nonuniform List<scalar> 
1460
(
300
300
300
300
300
299.99999
299.99999
299.99999
299.99999
300
300.00005
300.00119
300.01262
300.02018
300.01956
300.01652
300.01349
300.01062
300.00802
300.0058
300.00401
300.00265
300.00168
300.00102
300.0006
300.00034
300.00019
300.0001
300.00005
300.00003
300
300
300
300
300
300
300
299.99999
299.99999
299.99999
300
300.00022
300.00359
300.00869
300.01299
300.01484
300.01457
300.0138
300.01259
300.01104
300.00929
300.00749
300.00579
300.00429
300.00305
300.00209
300.00138
300.00088
300.00054
300.00033
300
300
300
300
300
300
300
300
300
300
300
300.00009
300.00172
300.00469
300.00788
300.01018
300.01081
300.01102
300.01078
300.0101
300.00905
300.00776
300.00636
300.00498
300.00374
300.0027
300.00187
300.00126
300.00082
300.00053
300
300.00001
300.00001
300.00002
300.00002
300.00003
300.00004
300.00004
300.00005
300.00006
300.00008
300.00022
300.00266
300.01563
300.03102
300.04529
300.05633
300.06377
300.06696
300.06589
300.0611
300.05358
300.0446
300.03536
300.02683
300.01959
300.01395
300.00982
300.00692
300.00506
300.00007
300.00013
300.00019
300.00027
300.00037
300.00052
300.00072
300.00097
300.00129
300.00166
300.00209
300.00325
300.02628
300.83421
301.38125
301.70995
301.85843
301.86094
301.74963
301.55802
301.32156
301.07374
300.84082
300.63888
300.47433
300.34665
300.25157
300.18381
300.13842
300.11162
300
300
300
300
300
299.99999
299.99999
299.99999
299.99999
300.00001
300.00056
300.01327
300.17461
300.26732
300.28154
300.25376
300.22118
300.18626
300.15142
300.11872
300.08964
300.06507
300.04536
300.03036
300.01953
300.01208
300.00721
300.00415
300.00232
300.00126
300
300
300
300
300
300
300
299.99999
299.99999
300
300.00007
300.0025
300.0528
300.11177
300.16286
300.19372
300.19366
300.18925
300.18073
300.16859
300.15341
300.1359
300.1169
300.09739
300.07838
300.0608
300.04538
300.03255
300.02242
300.01489
300
300
300
300
300
300
300
300
300
300
300.00003
300.00113
300.02808
300.06361
300.09945
300.12799
300.13964
300.14038
300.13813
300.1329
300.12484
300.11424
300.10161
300.08763
300.07311
300.05888
300.04569
300.03411
300.02447
300.01693
300
300.00001
300.00002
300.00002
300.00003
300.00003
300.00004
300.00005
300.00006
300.00008
300.00013
300.0016
300.0337
300.07762
300.12056
300.15276
300.16571
300.17419
300.17697
300.17342
300.16363
300.14856
300.12974
300.10899
300.08809
300.06856
300.05144
300.03731
300.02629
300.01827
300.00007
300.00014
300.0002
300.00028
300.00039
300.00054
300.00075
300.00104
300.00142
300.0019
300.00263
300.00751
300.07885
300.84204
301.41138
301.80777
302.05022
302.14368
302.10295
301.952
301.72314
301.45254
301.17415
300.91444
300.68989
300.50741
300.36676
300.26352
300.19175
300.14607
300
300
300
300
300
299.99999
299.99999
299.99999
300
300.00009
300.00335
300.0866
301.37665
302.0297
302.26482
302.1633
302.01448
301.79158
301.52508
301.2468
300.98017
300.74132
300.53927
300.37722
300.25378
300.16439
300.10277
300.06221
300.03641
300.02072
300
300
300
300
300
300
299.99999
299.99999
299.99999
300.00001
300.00049
300.01926
300.50519
300.94333
301.32348
301.59906
301.64435
301.61169
301.53729
301.43064
301.30088
301.15647
301.00491
300.85276
300.70575
300.56874
300.44545
300.33835
300.24881
300.17746
300
300
300
300
300
300
300
300
300
300.00001
300.00022
300.00998
300.30686
300.60247
300.88288
301.12121
301.23245
301.22761
301.19574
301.14018
301.06429
300.97188
300.86737
300.75563
300.64171
300.53054
300.42643
300.33273
300.25169
300.18487
300
300.00001
300.00002
300.00002
300.00003
300.00004
300.00005
300.00006
300.00008
300.0001
300.00039
300.01217
300.331
300.61524
300.85885
301.03721
301.07401
301.06497
301.02749
300.9628
300.87526
300.77171
300.65997
300.54746
300.44048
300.34368
300.25998
300.19068
300.1356
300.09388
300.00008
300.00015
300.00022
300.00031
300.00044
300.00063
300.0009
300.00128
300.00181
300.00256
300.0045
300.0342
300.54352
301.70249
302.49802
302.96706
303.23313
303.28159
303.14311
302.85744
302.47427
302.04778
301.62653
301.24589
300.92534
300.67044
300.47726
300.33708
300.24008
300.17782
300
300
300
300
300
299.99999
299.99999
299.99999
300
300.00035
300.01224
300.34037
306.47002
309.49094
312.72295
315.73103
317.55645
314.61597
311.44296
308.63483
306.34254
304.55759
303.20398
302.19996
301.47301
300.96226
300.61534
300.38374
300.23245
300.13754
300
300
300
300
300
300
299.99999
299.99999
300
300.00004
300.0021
300.09144
302.8872
304.85218
307.06848
309.34344
311.4938
310.8949
309.79143
308.51276
307.23652
306.05355
304.99647
304.07124
303.27237
302.5898
302.0116
301.53043
301.13842
300.82937
300
300
300
300
300
300
300
300
300
300.00002
300.00104
300.05253
301.93783
303.369
304.93871
306.54701
308.0944
307.81318
307.2154
306.47104
305.67632
304.89085
304.1461
303.459
302.83863
302.28928
301.81186
301.40499
301.06606
300.79284
300
300.00001
300.00002
300.00003
300.00003
300.00004
300.00006
300.00007
300.00009
300.00013
300.00141
300.05914
301.93296
303.19364
304.58939
305.98297
307.2442
306.7012
305.88221
304.99136
304.13307
303.35958
302.68787
302.11825
301.64365
301.25419
300.93946
300.69006
300.49615
300.34983
300.00009
300.00016
300.00024
300.00035
300.0005
300.00073
300.00107
300.00157
300.0023
300.00345
300.00874
300.13035
302.65043
305.10776
307.4577
309.33006
310.23897
308.86657
307.24351
305.69051
304.33434
303.22146
302.34614
301.68021
301.18731
300.83103
300.57893
300.40332
300.28399
300.20747
300
300
300
300
299.99999
299.99999
299.99999
299.99999
300.00002
300.00087
300.03006
300.89146
321.56991
339.14988
314.9705
308.36674
305.29714
303.47628
302.31228
301.54361
301.02241
300.66694
300.42611
300.26554
300.16107
300.0962
300
300
300
300
300
300
299.99999
299.99999
300
300.00011
300.00593
300.27955
311.21304
333.10387
316.95201
311.19174
308.19591
306.26338
304.85292
303.7554
302.88388
302.18836
301.63545
301.20044
300.8633
300.60918
300
300
300
300
300
300
300
300
300
300.00005
300.00314
300.17292
308.0694
325.19883
313.52393
309.15969
306.80557
305.2568
304.12057
303.23479
302.52487
301.95023
301.48543
301.11247
300.81718
300.58931
300
300.00001
300.00002
300.00003
300.00004
300.00005
300.00006
300.00008
300.0001
300.00018
300.00384
300.18441
307.61811
318.58377
309.02726
305.78501
304.11906
303.05365
302.29449
301.72809
301.29438
300.95895
300.69998
300.50191
300.35271
300.24346
300.00009
300.00017
300.00025
300.00037
300.00054
300.0008
300.00119
300.00179
300.0027
300.00431
300.01608
300.34932
309.26637
317.49926
307.93468
305.10694
303.60124
302.60166
301.89346
301.37899
301.00058
300.72178
300.51771
300.37069
300.26788
300.20059
300
300
300
300
299.99999
299.99999
299.99999
299.99999
300.00002
300.00087
300.03006
300.89146
321.5699
339.14988
314.97049
308.36673
305.29714
303.47628
302.31228
301.54361
301.02241
300.66694
300.42611
300.26554
300.16107
300.0962
300
300
300
300
300
300
299.99999
299.99999
300
300.00011
300.00593
300.27955
311.21304
333.10387
316.95201
311.19174
308.19591
306.26338
304.85292
303.7554
302.88388
302.18836
301.63546
301.20044
300.8633
300.60918
300
300
300
300
300
300
300
300
300
300.00005
300.00314
300.17292
308.06939
325.19885
313.52395
309.15971
306.80558
305.25681
304.12058
303.2348
302.52488
301.95024
301.48544
301.11247
300.81718
300.58931
300
300.00001
300.00002
300.00003
300.00004
300.00005
300.00006
300.00008
300.0001
300.00018
300.00384
300.18441
307.61811
318.58379
309.02727
305.78503
304.11907
303.05367
302.2945
301.7281
301.29439
300.95896
300.69999
300.50192
300.35271
300.24346
300.00009
300.00017
300.00025
300.00037
300.00054
300.0008
300.00119
300.00179
300.0027
300.00431
300.01608
300.34932
309.26636
317.49928
307.9347
305.10696
303.60126
302.60167
301.89347
301.379
301.00058
300.72178
300.51771
300.37069
300.26788
300.20059
300
300
300
300
300
299.99999
299.99999
299.99999
300
300.00035
300.01224
300.34037
306.47002
309.49094
312.72295
315.73102
317.55645
314.61596
311.44296
308.63482
306.34253
304.55758
303.20398
302.19996
301.47301
300.96226
300.61533
300.38374
300.23245
300.13754
300
300
300
300
300
300
299.99999
299.99999
300
300.00004
300.0021
300.09144
302.8872
304.85218
307.06847
309.34343
311.49379
310.89489
309.79142
308.51275
307.23651
306.05354
304.99646
304.07123
303.27237
302.58979
302.0116
301.53043
301.13842
300.82937
300
300
300
300
300
300
300
300
300
300.00002
300.00104
300.05253
301.93783
303.369
304.9387
306.54701
308.09439
307.81317
307.2154
306.47103
305.67632
304.89085
304.1461
303.459
302.83863
302.28928
301.81186
301.40499
301.06607
300.79284
300
300.00001
300.00002
300.00003
300.00003
300.00004
300.00006
300.00007
300.00009
300.00013
300.00141
300.05914
301.93296
303.19364
304.58939
305.98297
307.2442
306.7012
305.88221
304.99136
304.13307
303.35959
302.68787
302.11825
301.64365
301.25419
300.93946
300.69006
300.49615
300.34983
300.00009
300.00016
300.00024
300.00035
300.0005
300.00073
300.00107
300.00157
300.0023
300.00345
300.00874
300.13035
302.65042
305.10776
307.45769
309.33006
310.23897
308.86658
307.24351
305.69052
304.33435
303.22147
302.34615
301.68022
301.18732
300.83104
300.57893
300.40333
300.284
300.20747
300
300
300
300
300
299.99999
299.99999
299.99999
300
300.00009
300.00335
300.0866
301.37665
302.02969
302.26482
302.1633
302.01448
301.79158
301.52507
301.24679
300.98017
300.74131
300.53927
300.37721
300.25378
300.16439
300.10277
300.06221
300.03641
300.02072
300
300
300
300
300
300
299.99999
299.99999
299.99999
300.00001
300.00049
300.01926
300.50519
300.94333
301.32348
301.59906
301.64435
301.61169
301.53728
301.43063
301.30088
301.15647
301.00491
300.85276
300.70575
300.56874
300.44545
300.33835
300.24881
300.17746
300
300
300
300
300
300
300
300
300
300.00001
300.00022
300.00998
300.30686
300.60246
300.88288
301.12121
301.23245
301.22761
301.19574
301.14018
301.06429
300.97188
300.86737
300.75562
300.64171
300.53054
300.42643
300.33273
300.25169
300.18487
300
300.00001
300.00002
300.00002
300.00003
300.00004
300.00005
300.00006
300.00008
300.0001
300.00039
300.01217
300.331
300.61524
300.85884
301.03721
301.07401
301.06497
301.02748
300.96279
300.87526
300.77171
300.65997
300.54746
300.44048
300.34368
300.25998
300.19069
300.1356
300.09388
300.00008
300.00015
300.00022
300.00031
300.00044
300.00063
300.0009
300.00128
300.00181
300.00256
300.0045
300.0342
300.54352
301.70249
302.49802
302.96706
303.23313
303.28159
303.14312
302.85744
302.47428
302.04779
301.62654
301.2459
300.92535
300.67045
300.47727
300.33708
300.24009
300.17783
300
300
300
300
300
299.99999
299.99999
299.99999
299.99999
300.00001
300.00056
300.01327
300.17461
300.26732
300.28154
300.25376
300.22118
300.18626
300.15142
300.11872
300.08964
300.06507
300.04536
300.03036
300.01953
300.01208
300.00721
300.00415
300.00232
300.00126
300
300
300
300
300
300
300
299.99999
299.99999
300
300.00007
300.0025
300.0528
300.11177
300.16286
300.19372
300.19366
300.18925
300.18073
300.16859
300.15341
300.13589
300.1169
300.09739
300.07838
300.0608
300.04538
300.03255
300.02242
300.01489
300
300
300
300
300
300
300
300
300
300
300.00003
300.00113
300.02808
300.06361
300.09945
300.12799
300.13964
300.14038
300.13813
300.1329
300.12484
300.11424
300.10161
300.08763
300.07311
300.05888
300.04569
300.03411
300.02447
300.01693
300
300.00001
300.00002
300.00002
300.00003
300.00003
300.00004
300.00005
300.00006
300.00008
300.00013
300.0016
300.0337
300.07762
300.12056
300.15276
300.16571
300.17419
300.17697
300.17342
300.16363
300.14856
300.12974
300.10899
300.08809
300.06856
300.05144
300.03731
300.02629
300.01827
300.00007
300.00014
300.0002
300.00028
300.00039
300.00054
300.00075
300.00104
300.00142
300.0019
300.00263
300.00751
300.07885
300.84204
301.41138
301.80777
302.05022
302.14368
302.10296
301.952
301.72315
301.45255
301.17416
300.91445
300.6899
300.50742
300.36676
300.26352
300.19175
300.14607
300
300
300
300
300
299.99999
299.99999
299.99999
299.99999
300
300.00005
300.00119
300.01262
300.02017
300.01956
300.01652
300.01349
300.01062
300.00802
300.0058
300.00401
300.00265
300.00168
300.00102
300.0006
300.00034
300.00019
300.0001
300.00005
300.00003
300
300
300
300
300
300
300
299.99999
299.99999
299.99999
300
300.00022
300.00359
300.00869
300.01299
300.01484
300.01457
300.0138
300.01259
300.01104
300.00929
300.00749
300.00579
300.00429
300.00305
300.00209
300.00138
300.00088
300.00054
300.00033
300
300
300
300
300
300
300
300
300
300
300
300.00009
300.00172
300.00469
300.00788
300.01018
300.01081
300.01102
300.01078
300.0101
300.00905
300.00776
300.00636
300.00498
300.00374
300.0027
300.00187
300.00126
300.00082
300.00053
300
300.00001
300.00001
300.00002
300.00002
300.00003
300.00004
300.00004
300.00005
300.00006
300.00008
300.00022
300.00266
300.01563
300.03102
300.04529
300.05633
300.06377
300.06696
300.06589
300.0611
300.05359
300.0446
300.03536
300.02683
300.01959
300.01395
300.00982
300.00692
300.00506
300.00007
300.00013
300.00019
300.00027
300.00037
300.00052
300.00072
300.00097
300.00129
300.00166
300.00209
300.00325
300.02628
300.83421
301.38125
301.70995
301.85843
301.86094
301.74964
301.55803
301.32157
301.07375
300.84083
300.63889
300.47434
300.34666
300.25157
300.18381
300.13842
300.11162
)
;

boundaryField
{
    minX
    {
        type            fixedValue;
        value           uniform 300;
    }
    maxX
    {
        type            inletOutlet;
        inletValue      uniform 300;
        value           nonuniform List<scalar> 
50
(
300.00003
300.00032
300.00053
300.00505
300.1114
300.00126
300.01484
300.01688
300.01822
300.14578
300.02067
300.17706
300.18445
300.09363
300.17746
300.13723
300.82789
300.79135
300.34908
300.20705
300.09596
300.60791
300.58801
300.24286
300.2002
300.09596
300.60791
300.58801
300.24287
300.2002
300.13723
300.82789
300.79135
300.34908
300.20705
300.02067
300.17706
300.18445
300.09363
300.17747
300.00126
300.01484
300.01688
300.01822
300.14578
300.00003
300.00032
300.00053
300.00505
300.1114
)
;
    }
    minY
    {
        type            zeroGradient;
    }
    minZ
    {
        type            zeroGradient;
    }
    maxZ
    {
        type            zeroGradient;
    }
    bottomWater_to_rightSolid
    {
        type            compressible::turbulentTemperatureRadCoupledMixed;
        refValue        nonuniform List<scalar> 
130
(
317.79701
315.47212
313.12785
310.89876
308.87544
307.10784
305.61415
304.39072
303.421
302.68264
302.15272
301.81143
301.64448
320.18908
317.31238
314.48411
311.86651
309.54954
307.5691
305.92571
304.59941
303.56041
302.77645
302.21758
301.85931
301.6845
325.03491
320.88658
317.01591
313.61297
310.73308
308.36153
306.45204
304.94747
303.79071
302.93034
302.32346
301.93721
301.74954
332.30299
325.75497
320.20051
315.67794
312.06859
309.22524
307.01131
305.31058
304.02787
303.08742
302.43091
302.01601
301.81523
340.82854
330.33827
322.79305
317.20446
312.99471
309.79938
307.37288
305.54117
304.17681
303.18543
302.49775
302.06501
301.85609
340.82852
330.33825
322.79304
317.20446
312.99471
309.79938
307.37289
305.54117
304.17681
303.18543
302.49776
302.06501
301.8561
332.30297
325.75495
320.20051
315.67794
312.0686
309.22525
307.01132
305.31058
304.02788
303.08742
302.43091
302.01602
301.81524
325.03492
320.88659
317.01593
313.61298
310.73309
308.36155
306.45206
304.94747
303.79072
302.93034
302.32346
301.93722
301.74954
320.1891
317.3124
314.48413
311.86653
309.54956
307.56912
305.92573
304.59942
303.56042
302.77645
302.21759
301.85931
301.68451
317.79705
315.47215
313.12788
310.89879
308.87546
307.10786
305.61417
304.39073
303.42101
302.68265
302.15273
301.81144
301.64448
)
;
        refGradient     uniform 0;
        valueFraction   uniform 0.99248593;
        source          uniform 0;
        logInterval     -1;
        writePrecision  8;
        updateHeader    1;
        writeToFile     0;
        useUserTime     1;
        kappaMethod     fluidThermo;
        value           nonuniform List<scalar> 
130
(
317.67725
315.36899
313.0409
310.82679
308.81681
307.06074
305.57676
304.36129
303.39789
302.66437
302.13792
301.79886
301.63296
320.05347
317.19808
314.38993
311.79028
309.48869
307.52104
305.88805
304.57003
303.53746
302.75834
302.20289
301.84678
301.67294
324.87144
320.75324
316.90951
313.52926
310.6678
308.31091
306.41291
304.91724
303.76726
302.9119
302.30852
301.92446
301.73773
332.12686
325.61584
320.09145
315.59268
312.00209
309.17353
306.97123
305.27958
304.00384
303.06856
302.41567
302.00299
301.80314
340.65318
330.16988
322.66012
317.10222
312.9166
309.73996
307.32783
305.50704
304.15084
303.16538
302.48177
302.0515
301.84365
340.65317
330.16987
322.66012
317.10222
312.9166
309.73996
307.32784
305.50704
304.15084
303.16538
302.48177
302.0515
301.84366
332.12684
325.61582
320.09145
315.59268
312.0021
309.17354
306.97125
305.27959
304.00385
303.06856
302.41567
302.003
301.80315
324.87144
320.75325
316.90952
313.52927
310.66781
308.31093
306.41293
304.91724
303.76726
302.9119
302.30853
301.92446
301.73773
320.0535
317.1981
314.38995
311.7903
309.48871
307.52106
305.88807
304.57004
303.53747
302.75834
302.2029
301.84678
301.67295
317.67729
315.36903
313.04093
310.82681
308.81683
307.06076
305.57678
304.3613
303.3979
302.66437
302.13793
301.79887
301.63296
)
;
    }
    bottomWater_to_leftSolid
    {
        type            compressible::turbulentTemperatureRadCoupledMixed;
        refValue        nonuniform List<scalar> 
130
(
300.00367
300.00412
300.00505
300.00651
300.00857
300.0113
300.01476
300.01895
300.02382
300.02914
300.03451
300.0393
300.04269
300.00383
300.00432
300.00534
300.00695
300.00925
300.01237
300.01641
300.02147
300.02758
300.03461
300.04215
300.04938
300.05486
300.00409
300.00465
300.00581
300.00768
300.0104
300.01418
300.01927
300.02595
300.03448
300.04505
300.05755
300.07117
300.08351
300.00436
300.00498
300.0063
300.00844
300.01161
300.01613
300.02242
300.03104
300.04271
300.05833
300.07887
300.10503
300.13486
300.00453
300.00519
300.0066
300.00892
300.01239
300.01742
300.02455
300.0346
300.04878
300.06889
300.0978
300.14027
300.20154
300.00453
300.00519
300.0066
300.00892
300.01239
300.01742
300.02455
300.0346
300.04878
300.06889
300.0978
300.14027
300.20154
300.00436
300.00498
300.0063
300.00844
300.01161
300.01613
300.02242
300.03104
300.04271
300.05833
300.07887
300.10503
300.13486
300.00409
300.00465
300.00581
300.00768
300.0104
300.01418
300.01927
300.02595
300.03448
300.04505
300.05755
300.07117
300.08351
300.00383
300.00432
300.00534
300.00695
300.00925
300.01237
300.01641
300.02147
300.02758
300.03461
300.04215
300.04938
300.05486
300.00367
300.00412
300.00505
300.00651
300.00857
300.0113
300.01476
300.01895
300.02382
300.02914
300.03451
300.0393
300.04269
)
;
        refGradient     uniform 0;
        valueFraction   uniform 0.99248593;
        source          uniform 0;
        logInterval     -1;
        writePrecision  8;
        updateHeader    1;
        writeToFile     0;
        useUserTime     1;
        kappaMethod     fluidThermo;
        value           nonuniform List<scalar> 
130
(
300.00364
300.00409
300.00501
300.00646
300.00851
300.01122
300.01465
300.01882
300.02365
300.02894
300.03427
300.03903
300.04256
300.0038
300.00429
300.0053
300.0069
300.00919
300.01228
300.01629
300.02132
300.02739
300.03436
300.04185
300.04906
300.05504
300.00406
300.00461
300.00577
300.00762
300.01033
300.01408
300.01913
300.02576
300.03424
300.04473
300.05715
300.0709
300.08696
300.00433
300.00495
300.00625
300.00837
300.01153
300.01602
300.02226
300.03082
300.04241
300.05792
300.07835
300.10522
300.15376
300.00449
300.00516
300.00656
300.00885
300.0123
300.01729
300.02437
300.03436
300.04843
300.0684
300.09719
300.14184
300.26964
300.00449
300.00516
300.00656
300.00885
300.0123
300.01729
300.02437
300.03436
300.04843
300.0684
300.09719
300.14184
300.26964
300.00433
300.00495
300.00625
300.00837
300.01153
300.01602
300.02226
300.03082
300.04241
300.05792
300.07835
300.10522
300.15376
300.00406
300.00461
300.00577
300.00762
300.01033
300.01408
300.01913
300.02576
300.03424
300.04473
300.05715
300.0709
300.08696
300.0038
300.00429
300.0053
300.0069
300.00919
300.01228
300.01629
300.02132
300.02739
300.03436
300.04185
300.04906
300.05504
300.00364
300.00409
300.00501
300.00646
300.00851
300.01122
300.01465
300.01882
300.02365
300.02894
300.03427
300.03903
300.04256
)
;
    }
    bottomWater_to_heater
    {
        type            compressible::turbulentTemperatureRadCoupledMixed;
        refValue        nonuniform List<scalar> 
92
(
323.62782
322.97484
321.71095
319.93283
327.48735
326.68169
325.10886
322.87592
335.646
334.53929
332.3178
329.05217
482.94431
483.70614
483.73152
483.06489
453.02977
453.95818
453.94369
453.08205
426.66017
427.37281
427.1624
426.21739
403.63341
403.91682
403.22523
401.94312
348.95179
384.05189
347.48931
383.63519
344.34828
381.89015
339.25804
379.35333
482.94431
483.06489
453.02977
453.08205
426.66017
426.21739
403.63341
401.94312
384.05189
379.35333
482.9443
482.9443
483.70614
483.73151
483.06489
483.06489
453.02974
453.02974
453.95816
453.94368
453.08205
453.08205
426.66014
426.66014
427.37279
427.16239
426.21739
426.21739
403.63338
403.63338
403.91681
403.22523
401.94313
401.94313
384.05187
384.05187
383.63518
381.89015
379.35335
379.35335
348.95181
347.48932
344.34829
339.25804
335.646
334.5393
332.31781
329.05218
327.48734
326.68169
325.10888
322.87595
323.62777
322.97483
321.71098
319.93289
)
;
        refGradient     uniform 0;
        valueFraction   uniform 0.99248593;
        source          uniform 0;
        logInterval     -1;
        writePrecision  8;
        updateHeader    1;
        writeToFile     0;
        useUserTime     1;
        kappaMethod     fluidThermo;
        value           nonuniform List<scalar> 
92
(
323.45654
322.81258
321.56065
319.79701
327.28713
326.4918
324.93377
322.71943
335.39094
334.29852
332.09725
328.85815
481.64096
482.42135
482.46914
481.82123
451.91635
452.85444
452.85715
452.01814
425.73376
426.45283
426.25609
425.3298
402.8787
403.17047
402.49454
401.23154
348.62234
383.45869
347.18849
383.06277
344.08513
381.3449
339.03996
378.83397
481.73172
481.98344
451.96414
452.18047
425.76907
425.45827
402.91194
401.3167
383.48994
378.88849
481.73171
481.64095
482.42135
482.46913
481.98344
481.82122
451.96412
451.91632
452.85442
452.85714
452.18046
452.01814
425.76904
425.73372
426.45281
426.25608
425.45828
425.32981
402.91191
402.87866
403.17045
402.49453
401.31672
401.23155
383.48991
383.45867
383.06276
381.3449
378.88851
378.83399
348.62235
347.1885
344.08514
339.03995
335.39095
334.29853
332.09726
328.85816
327.28712
326.4918
324.93379
322.71945
323.45649
322.81257
321.56068
319.79707
)
;
    }
}


// ************************************************************************* //
