/*--------------------------------*- C++ -*----------------------------------*\
| =========                 |                                                 |
| \\      /  F ield         | OpenFOAM: The Open Source CFD Toolbox           |
|  \\    /   O peration     | Version:  2412                                  |
|   \\  /    A nd           | Website:  www.openfoam.com                      |
|    \\/     M anipulation  |                                                 |
\*---------------------------------------------------------------------------*/
FoamFile
{
    version     2.0;
    format      ascii;
    arch        "LSB;label=32;scalar=64";
    class       volVectorField;
    location    "70/bottomWater";
    object      U;
}
// * * * * * * * * * * * * * * * * * * * * * * * * * * * * * * * * * * * * * //

dimensions      [0 1 -1 0 0 0 0];

internalField   nonuniform List<vector> 
1460
(
(0.0009113218 5.8875297e-05 4.1835987e-05)
(0.00088241765 6.2098312e-05 4.8942617e-05)
(0.00078426531 5.3649241e-05 4.5386078e-05)
(0.00070004386 4.3226287e-05 3.8323827e-05)
(0.000635814 3.3185187e-05 2.9989417e-05)
(0.00058787686 2.4899478e-05 2.1609605e-05)
(0.00055464433 1.8744972e-05 1.3522887e-05)
(0.00053576304 1.4533728e-05 5.4335978e-06)
(0.00053118579 1.2036783e-05 -2.7885096e-06)
(0.00053982976 1.0665925e-05 -1.0383208e-05)
(0.00056143341 9.2966948e-06 -1.5980355e-05)
(0.00059525199 7.2252827e-06 -1.7158798e-05)
(0.00063848968 4.0656423e-06 -1.0286764e-05)
(0.00067368723 5.4133841e-07 1.1326634e-05)
(0.00068988994 -2.7591185e-06 2.8746042e-05)
(0.00068955055 -5.1190887e-06 3.786118e-05)
(0.00067458749 -5.9075906e-06 4.1948981e-05)
(0.00064643486 -5.4838955e-06 4.3769944e-05)
(0.00060851614 -4.7690374e-06 4.2368396e-05)
(0.00056674761 -4.1503251e-06 3.8030098e-05)
(0.00052649166 -3.6081042e-06 3.2181296e-05)
(0.00049076343 -3.0132396e-06 2.6014457e-05)
(0.00046064959 -2.2942053e-06 2.0240599e-05)
(0.00043616497 -1.4575345e-06 1.5191829e-05)
(0.00041679049 -5.6556017e-07 1.0964066e-05)
(0.00040176058 2.8148509e-07 7.5479303e-06)
(0.00039030052 1.0100542e-06 4.9145168e-06)
(0.00038158045 1.6298711e-06 3.0545844e-06)
(0.00037487048 2.1313523e-06 1.8604538e-06)
(0.0003642509 3.4874392e-06 1.6817237e-06)
(0.00097337442 5.5453742e-05 4.6102323e-05)
(0.00099261547 5.9904553e-05 5.9178716e-05)
(0.00097491908 5.5865103e-05 5.8399451e-05)
(0.00094984753 4.8199689e-05 5.344889e-05)
(0.00092698921 3.9287699e-05 4.6372082e-05)
(0.00090719923 3.0972562e-05 3.8167578e-05)
(0.00089185356 2.4014205e-05 2.9412272e-05)
(0.00088338224 1.856032e-05 2.0054045e-05)
(0.00088461337 1.4787619e-05 9.6986173e-06)
(0.00089965782 1.2583384e-05 -1.4478643e-06)
(0.00092941648 1.0887034e-05 -1.168346e-05)
(0.00097459111 8.8000866e-06 -1.833924e-05)
(0.0010330405 6.0431222e-06 -1.6965138e-05)
(0.0010878382 2.8033601e-06 7.387141e-07)
(0.0011252858 -3.1080189e-07 1.9715861e-05)
(0.0011425652 -3.0158293e-06 3.3752615e-05)
(0.0011418023 -4.5450967e-06 4.2965074e-05)
(0.0011257497 -4.7640865e-06 4.8688971e-05)
(0.0010955572 -4.4873388e-06 5.092101e-05)
(0.001055665 -4.2245901e-06 4.9797037e-05)
(0.0010109649 -4.0620845e-06 4.6275761e-05)
(0.00096504988 -3.8977577e-06 4.1352401e-05)
(0.0009202622 -3.6156075e-06 3.5760506e-05)
(0.00087818202 -3.1358676e-06 3.0017731e-05)
(0.00083986286 -2.421794e-06 2.4464387e-05)
(0.00080592948 -1.4935957e-06 1.933827e-05)
(0.00077659279 -4.0116844e-07 1.4852241e-05)
(0.00075193613 8.4240271e-07 1.1231543e-05)
(0.00073204197 2.3128692e-06 8.5663908e-06)
(0.00070735522 4.4700534e-06 7.9414037e-06)
(0.00097803823 8.5603898e-14 4.6050174e-05)
(0.0010096653 2.9381644e-13 5.980651e-05)
(0.0010096916 7.5185495e-13 5.9841798e-05)
(0.0010013108 1.5898375e-12 5.5684765e-05)
(0.00099246629 2.8514075e-12 4.9215326e-05)
(0.00098366221 4.3783188e-12 4.1386678e-05)
(0.00097626239 5.7811456e-12 3.2838004e-05)
(0.00097297377 6.5591485e-12 2.3624556e-05)
(0.00097664986 6.400621e-12 1.3262812e-05)
(0.00099275688 5.3716173e-12 1.8773928e-06)
(0.0010228803 3.8055524e-12 -8.7823925e-06)
(0.0010678344 2.1421203e-12 -1.5966305e-05)
(0.0011257702 7.4918587e-13 -1.5403811e-05)
(0.001181155 -2.0589136e-13 5.4851542e-07)
(0.0012212393 -6.1879991e-13 1.8044583e-05)
(0.0012426868 -5.669914e-13 3.1328449e-05)
(0.0012456018 -3.331769e-13 4.0661092e-05)
(0.0012342348 -3.9670164e-13 4.6599033e-05)
(0.0012089515 -9.8808265e-13 4.9265367e-05)
(0.0011737482 -2.2908512e-12 4.890011e-05)
(0.001132919 -4.3900106e-12 4.632162e-05)
(0.0010895034 -7.158464e-12 4.2356134e-05)
(0.0010455389 -1.0059575e-11 3.7613963e-05)
(0.0010025772 -1.2298118e-11 3.2536993e-05)
(0.00096187319 -1.2777832e-11 2.7431698e-05)
(0.0009244079 -1.0609507e-11 2.2539769e-05)
(0.00089090308 -6.5392055e-12 1.8091619e-05)
(0.00086183881 -1.3619859e-12 1.4343667e-05)
(0.00083773892 3.3172178e-12 1.1457406e-05)
(0.00080828372 6.3128556e-12 1.0772488e-05)
(0.00097337442 -5.5453741e-05 4.6102323e-05)
(0.00099261547 -5.9904553e-05 5.9178716e-05)
(0.00097491909 -5.5865102e-05 5.8399451e-05)
(0.00094984753 -4.8199688e-05 5.344889e-05)
(0.00092698921 -3.9287696e-05 4.6372081e-05)
(0.00090719923 -3.0972557e-05 3.8167578e-05)
(0.00089185357 -2.4014198e-05 2.9412272e-05)
(0.00088338226 -1.8560312e-05 2.0054045e-05)
(0.00088461339 -1.4787611e-05 9.6986176e-06)
(0.00089965784 -1.2583377e-05 -1.4478641e-06)
(0.0009294165 -1.0887029e-05 -1.168346e-05)
(0.00097459114 -8.8000839e-06 -1.8339239e-05)
(0.0010330405 -6.0431213e-06 -1.6965136e-05)
(0.0010878383 -2.8033605e-06 7.3871601e-07)
(0.0011252859 3.1080125e-07 1.9715863e-05)
(0.0011425652 3.0158291e-06 3.3752617e-05)
(0.0011418023 4.545097e-06 4.2965076e-05)
(0.0011257497 4.764087e-06 4.8688972e-05)
(0.0010955573 4.4873386e-06 5.0921012e-05)
(0.001055665 4.2245882e-06 4.9797037e-05)
(0.0010109649 4.0620798e-06 4.627576e-05)
(0.00096504987 3.8977494e-06 4.1352398e-05)
(0.0009202622 3.6155955e-06 3.5760501e-05)
(0.00087818201 3.135853e-06 3.0017724e-05)
(0.00083986285 2.421779e-06 2.4464381e-05)
(0.00080592946 1.4935834e-06 1.9338269e-05)
(0.00077659277 4.0116157e-07 1.4852244e-05)
(0.0007519361 -8.4240268e-07 1.1231552e-05)
(0.00073204194 -2.3128626e-06 8.5664021e-06)
(0.00070735519 -4.4700424e-06 7.9414153e-06)
(0.0009113218 -5.8875297e-05 4.1835987e-05)
(0.00088241765 -6.2098312e-05 4.8942617e-05)
(0.00078426531 -5.3649241e-05 4.5386078e-05)
(0.00070004386 -4.3226287e-05 3.8323827e-05)
(0.000635814 -3.3185186e-05 2.9989417e-05)
(0.00058787686 -2.4899477e-05 2.1609605e-05)
(0.00055464434 -1.8744971e-05 1.3522888e-05)
(0.00053576305 -1.4533726e-05 5.4335983e-06)
(0.00053118581 -1.2036781e-05 -2.788509e-06)
(0.00053982977 -1.0665924e-05 -1.0383207e-05)
(0.00056143343 -9.2966942e-06 -1.5980354e-05)
(0.00059525201 -7.2252825e-06 -1.7158797e-05)
(0.0006384897 -4.0656424e-06 -1.0286762e-05)
(0.00067368724 -5.4133838e-07 1.1326636e-05)
(0.00068988995 2.7591189e-06 2.8746044e-05)
(0.00068955055 5.1190895e-06 3.7861182e-05)
(0.00067458749 5.9075913e-06 4.1948983e-05)
(0.00064643487 5.4838962e-06 4.3769946e-05)
(0.00060851614 4.7690376e-06 4.2368398e-05)
(0.00056674761 4.1503246e-06 3.8030099e-05)
(0.00052649167 3.6081028e-06 3.2181297e-05)
(0.00049076343 3.0132375e-06 2.6014457e-05)
(0.00046064959 2.2942027e-06 2.0240597e-05)
(0.00043616496 1.457532e-06 1.5191827e-05)
(0.00041679048 5.6555816e-07 1.0964066e-05)
(0.00040176057 -2.8148616e-07 7.5479337e-06)
(0.0003903005 -1.0100535e-06 4.9145242e-06)
(0.00038158043 -1.6298685e-06 3.0545949e-06)
(0.00037487045 -2.1313483e-06 1.8604654e-06)
(0.00036425087 -3.4874344e-06 1.6817349e-06)
(0.00094633291 6.2144121e-05 4.7754219e-05)
(0.00094101713 6.9463114e-05 6.108261e-05)
(0.00089230479 6.1458759e-05 6.2037252e-05)
(0.00084628365 5.1771232e-05 5.4901373e-05)
(0.00081060803 4.2263082e-05 4.2472771e-05)
(0.00078346043 3.3853438e-05 2.6553025e-05)
(0.00076443582 2.7128836e-05 7.7739331e-06)
(0.00075450901 2.2001136e-05 -1.4121296e-05)
(0.0007548789 1.7618911e-05 -3.9222825e-05)
(0.00076838938 1.33135e-05 -6.7175843e-05)
(0.00079850507 8.920011e-06 -9.6625836e-05)
(0.00084895034 4.6437673e-06 -0.00012309595)
(0.00092421599 1.5301859e-06 -0.00013471949)
(0.00098255672 3.4408481e-06 -9.4609956e-05)
(0.00100063 5.3518363e-06 -4.8409135e-05)
(0.00099760868 6.1950026e-06 -5.3087393e-06)
(0.00098223246 6.3807817e-06 3.4061071e-05)
(0.00095206505 6.2975328e-06 6.9475242e-05)
(0.0009080269 5.8606626e-06 8.9115863e-05)
(0.0008590208 5.080245e-06 9.4283925e-05)
(0.00081222243 4.0808388e-06 8.9759529e-05)
(0.00077081348 3.09298e-06 7.9859631e-05)
(0.0007357614 2.2623685e-06 6.7652443e-05)
(0.00070696476 1.6695307e-06 5.5068587e-05)
(0.00068382249 1.3232356e-06 4.3237976e-05)
(0.00066551893 1.1835075e-06 3.2770552e-05)
(0.00065118967 1.2362926e-06 2.3972753e-05)
(0.0006400286 1.540337e-06 1.7001964e-05)
(0.0006311975 2.1988584e-06 1.200008e-05)
(0.00061846514 4.4045102e-06 8.8821205e-06)
(0.0010168624 5.8991315e-05 5.3047948e-05)
(0.0010676654 6.6131503e-05 7.1674415e-05)
(0.0011132669 6.146182e-05 7.5198663e-05)
(0.0011493251 5.4736576e-05 7.169815e-05)
(0.0011789321 4.7194673e-05 6.2860163e-05)
(0.001204513 3.9905369e-05 4.9573484e-05)
(0.0012282886 3.3639042e-05 3.2145912e-05)
(0.0012530865 2.8599427e-05 1.0095298e-05)
(0.0012824118 2.4100534e-05 -1.7622905e-05)
(0.0013186653 1.9501128e-05 -5.1337021e-05)
(0.0013672352 1.470509e-05 -9.0411094e-05)
(0.0014335173 9.6715509e-06 -0.00013139708)
(0.0015237781 5.6261539e-06 -0.00016201654)
(0.0016070922 4.8883113e-06 -0.00014269271)
(0.0016586263 5.7197099e-06 -0.00010709969)
(0.0016904927 6.1561578e-06 -6.6882611e-05)
(0.0017078658 6.0479637e-06 -2.4903067e-05)
(0.0017069926 5.5279474e-06 1.8107949e-05)
(0.0016878115 4.9226776e-06 5.1461372e-05)
(0.0016559861 4.168063e-06 7.3301485e-05)
(0.0016174627 3.2518612e-06 8.5778487e-05)
(0.0015758345 2.296354e-06 9.1293141e-05)
(0.0015332346 1.4090184e-06 9.1771375e-05)
(0.0014911039 6.814001e-07 8.8646014e-05)
(0.0014504609 1.8219689e-07 8.2973987e-05)
(0.0014120971 -3.6275806e-08 7.5563754e-05)
(0.001376655 8.1918174e-08 6.7095176e-05)
(0.0013447656 6.4395526e-07 5.8270556e-05)
(0.0013170859 1.9336679e-06 4.9885254e-05)
(0.0012843256 4.6989392e-06 4.2866667e-05)
(0.0010224812 1.0144364e-13 5.3753442e-05)
(0.0010877185 3.657458e-13 7.3175601e-05)
(0.0011536496 9.3482038e-13 7.7477697e-05)
(0.0012101544 1.9667869e-12 7.4947562e-05)
(0.0012585312 3.5522274e-12 6.7145273e-05)
(0.001300845 5.6097237e-12 5.4885841e-05)
(0.0013392041 7.8337847e-12 3.8474216e-05)
(0.0013761737 9.7196289e-12 1.7541195e-05)
(0.0014158323 1.0703854e-11 -9.094193e-06)
(0.0014601036 1.0320758e-11 -4.193631e-05)
(0.0015139381 8.4994517e-12 -8.0361259e-05)
(0.0015826585 5.5038565e-12 -0.00012133979)
(0.0016722366 1.8867592e-12 -0.00015399935)
(0.0017557979 -1.6027567e-12 -0.0001415833)
(0.0018108308 -4.7688309e-12 -0.00011309849)
(0.0018485991 -7.6812034e-12 -7.8614445e-05)
(0.0018750492 -1.031358e-11 -4.0512674e-05)
(0.0018840419 -1.2483648e-11 -4.7909824e-07)
(0.0018756502 -1.4679588e-11 3.1641388e-05)
(0.0018545405 -1.7293083e-11 5.4113779e-05)
(0.0018255424 -2.0717791e-11 6.884852e-05)
(0.0017915414 -2.5365571e-11 7.7793867e-05)
(0.001754279 -3.1563713e-11 8.2409629e-05)
(0.0017150473 -3.9175227e-11 8.371064e-05)
(0.0016749172 -4.6578444e-11 8.2399859e-05)
(0.0016348804 -4.8380922e-11 7.8995673e-05)
(0.0015959596 -4.9339517e-11 7.3943498e-05)
(0.0015592862 -4.4481215e-11 6.7735599e-05)
(0.0015262677 -3.7226272e-11 6.105394e-05)
(0.0014870604 -3.0710592e-11 5.4866064e-05)
(0.0010168624 -5.8991315e-05 5.3047948e-05)
(0.0010676654 -6.6131503e-05 7.1674415e-05)
(0.0011132669 -6.1461819e-05 7.5198663e-05)
(0.0011493251 -5.4736574e-05 7.1698149e-05)
(0.0011789321 -4.7194669e-05 6.2860163e-05)
(0.001204513 -3.9905362e-05 4.9573484e-05)
(0.0012282887 -3.3639033e-05 3.2145913e-05)
(0.0012530865 -2.8599416e-05 1.0095299e-05)
(0.0012824119 -2.410052e-05 -1.7622904e-05)
(0.0013186654 -1.9501115e-05 -5.133702e-05)
(0.0013672352 -1.4705079e-05 -9.041109e-05)
(0.0014335174 -9.6715443e-06 -0.00013139708)
(0.0015237781 -5.6261523e-06 -0.00016201654)
(0.0016070923 -4.8883142e-06 -0.0001426927)
(0.0016586263 -5.7197167e-06 -0.00010709968)
(0.0016904928 -6.1561681e-06 -6.6882605e-05)
(0.0017078658 -6.0479768e-06 -2.4903061e-05)
(0.0017069926 -5.5279628e-06 1.8107954e-05)
(0.0016878115 -4.9226951e-06 5.1461377e-05)
(0.001655986 -4.168083e-06 7.3301487e-05)
(0.0016174627 -3.2518847e-06 8.5778487e-05)
(0.0015758344 -2.2963824e-06 9.1293137e-05)
(0.0015332346 -1.4090537e-06 9.1771368e-05)
(0.0014911038 -6.8144377e-07 8.8646003e-05)
(0.0014504608 -1.8224913e-07 8.2973973e-05)
(0.001412097 3.6217363e-08 7.556374e-05)
(0.0013766549 -8.197857e-08 6.7095165e-05)
(0.0013447655 -6.4401208e-07 5.8270549e-05)
(0.0013170858 -1.9337167e-06 4.9885253e-05)
(0.0012843255 -4.6989787e-06 4.2866669e-05)
(0.00094633291 -6.2144121e-05 4.7754219e-05)
(0.00094101713 -6.9463114e-05 6.108261e-05)
(0.00089230479 -6.1458758e-05 6.2037252e-05)
(0.00084628365 -5.1771232e-05 5.4901372e-05)
(0.00081060803 -4.2263081e-05 4.2472771e-05)
(0.00078346043 -3.3853436e-05 2.6553025e-05)
(0.00076443583 -2.7128834e-05 7.7739333e-06)
(0.00075450902 -2.2001133e-05 -1.4121296e-05)
(0.00075487892 -1.7618908e-05 -3.9222823e-05)
(0.0007683894 -1.3313498e-05 -6.7175841e-05)
(0.00079850511 -8.9200099e-06 -9.6625833e-05)
(0.00084895037 -4.6437674e-06 -0.00012309595)
(0.00092421603 -1.5301869e-06 -0.00013471948)
(0.00098255675 -3.4408494e-06 -9.4609951e-05)
(0.00100063 -5.3518377e-06 -4.8409129e-05)
(0.0009976087 -6.1950041e-06 -5.3087337e-06)
(0.00098223247 -6.3807831e-06 3.4061076e-05)
(0.00095206506 -6.2975343e-06 6.9475245e-05)
(0.00090802691 -5.8606641e-06 8.9115865e-05)
(0.0008590208 -5.0802466e-06 9.4283925e-05)
(0.00081222243 -4.0808405e-06 8.9759526e-05)
(0.00077081347 -3.092982e-06 7.9859626e-05)
(0.00073576138 -2.2623711e-06 6.7652436e-05)
(0.00070696474 -1.6695341e-06 5.5068578e-05)
(0.00068382246 -1.3232407e-06 4.3237967e-05)
(0.00066551889 -1.1835181e-06 3.2770543e-05)
(0.00065118961 -1.2363024e-06 2.3972748e-05)
(0.00064002853 -1.5403459e-06 1.7001968e-05)
(0.00063119742 -2.1988647e-06 1.2000093e-05)
(0.00061846505 -4.4045137e-06 8.8821381e-06)
(0.00094506258 6.2305737e-05 1.3632313e-05)
(0.00093847902 7.0110404e-05 2.2373592e-05)
(0.00089285428 6.2330714e-05 2.5083025e-05)
(0.00085107456 5.2821561e-05 2.2130917e-05)
(0.00081903469 4.338844e-05 1.3891028e-05)
(0.00079389023 3.4793577e-05 5.8857126e-07)
(0.00077428487 2.7349315e-05 -1.7828235e-05)
(0.00076041755 2.0911954e-05 -4.1635623e-05)
(0.00075393999 1.4956345e-05 -7.1957302e-05)
(0.00075867219 8.3969758e-06 -0.00011023719)
(0.00078229537 -3.1588737e-08 -0.00015755559)
(0.00083712878 -9.7915279e-06 -0.00020781041)
(0.00095443733 -1.5457659e-05 -0.00022682581)
(0.0010533241 -4.7419059e-06 -7.1028183e-05)
(0.0010775182 4.533857e-06 -1.671286e-06)
(0.0010784821 1.1842715e-05 4.9236453e-05)
(0.0010633346 1.7570928e-05 9.4629553e-05)
(0.0010191917 2.2509192e-05 0.00014881086)
(0.00094869167 2.3358102e-05 0.0001683322)
(0.00088111224 2.0923797e-05 0.00016747881)
(0.0008258375 1.6872545e-05 0.00015387428)
(0.00078355684 1.2501292e-05 0.00013405394)
(0.00075234173 8.4796876e-06 0.00011244438)
(0.00072991139 5.0974678e-06 9.1562012e-05)
(0.00071426193 2.436071e-06 7.2720993e-05)
(0.00070371438 4.8281763e-07 5.6461274e-05)
(0.000696871 -7.7275005e-07 4.2774189e-05)
(0.00069266122 -1.2328758e-06 3.1559895e-05)
(0.00068974212 -7.949798e-07 2.2736141e-05)
(0.00068591609 8.9138776e-07 1.6071093e-05)
(0.0010161989 5.9272689e-05 1.5878948e-05)
(0.0010668373 6.7018669e-05 2.7794474e-05)
(0.0011173015 6.2555578e-05 3.3335625e-05)
(0.0011607557 5.5997383e-05 3.3130605e-05)
(0.0011980476 4.852518e-05 2.7400959e-05)
(0.0012302223 4.1039311e-05 1.6016836e-05)
(0.0012584173 3.4018231e-05 -1.5879195e-06)
(0.0012840154 2.7493263e-05 -2.6326755e-05)
(0.0013089673 2.1192976e-05 -5.9490197e-05)
(0.0013369851 1.4202712e-05 -0.00010364784)
(0.0013752609 5.2646832e-06 -0.00016173996)
(0.0014343499 -6.5853698e-06 -0.00023106418)
(0.0015451889 -1.6093393e-05 -0.00027948042)
(0.0016620174 -1.0204516e-05 -0.00014604753)
(0.0017156682 -1.7154459e-06 -8.0777891e-05)
(0.0017471817 6.1373486e-06 -3.0257522e-05)
(0.0017718891 1.3774247e-05 2.5369624e-05)
(0.0017660533 2.0389051e-05 9.1812131e-05)
(0.0017294887 2.413142e-05 0.0001341897)
(0.0016852452 2.4399693e-05 0.00015837703)
(0.0016435179 2.2430811e-05 0.00016924761)
(0.0016064455 1.9257078e-05 0.00017091173)
(0.0015739301 1.5563801e-05 0.00016638562)
(0.0015453826 1.1795662e-05 0.00015776145)
(0.001520179 8.2486097e-06 0.00014645774)
(0.0014977505 5.1305499e-06 0.0001334435)
(0.0014776567 2.6087673e-06 0.00011946682)
(0.0014596397 9.0205086e-07 0.00010510187)
(0.0014439064 3.4274391e-07 9.0698788e-05)
(0.0014265535 1.455379e-06 7.6714287e-05)
(0.0010219299 9.7800967e-14 1.6164474e-05)
(0.0010874236 3.6742803e-13 2.8575388e-05)
(0.0011587936 9.5581769e-13 3.4701867e-05)
(0.0012234597 2.0216112e-12 3.525646e-05)
(0.0012805024 3.6482819e-12 3.0470038e-05)
(0.001330591 5.7414787e-12 2.0215378e-05)
(0.0013747208 7.9624753e-12 3.9209852e-06)
(0.0014142359 9.731752e-12 -1.9457414e-05)
(0.0014507129 1.0382956e-11 -5.0916672e-05)
(0.0014873437 9.358011e-12 -9.2759531e-05)
(0.001530424 6.4380888e-12 -0.00014788013)
(0.0015904867 1.7356103e-12 -0.00021491873)
(0.0016951539 -3.8485763e-12 -0.00026463762)
(0.0018077498 -8.0177558e-12 -0.00014452753)
(0.0018630814 -1.1373096e-11 -8.9545278e-05)
(0.0018996518 -1.4763752e-11 -4.8544918e-05)
(0.0019313346 -1.8086218e-11 1.9645476e-07)
(0.0019398662 -2.1749467e-11 6.114548e-05)
(0.0019191129 -2.6025219e-11 0.00010278879)
(0.0018899972 -3.1054339e-11 0.00012944607)
(0.0018612025 -3.6970697e-11 0.00014517901)
(0.0018341432 -4.3909292e-11 0.00015322294)
(0.0018086192 -5.1728348e-11 0.00015578071)
(0.0017842123 -5.9759867e-11 0.00015429156)
(0.0017605993 -6.662131e-11 0.00014972616)
(0.0017375831 -7.0162425e-11 0.00014272974)
(0.0017151476 -6.9459177e-11 0.00013374999)
(0.0016936072 -6.5583144e-11 0.00012308732)
(0.0016736881 -6.0233552e-11 0.00011097171)
(0.0016508931 -5.5023864e-11 9.7763806e-05)
(0.0010161989 -5.9272688e-05 1.5878948e-05)
(0.0010668373 -6.7018669e-05 2.7794474e-05)
(0.0011173015 -6.2555577e-05 3.3335625e-05)
(0.0011607557 -5.599738e-05 3.3130605e-05)
(0.0011980476 -4.8525176e-05 2.7400959e-05)
(0.0012302223 -4.1039304e-05 1.6016835e-05)
(0.0012584173 -3.4018222e-05 -1.5879194e-06)
(0.0012840154 -2.7493251e-05 -2.6326754e-05)
(0.0013089673 -2.1192963e-05 -5.9490195e-05)
(0.0013369851 -1.4202701e-05 -0.00010364784)
(0.0013752609 -5.2646756e-06 -0.00016173995)
(0.00143435 6.5853705e-06 -0.00023106417)
(0.0015451889 1.6093386e-05 -0.00027948041)
(0.0016620175 1.0204504e-05 -0.00014604752)
(0.0017156683 1.7154312e-06 -8.0777883e-05)
(0.0017471818 -6.1373668e-06 -3.0257515e-05)
(0.0017718891 -1.3774269e-05 2.5369629e-05)
(0.0017660533 -2.0389077e-05 9.1812132e-05)
(0.0017294887 -2.413145e-05 0.0001341897)
(0.0016852452 -2.4399728e-05 0.00015837702)
(0.0016435179 -2.2430852e-05 0.00016924759)
(0.0016064455 -1.9257126e-05 0.00017091171)
(0.00157393 -1.5563858e-05 0.00016638559)
(0.0015453825 -1.1795729e-05 0.00015776142)
(0.0015201789 -8.2486883e-06 0.0001464577)
(0.0014977503 -5.1306384e-06 0.00013344345)
(0.0014776565 -2.6088621e-06 0.00011946677)
(0.0014596395 -9.0214358e-07 0.00010510181)
(0.0014439063 -3.4282638e-07 9.0698732e-05)
(0.0014265533 -1.4554503e-06 7.6714233e-05)
(0.00094506258 -6.2305737e-05 1.3632313e-05)
(0.00093847902 -7.0110404e-05 2.2373592e-05)
(0.00089285428 -6.2330714e-05 2.5083025e-05)
(0.00085107456 -5.2821561e-05 2.2130917e-05)
(0.00081903469 -4.338844e-05 1.3891027e-05)
(0.00079389023 -3.4793576e-05 5.8857113e-07)
(0.00077428488 -2.7349314e-05 -1.7828235e-05)
(0.00076041756 -2.0911951e-05 -4.1635622e-05)
(0.00075394001 -1.4956343e-05 -7.19573e-05)
(0.00075867222 -8.3969744e-06 -0.00011023719)
(0.0007822954 3.1588436e-08 -0.00015755559)
(0.00083712882 9.7915256e-06 -0.0002078104)
(0.00095443736 1.5457656e-05 -0.0002268258)
(0.0010533241 4.7419031e-06 -7.1028175e-05)
(0.0010775183 -4.5338595e-06 -1.6712799e-06)
(0.0010784821 -1.1842717e-05 4.9236457e-05)
(0.0010633347 -1.757093e-05 9.4629555e-05)
(0.0010191917 -2.2509195e-05 0.00014881086)
(0.00094869166 -2.3358105e-05 0.00016833219)
(0.00088111222 -2.0923801e-05 0.0001674788)
(0.00082583748 -1.6872549e-05 0.00015387426)
(0.00078355681 -1.2501297e-05 0.00013405391)
(0.0007523417 -8.4796938e-06 0.00011244434)
(0.00072991136 -5.0974774e-06 9.1561974e-05)
(0.00071426188 -2.4360862e-06 7.2720951e-05)
(0.00070371431 -4.8283933e-07 5.646123e-05)
(0.00069687091 7.7272452e-07 4.2774148e-05)
(0.0006926611 1.2328544e-06 3.1559858e-05)
(0.00068974199 7.9496752e-07 2.273611e-05)
(0.00068591596 -8.9139373e-07 1.607107e-05)
(0.00094249797 6.245586e-05 9.3319413e-06)
(0.00092943188 7.0397548e-05 1.5379711e-05)
(0.00087845026 6.2477192e-05 1.6910442e-05)
(0.00083281831 5.2733485e-05 1.4177022e-05)
(0.00079752999 4.3085976e-05 7.1089704e-06)
(0.00076839313 3.434622e-05 -4.7945408e-06)
(0.00074328109 2.6859914e-05 -2.2886989e-05)
(0.00072183699 2.0123307e-05 -4.9612975e-05)
(0.00070527615 1.2883918e-05 -8.8931985e-05)
(0.00069730191 2.9912074e-06 -0.00014766317)
(0.00071223777 -1.1872383e-05 -0.00023804807)
(0.000766261 -3.0533796e-05 -0.00037216285)
(0.00091403086 -3.0738083e-05 -0.00052053299)
(0.00096634834 3.5382135e-05 -0.000252676)
(0.00077981217 4.6567372e-05 -0.00010545127)
(0.00073908607 4.233083e-05 -2.0635397e-05)
(0.00074488911 4.3274045e-05 5.7922046e-05)
(0.00073746479 4.8252505e-05 0.00020939337)
(0.00066146372 4.3907004e-05 0.00022754903)
(0.00062224284 3.5496182e-05 0.00021538937)
(0.00060203337 2.5980946e-05 0.00018166554)
(0.00059629529 1.7423075e-05 0.00014607512)
(0.00059937348 1.0243161e-05 0.00011430522)
(0.00060745572 4.4884985e-06 8.7743576e-05)
(0.00061829227 7.5380917e-09 6.6293151e-05)
(0.00063050931 -3.2898888e-06 4.9419279e-05)
(0.00064360529 -5.2135063e-06 3.6482906e-05)
(0.00065588799 -5.7994712e-06 2.6695873e-05)
(0.00066663448 -5.3978581e-06 1.9421243e-05)
(0.00068028229 -5.0586896e-06 1.3300733e-05)
(0.0010135968 5.9290258e-05 1.0620296e-05)
(0.001057331 6.7294185e-05 1.8547805e-05)
(0.0011020643 6.2759777e-05 2.1906747e-05)
(0.001141559 5.6011415e-05 2.0942202e-05)
(0.0011756178 4.8349585e-05 1.5541144e-05)
(0.0012039351 4.0712088e-05 4.9838784e-06)
(0.0012262363 3.3583038e-05 -1.2304782e-05)
(0.0012430425 2.6671237e-05 -3.9272609e-05)
(0.0012554468 1.9070212e-05 -8.1151607e-05)
(0.0012663043 8.8321989e-06 -0.00014686898)
(0.0012829451 -6.9547408e-06 -0.00025148144)
(0.0013217995 -3.1300343e-05 -0.00041621003)
(0.001421201 -4.4024919e-05 -0.00064265892)
(0.0014872969 2.5753375e-05 -0.00040904133)
(0.0012830767 5.0041783e-05 -0.0002546833)
(0.0012212954 4.8936449e-05 -0.00015302472)
(0.0012164018 4.9839851e-05 -4.4821524e-05)
(0.0012347498 5.5162281e-05 0.00014100391)
(0.0011971091 5.5354893e-05 0.00020073156)
(0.0011862159 4.9399518e-05 0.00022610333)
(0.0011920824 4.1065122e-05 0.00022396741)
(0.0012078991 3.2339235e-05 0.00020985266)
(0.0012283209 2.4002666e-05 0.0001916246)
(0.0012502001 1.6393557e-05 0.00017270034)
(0.0012717351 9.6761945e-06 0.00015445352)
(0.0012918717 3.9575176e-06 0.00013726005)
(0.0013095539 -5.2727759e-07 0.00012104452)
(0.0013250355 -3.6605386e-06 0.00010570966)
(0.001338383 -5.5376322e-06 9.0895279e-05)
(0.0013546463 -6.3691481e-06 7.5854383e-05)
(0.0010193338 9.3875591e-14 1.0915125e-05)
(0.0010779856 3.5490806e-13 1.9207702e-05)
(0.0011438207 9.299163e-13 2.296679e-05)
(0.0012047983 1.9743684e-12 2.2525528e-05)
(0.0012589208 3.5626432e-12 1.7810103e-05)
(0.0013056037 5.5801688e-12 8.1437754e-06)
(0.0013443424 7.6597946e-12 -7.9838095e-06)
(0.0013755702 9.176866e-12 -3.3426753e-05)
(0.0014001927 9.3804955e-12 -7.3293822e-05)
(0.0014203576 7.5695714e-12 -0.00013629438)
(0.0014425441 3.2959023e-12 -0.00023821423)
(0.0014822508 -4.0151631e-12 -0.00040292707)
(0.0015611901 -1.2165377e-11 -0.00064394213)
(0.0016205546 -1.3774358e-11 -0.00042874499)
(0.0014212676 -1.5750993e-11 -0.00028540882)
(0.0013585974 -1.9111253e-11 -0.0001906761)
(0.0013517899 -2.3715411e-11 -8.5520384e-05)
(0.0013715817 -3.3219019e-11 9.5575165e-05)
(0.0013456769 -4.5209676e-11 0.00016088225)
(0.0013449952 -5.7726918e-11 0.00019547061)
(0.0013607726 -6.9942593e-11 0.00020427209)
(0.0013852802 -8.0813118e-11 0.00020060267)
(0.0014127318 -8.9269619e-11 0.00019169844)
(0.0014398783 -9.4211118e-11 0.00018060844)
(0.001465071 -9.4361011e-11 0.00016863054)
(0.0014874526 -8.9884872e-11 0.00015624218)
(0.0015065054 -8.3825459e-11 0.00014350049)
(0.0015221399 -7.3390577e-11 0.00013026112)
(0.0015348977 -6.1460818e-11 0.00011618899)
(0.0015495583 -5.1529674e-11 0.00010053701)
(0.0010135968 -5.9290258e-05 1.0620296e-05)
(0.001057331 -6.7294184e-05 1.8547805e-05)
(0.0011020643 -6.2759776e-05 2.1906746e-05)
(0.001141559 -5.6011413e-05 2.0942202e-05)
(0.0011756178 -4.8349581e-05 1.5541144e-05)
(0.0012039351 -4.0712082e-05 4.9838781e-06)
(0.0012262363 -3.3583029e-05 -1.2304782e-05)
(0.0012430425 -2.6671226e-05 -3.9272609e-05)
(0.0012554468 -1.90702e-05 -8.1151606e-05)
(0.0012663043 -8.8321894e-06 -0.00014686898)
(0.0012829452 6.9547438e-06 -0.00025148144)
(0.0013217996 3.1300336e-05 -0.00041621002)
(0.001421201 4.4024903e-05 -0.00064265891)
(0.0014872969 -2.5753391e-05 -0.00040904133)
(0.0012830767 -5.0041801e-05 -0.0002546833)
(0.0012212954 -4.893647e-05 -0.00015302472)
(0.0012164018 -4.9839877e-05 -4.4821527e-05)
(0.0012347498 -5.5162316e-05 0.00014100391)
(0.0011971091 -5.535494e-05 0.00020073156)
(0.0011862158 -4.9399577e-05 0.00022610332)
(0.0011920823 -4.1065192e-05 0.00022396738)
(0.001207899 -3.2339315e-05 0.00020985262)
(0.0012283208 -2.4002755e-05 0.00019162455)
(0.0012502 -1.6393654e-05 0.00017270027)
(0.0012717349 -9.6762972e-06 0.00015445343)
(0.0012918716 -3.9576219e-06 0.00013725994)
(0.0013095538 5.2718061e-07 0.0001210444)
(0.0013250354 3.660455e-06 0.00010570953)
(0.0013383828 5.5375636e-06 9.0895157e-05)
(0.0013546462 6.3690921e-06 7.5854266e-05)
(0.00094249797 -6.245586e-05 9.3319413e-06)
(0.00092943188 -7.0397548e-05 1.5379711e-05)
(0.00087845026 -6.2477192e-05 1.6910442e-05)
(0.00083281831 -5.2733484e-05 1.4177022e-05)
(0.00079752999 -4.3085975e-05 7.1089701e-06)
(0.00076839313 -3.4346219e-05 -4.7945411e-06)
(0.0007432811 -2.6859912e-05 -2.2886989e-05)
(0.00072183701 -2.0123305e-05 -4.9612974e-05)
(0.00070527618 -1.2883916e-05 -8.8931983e-05)
(0.00069730194 -2.9912068e-06 -0.00014766317)
(0.0007122378 1.1872381e-05 -0.00023804807)
(0.00076626103 3.0533792e-05 -0.00037216284)
(0.00091403088 3.0738078e-05 -0.00052053299)
(0.00096634836 -3.5382138e-05 -0.000252676)
(0.00077981218 -4.6567375e-05 -0.00010545127)
(0.00073908608 -4.2330832e-05 -2.0635399e-05)
(0.00074488911 -4.3274048e-05 5.7922042e-05)
(0.00073746477 -4.8252509e-05 0.00020939336)
(0.00066146368 -4.3907008e-05 0.00022754901)
(0.00062224279 -3.5496186e-05 0.00021538935)
(0.00060203331 -2.5980949e-05 0.0001816655)
(0.00059629523 -1.7423078e-05 0.00014607506)
(0.00059937342 -1.0243166e-05 0.00011430516)
(0.00060745566 -4.4885074e-06 8.7743505e-05)
(0.00061829221 -7.5533691e-09 6.6293074e-05)
(0.00063050923 3.2898701e-06 4.9419195e-05)
(0.00064360519 5.2134931e-06 3.648282e-05)
(0.00065588788 5.7994631e-06 2.6695788e-05)
(0.00066663437 5.3978533e-06 1.9421163e-05)
(0.00068028217 5.0586868e-06 1.3300662e-05)
(0.00094168355 6.2551303e-05 4.8399281e-07)
(0.00092606979 7.0573787e-05 7.0594284e-07)
(0.00087142638 6.2700572e-05 4.8235467e-08)
(0.00082125969 5.2961572e-05 -1.8758301e-06)
(0.00078016813 4.3288275e-05 -5.5551951e-06)
(0.00074284226 3.4326421e-05 -1.1598953e-05)
(0.00070455544 2.630493e-05 -2.1339474e-05)
(0.00066113783 1.8176078e-05 -3.7333753e-05)
(0.00060728717 7.1154572e-06 -6.4376571e-05)
(0.00053710477 -1.1851585e-05 -0.00011233783)
(0.00044674469 -4.5261547e-05 -0.00020174506)
(0.00030642444 -9.6354327e-05 -0.00035945624)
(0.00013560152 -0.0001356863 -0.00049439287)
(5.6580407e-05 6.8120685e-05 0.00018749119)
(8.3668745e-05 4.8170843e-05 0.0001739658)
(0.00020453771 3.0873586e-05 0.00014724465)
(0.00027493272 1.3738952e-05 0.00010937513)
(0.00034941861 6.4189081e-07 7.9764164e-05)
(0.00041345956 -7.9835406e-06 5.7922202e-05)
(0.00046885229 -1.2840184e-05 4.1961165e-05)
(0.00051615099 -1.5007207e-05 3.0137363e-05)
(0.00055627906 -1.537251e-05 2.1376199e-05)
(0.000590067 -1.4574956e-05 1.5062967e-05)
(0.00061825607 -1.3221585e-05 1.0716019e-05)
(0.00064081464 -1.1680695e-05 7.8320993e-06)
(0.00067233291 -1.2209726e-05 5.261813e-06)
(0.0010127474 5.9390186e-05 6.9401384e-07)
(0.0010537955 6.7559169e-05 1.2407506e-06)
(0.0010947028 6.3146462e-05 9.4469009e-07)
(0.0011294229 5.643823e-05 -6.2247756e-07)
(0.0011572544 4.8721899e-05 -3.9654032e-06)
(0.0011767748 4.0782894e-05 -9.8170785e-06)
(0.00118532 3.3021774e-05 -1.9463909e-05)
(0.0011785924 2.4598074e-05 -3.5625665e-05)
(0.0011495111 1.3016905e-05 -6.3792202e-05)
(0.0010839387 -6.9413232e-06 -0.00011535655)
(0.00095934403 -4.4128483e-05 -0.00021481118)
(0.00070790977 -0.00010984683 -0.00040667387)
(0.00034335047 -0.0001863504 -0.00064003423)
(0.00013129566 9.6342475e-05 0.00024583645)
(0.00022427999 7.3812287e-05 0.00023076715)
(0.00043269422 5.1262649e-05 0.00021014982)
(0.00057145676 3.169167e-05 0.00017832847)
(0.00069920296 1.4691998e-05 0.00014950046)
(0.00080911284 2.0868555e-06 0.00012564107)
(0.00090193772 -6.8454603e-06 0.00010616988)
(0.00098116445 -1.2862845e-05 9.0347662e-05)
(0.0010493535 -1.6594709e-05 7.7345119e-05)
(0.0011083335 -1.8554242e-05 6.6367207e-05)
(0.0011592431 -1.9270885e-05 5.6771349e-05)
(0.0012020434 -1.9462281e-05 4.8073104e-05)
(0.0012540946 -2.0265305e-05 3.9451346e-05)
(0.0010184798 8.3779607e-14 7.1613971e-07)
(0.0010744824 3.1859185e-13 1.3230296e-06)
(0.001136613 8.3953531e-13 1.1233234e-06)
(0.0011929853 1.7938894e-12 -2.9623158e-07)
(0.0012410537 3.2501925e-12 -3.4290858e-06)
(0.0012791399 5.0913595e-12 -9.0083689e-06)
(0.0013044651 6.9168638e-12 -1.8213712e-05)
(0.0013125048 8.0200667e-12 -3.3640103e-05)
(0.001295535 7.439316e-12 -6.0534018e-05)