/*--------------------------------*- C++ -*----------------------------------*\
| =========                 |                                                 |
| \\      /  F ield         | OpenFOAM: The Open Source CFD Toolbox           |
|  \\    /   O peration     | Version:  2412                                  |
|   \\  /    A nd           | Website:  www.openfoam.com                      |
|    \\/     M anipulation  |                                                 |
\*---------------------------------------------------------------------------*/
FoamFile
{
    version     2.0;
    format      ascii;
    arch        "LSB;label=32;scalar=64";
    class       volVectorField;
    location    "2.7";
    object      flux;
}
// * * * * * * * * * * * * * * * * * * * * * * * * * * * * * * * * * * * * * //

dimensions      [0 1 -1 1 0 0 0];

internalField   nonuniform List<vector> 
5712
(
(-0.309129 0.503423 0.284046)
(-0.377527 0.27658 0.863486)
(-0.707177 0.877698 0.215287)
(-1.10357 0.574219 0.94517)
(-1.06735 0.844846 0.118013)
(-2.08247 0.71776 1.00211)
(-0.739044 1.24705 0.201795)
(-2.22294 1.54279 1.58987)
(-0.762579 1.89699 0.330102)
(-1.78287 2.39934 1.99697)
(-0.937313 1.00428 0.338026)
(-1.54029 0.881599 1.41521)
(-0.717448 0.618531 0.360559)
(-0.947678 0.425795 1.25703)
(-0.385819 0.407848 0.355195)
(-0.391225 0.232157 1.0792)
(-0.499904 0.84007 0.167061)
(-0.563985 0.761705 0.0901055)
(-0.687597 0.75818 0.503488)
(-0.622602 0.75304 0.236657)
(-0.479196 0.964628 0.155874)
(-0.721697 0.928815 0.0713345)
(-0.71508 1.11229 0.543643)
(-0.716553 0.960165 0.218431)
(-0.201662 0.29698 0.216868)
(-0.145421 0.209127 0.159092)
(-0.273584 0.154512 0.640605)
(-0.195056 0.106912 0.466445)
(-0.456918 0.433072 0.145318)
(-0.294436 0.280627 0.11365)
(-0.846586 0.239827 0.644485)
(-0.588403 0.155399 0.486037)
(-0.70547 0.84996 0.326124)
(-0.713618 0.902045 0.118266)
(-0.714025 0.764987 0.245903)
(-0.717882 0.627647 0.0886021)
(-0.161933 0.620244 0.111906)
(-0.14634 0.482465 0.30155)
(-1.64564 0.523682 1.5531)
(-2.03574 0.499663 0.474846)
(-0.874889 0.701314 0.465458)
(-1.16842 0.688179 0.215453)
(-2.12533 1.42321 1.88811)
(-2.61551 1.56652 0.592333)
(-0.984936 1.02254 0.43543)
(-1.21188 1.07985 0.205146)
(-1.23057 0.733351 1.02626)
(-1.60963 0.577201 0.342246)
(-0.979605 0.751003 0.522587)
(-1.35828 0.527822 0.238386)
(-0.561825 0.318966 0.833572)
(-0.712676 0.274925 0.265247)
(-0.114015 0.236708 0.188401)
(-0.0360005 0.346855 0.102297)
(-0.148574 0.117613 0.337712)
(-0.0513572 0.158526 0.136158)
(-0.254919 0.314059 0.166548)
(-0.10466 0.463812 0.105849)
(-0.443814 0.196952 0.354804)
(-0.162566 0.267786 0.133346)
(-0.289514 0.321194 0.224209)
(-0.096115 0.556686 0.142598)
(-0.294645 0.244504 0.22205)
(-0.0832965 0.39842 0.0926919)
(-0.58064 0.0767681 0.398029)
(-0.168869 0.268203 0.143377)
(-0.761916 0.0136184 0.156834)
(-0.238525 0.192277 0.0577971)
(-0.986189 0.724427 0.484741)
(-0.562214 0.871942 0.363212)
(-0.835176 0.757404 0.294741)
(-0.576877 0.861389 0.263442)
(-1.01543 0.916255 0.547132)
(-0.65382 0.935404 0.478939)
(-0.80621 0.930816 0.296944)
(-0.653578 0.910531 0.316739)
(-0.644126 0.672161 0.271617)
(-0.463951 0.812527 0.231769)
(-0.704891 0.674038 0.351733)
(-0.444356 0.802113 0.299593)
(-0.812015 0.757591 0.220088)
(-0.600193 0.853698 0.188798)
(-0.839387 0.742785 0.128268)
(-0.616839 0.847235 0.10993)
(-0.790479 0.935955 0.220701)
(-0.670531 0.895884 0.220125)
(-0.821359 0.935009 0.126741)
(-0.684864 0.88752 0.126778)
(-0.666271 0.63042 0.209869)
(-0.49373 0.81332 0.163629)
(-0.719003 0.574837 0.123027)
(-0.51318 0.809301 0.08624)
(-0.708496 0.687827 0.23231)
(-0.289535 0.731714 0.130576)
(-0.402171 0.866657 0.232101)
(-0.457186 1.20495 0.257311)
(-0.760646 0.719423 0.306751)
(-0.332726 0.840792 0.23384)
(-0.396504 0.861082 0.330639)
(-0.475464 1.31119 0.438643)
(-0.711787 0.651384 0.170555)
(-0.270994 0.650026 0.0727718)
(-0.423036 0.862689 0.149584)
(-0.452575 1.14693 0.15511)
(-0.736543 0.626337 0.0969092)
(-0.273171 0.597843 0.0337313)
(-0.445928 0.861762 0.0686462)
(-0.457763 1.11853 0.0595441)
(-0.110128 0.170367 0.212787)
(-0.123443 0.213786 0.432957)
(-0.0386143 0.46327 0.156129)
(-0.0756273 0.749342 0.490556)
(-0.317811 0.205293 0.23002)
(-0.37229 0.228749 0.439215)
(-0.129656 0.575047 0.186289)
(-0.244496 0.84424 0.522988)
(-0.516283 0.245936 0.305001)
(-0.612707 0.255824 0.43756)
(-0.229883 0.705418 0.259148)
(-0.41034 0.957286 0.533749)
(-0.692723 0.986917 0.344178)
(-0.366734 1.10534 0.419417)
(-0.69461 0.822605 0.260635)
(-0.826493 0.745921 0.26066)
(-0.412058 1.00078 0.321494)
(-0.270648 1.12769 0.276588)
(-0.432769 0.968729 0.300066)
(-0.485988 0.8246 0.410746)
(-0.839275 0.691071 0.477486)
(-0.524993 1.12707 0.702276)
(-0.391635 1.03376 0.373241)
(-0.510144 0.946428 0.297076)
(-0.561378 0.787389 0.280418)
(-0.539023 0.797594 0.355641)
(-0.668744 1.47252 0.569965)
(-0.122444 0.0621608 0.540092)
(-0.125934 0.0817908 0.523062)
(-0.0752846 0.164845 0.631638)
(-0.0805214 0.335442 0.635795)
(-0.363243 0.0884019 0.527964)
(-0.34894 0.122073 0.529138)
(-0.231375 0.220302 0.634337)
(-0.235779 0.394721 0.631149)
(-0.544989 0.133941 0.488274)
(-0.503204 0.12942 0.507214)
(-0.341595 0.297015 0.609514)
(-0.344668 0.473703 0.615608)
(-0.385433 1.1054 0.348501)
(-0.431994 1.11373 0.369931)
(-0.609363 0.911675 0.335658)
(-0.646539 0.881419 0.354268)
(-0.669978 0.760239 0.406425)
(-0.631239 0.684169 0.40574)
(-0.790381 0.55121 0.473783)
(-0.728149 0.49265 0.460216)
(-0.537493 0.418693 0.596934)
(-0.536606 0.61801 0.603285)
(-0.516147 0.976855 0.318303)
(-0.566201 0.891083 0.348849)
(-0.664231 0.896395 0.356643)
(-0.615531 0.849095 0.378733)
(-0.621814 0.750394 0.395652)
(-0.528155 0.700287 0.424912)
(-0.55279 0.638858 0.454183)
(-0.449711 0.569809 0.49631)
(-0.607487 0.499949 0.59716)
(-0.487677 0.680787 0.646945)
(-0.564631 0.917148 0.37141)
(-0.311876 0.979234 0.253248)
(-0.442436 0.9473 0.300877)
(-0.43487 1.04224 0.304643)
(-0.62357 0.931019 0.419091)
(-0.731523 0.863475 0.479305)
(-0.636818 0.942173 0.340857)
(-0.833812 0.90611 0.453025)
(-0.371757 0.822042 0.274435)
(-0.370637 0.833011 0.280343)
(-0.510003 0.811484 0.348715)
(-0.241543 0.808936 0.249909)
(-0.425858 0.96251 0.125984)
(-0.675661 1.06699 0.220015)
(-0.438914 0.954018 0.0515439)
(-0.719012 1.05515 0.081835)
(-0.645489 0.952632 0.211049)
(-1.02017 0.942678 0.336176)
(-0.665774 0.940006 0.0828552)
(-1.04111 0.934066 0.125993)
(-0.358327 0.814271 0.10462)
(-0.590398 0.826644 0.191849)
(-0.369093 0.823706 0.0388299)
(-0.637642 0.832048 0.0696885)
(-0.440115 0.700366 0.259993)
(-0.332372 0.693671 0.22242)
(-0.559353 0.478776 0.264976)
(-0.256695 0.570794 0.165298)
(-0.478798 0.706154 0.36567)
(-0.189956 0.68323 0.260305)
(-0.529882 0.491737 0.415056)
(-0.139555 0.588603 0.276304)
(-0.455077 0.681465 0.120473)
(-0.471448 0.684065 0.141769)
(-0.584645 0.473354 0.150567)
(-0.303862 0.572204 0.0851147)
(-0.409067 0.687507 0.0935355)
(-0.541693 0.676467 0.102646)
(-0.536007 0.469001 0.104529)
(-0.3852 0.558807 0.0793842)
(-0.118797 0.0716069 0.453427)
(-0.111404 0.0592606 0.297834)
(-0.0975281 0.044248 0.0970438)
(-0.0765685 0.0403857 0.491207)
(-0.0753931 0.0352408 0.308326)
(-0.0666211 0.0348083 0.106448)
(-0.323448 0.106738 0.447045)
(-0.282443 0.0773556 0.291428)
(-0.249716 0.0612943 0.0986892)
(-0.209316 0.0937465 0.491271)
(-0.177418 0.084748 0.307634)
(-0.151682 0.0743294 0.104)
(-0.425605 0.114932 0.427931)
(-0.365988 0.113606 0.274646)
(-0.337994 0.122063 0.0919179)
(-0.300996 0.169387 0.483838)
(-0.246285 0.149476 0.303252)
(-0.225531 0.138314 0.104132)
(-0.391531 1.07601 0.263343)
(-0.323464 0.972107 0.149262)
(-0.310236 0.897094 0.038396)
(-0.606597 0.890757 0.308631)
(-0.460368 0.84623 0.210475)
(-0.379054 0.806571 0.0683075)
(-0.540485 0.605851 0.352024)
(-0.403543 0.586977 0.248062)
(-0.317919 0.577509 0.0835856)
(-0.598238 0.425557 0.387859)
(-0.476483 0.408669 0.251821)
(-0.40658 0.402406 0.0823126)
(-0.455083 0.275123 0.469434)
(-0.314522 0.206979 0.29408)
(-0.2384 0.171343 0.103971)
(-0.732009 0.850318 0.291752)
(-0.604171 0.795157 0.159107)
(-0.542656 0.753554 0.0518263)
(-0.532796 0.843518 0.276912)
(-0.428944 0.796743 0.178426)
(-0.360832 0.769113 0.0616122)
(-0.465376 0.625221 0.309104)
(-0.355916 0.5642 0.203128)
(-0.284653 0.530205 0.0691049)
(-0.411222 0.446957 0.366801)
(-0.312719 0.399977 0.234955)
(-0.25262 0.37911 0.0799609)
(-0.436786 0.292224 0.445008)
(-0.265835 0.219819 0.258372)
(-0.16912 0.181928 0.0891758)
(-0.452236 1.11778 -0.0197265)
(-0.739429 1.16364 0.0395403)
(-0.382238 1.18708 0.0177088)
(-0.549555 1.09415 0.105249)
(-0.364724 1.08937 0.0696737)
(-0.753494 1.09321 0.0708792)
(-0.304554 1.29688 0.180044)
(-0.616818 1.12114 0.158369)
(-0.00844729 0.714242 0.0239096)
(-0.0694517 0.788576 0.0390197)
(0.00882503 0.71091 0.0253404)
(-0.0406273 0.701835 0.0409399)
(-0.142893 0.948041 0.0133894)
(-0.26811 0.836583 0.0377301)
(-0.0895895 0.925508 0.0249054)
(-0.161166 0.732254 0.0553596)
(-0.0751356 1.0193 0.075642)
(-0.159372 1.06653 0.0452726)
(-0.437259 0.875562 0.152857)
(-0.654206 0.98702 0.107952)
(-0.347247 1.15101 0.0701595)
(-0.255505 1.00684 0.115386)
(-0.459257 1.13577 0.116673)
(-0.401376 1.17729 0.0340566)
(-0.612842 1.20084 0.23157)
(-0.655434 1.28509 0.0740904)
(0.0206755 0.975048 -0.161509)
(0.214546 0.999223 -0.0219526)
(-0.332881 0.849323 0.0286022)
(-0.23469 0.836209 0.0295903)
(-0.256815 0.969714 0.00267224)
(-0.148202 0.935065 0.0093784)
(-0.0639888 0.657861 0.414146)
(-0.041055 0.369244 0.185622)
(-0.0508455 0.612976 0.110133)
(-0.0308896 0.409077 0.0666364)
(-0.156976 0.638389 0.408211)
(-0.0520771 0.361134 0.188532)
(-0.0774687 0.589623 0.120082)
(-0.00961482 0.395522 0.0786874)
(-0.398445 0.583994 0.396182)
(-0.122587 0.333829 0.20753)
(-0.296951 0.547562 0.162572)
(-0.093063 0.375692 0.117642)
(-0.335852 0.537107 0.124131)
(-0.101614 0.390527 0.0825736)
(-0.380139 0.515213 0.0707358)
(-0.126341 0.389898 0.0646411)
(-0.487551 0.899054 0.52317)
(-0.485172 0.714498 0.457921)
(-0.380373 0.876765 0.2298)
(-0.482742 0.71619 0.293724)
(-0.730911 1.00392 0.580992)
(-0.661725 0.903276 0.542881)
(-0.599423 1.00218 0.282877)
(-0.631154 0.884756 0.33961)
(-0.286486 0.808175 0.211462)
(-0.379676 0.564044 0.255275)
(-0.334127 0.843948 0.448001)
(-0.349837 0.547565 0.371104)
(-0.356576 0.890652 0.146634)
(-0.481524 0.716494 0.191891)
(-0.375054 0.912812 0.0851487)
(-0.487075 0.713887 0.112008)
(-0.572711 1.02285 0.189404)
(-0.620807 0.876758 0.22154)
(-0.593727 1.03829 0.109959)
(-0.626344 0.871506 0.127339)
(-0.253867 0.783902 0.121014)
(-0.386422 0.569571 0.168626)
(-0.246435 0.776944 0.0687191)
(-0.392296 0.568718 0.10281)
(-0.0416862 0.478645 0.190495)
(-0.0680049 0.325139 0.138664)
(-0.312405 0.425647 0.217106)
(-0.185448 0.262262 0.150479)
(-0.0413269 0.443435 0.32632)
(-0.0594578 0.290009 0.200502)
(-0.273613 0.399519 0.291901)
(-0.157789 0.239039 0.19826)
(-0.0406072 0.488622 0.114004)
(-0.0611244 0.345399 0.0947286)
(-0.330652 0.436831 0.150722)
(-0.203874 0.275286 0.103282)
(-0.0527685 0.490969 0.0648599)
(-0.0658816 0.359069 0.0599369)
(-0.33487 0.439441 0.0953427)
(-0.215168 0.283075 0.0634999)
(0.00557494 0.10467 0.486831)
(0.0109133 0.0559746 0.333438)
(-0.0202195 0.190911 0.244391)
(-0.0150683 0.102174 0.260598)
(0.029748 0.108322 0.482889)
(0.0501393 0.0650189 0.33176)
(-0.0346738 0.193199 0.24225)
(-0.0260156 0.113467 0.255899)
(-0.054824 0.118295 0.488676)
(-0.014326 0.0877092 0.317474)
(-0.111206 0.190953 0.247702)
(-0.100963 0.132162 0.238074)
(0.306224 0.542505 0.527435)
(0.15616 0.907264 0.505102)
(0.176213 0.348721 0.496373)
(0.110318 0.313956 0.38598)
(-0.0113593 0.215863 0.229448)
(0.282424 0.929725 0.308253)
(0.41523 0.59992 0.375753)
(0.195222 0.333966 0.402363)
(0.191266 0.295748 0.382669)
(-0.0105838 0.165032 0.27698)
(-0.370362 0.896285 0.437155)
(-0.275635 0.650783 0.395831)
(-0.233361 0.4764 0.332101)
(-0.245937 0.345511 0.272891)
(-0.15436 0.20175 0.184454)
(0.0199219 0.0401952 0.293791)
(0.0156233 0.0398602 0.298604)
(-0.00948501 0.0674135 0.299657)
(-0.015157 0.0641398 0.370875)
(0.0553768 0.0504508 0.291113)
(0.0635501 0.0392134 0.28742)
(-0.0274761 0.0835707 0.292189)
(-0.0382706 0.0767099 0.361795)
(0.0439675 0.0719837 0.27514)
(0.0708946 0.0645175 0.268403)
(-0.0680804 0.103206 0.276682)
(-0.0854173 0.0924991 0.344643)
(0.126143 0.947169 0.346794)
(0.0690775 0.914349 0.328087)
(0.324043 0.606465 0.327746)
(0.233418 0.561133 0.283479)
(0.169837 0.379929 0.250277)
(0.123623 0.371454 0.253109)
(0.148765 0.289532 0.246727)
(0.124894 0.282785 0.260895)
(-0.02543 0.150608 0.241563)
(-0.0616403 0.136037 0.323565)
(-0.195051 0.825962 0.253884)
(-0.134173 0.716181 0.287995)
(0.0187463 0.604798 0.2155)
(0.0911439 0.52721 0.245987)
(0.02142 0.452157 0.195889)
(0.0766245 0.418414 0.225421)
(-0.0270666 0.31698 0.196874)
(0.0185532 0.310869 0.238921)
(-0.0502624 0.186491 0.185052)
(-0.0702578 0.216115 0.296947)
(-0.164898 0.570756 0.189638)
(-0.182966 0.458283 0.152209)
(-0.392509 0.574878 0.129654)
(-0.250186 0.431254 0.068357)
(-0.343613 0.725454 0.287758)
(-0.337215 0.542306 0.218933)
(-0.518298 0.733908 0.232474)
(-0.406964 0.53122 0.146117)
(-0.308191 0.469189 0.101232)
(-0.192653 0.3847 0.0584775)
(-0.108394 0.464679 0.149946)
(-0.136739 0.411291 0.13598)
(-0.464591 0.592269 0.169289)
(-0.19701 0.410264 0.0730835)
(-0.497921 0.596064 0.0791716)
(-0.181173 0.413727 0.0435158)
(-0.595559 0.767692 0.218057)
(-0.391332 0.543721 0.124138)
(-0.633247 0.764339 0.0899771)
(-0.37472 0.546658 0.0619221)
(-0.370228 0.471804 0.139366)
(-0.142188 0.360425 0.0600604)
(-0.401924 0.478535 0.0711119)
(-0.123431 0.374522 0.0358803)
(-0.243911 0.331642 0.0888073)
(-0.204675 0.310268 0.107311)
(-0.198712 0.208421 0.112537)
(-0.344265 0.292547 0.191295)
(-0.126339 0.336741 0.133819)
(-0.166583 0.326021 0.164716)
(-0.135948 0.212274 0.136934)
(-0.291594 0.289205 0.249662)
(-0.267633 0.330327 0.104558)
(-0.193565 0.301206 0.0779728)
(-0.238274 0.201973 0.0818375)
(-0.394118 0.306293 0.136121)
(-0.319272 0.347444 0.0480379)
(-0.185255 0.303291 0.0200076)
(-0.276159 0.210823 0.0193419)
(-0.392355 0.302674 0.0355793)
(0.0229829 0.103779 0.238011)
(0.0319939 0.0834849 0.109139)
(0.0381509 0.065563 0.03133)
(-0.00980216 0.396455 0.25938)
(0.00584982 0.193559 0.0690722)
(0.00847462 0.148157 0.0181938)
(0.0851078 0.0947094 0.230034)
(0.107223 0.0894075 0.112736)
(0.117179 0.0762965 0.0350873)
(-0.0155471 0.412478 0.2567)
(0.0252177 0.224 0.0708108)
(0.0314939 0.180565 0.019521)
(0.102243 0.116319 0.207134)
(0.152795 0.124469 0.10208)
(0.1747 0.125226 0.0262559)
(-0.0469219 0.429841 0.243152)
(0.0444226 0.274036 0.0652504)
(0.0636839 0.240365 0.0146904)
(0.0408939 0.832881 0.22135)
(0.06345 0.763277 0.120358)
(0.0577875 0.711946 0.0314624)
(0.186412 0.536899 0.189893)
(0.202927 0.510836 0.101423)
(0.189696 0.492172 0.0280972)
(0.145384 0.391494 0.190208)
(0.174883 0.380718 0.0951305)
(0.170687 0.374316 0.0269946)
(0.15243 0.346321 0.191506)
(0.199178 0.330877 0.0903006)
(0.208518 0.324216 0.0207805)
(-0.031041 0.489456 0.22937)
(0.0647546 0.355805 0.0571991)
(0.0632529 0.319385 0.00966994)
(-0.156835 0.617837 0.24607)
(-0.074659 0.561287 0.12894)
(-0.0413342 0.522419 0.039712)
(0.0615646 0.473989 0.215775)
(0.113873 0.438071 0.117477)
(0.130749 0.416507 0.0386276)
(0.0690727 0.419876 0.198736)
(0.127897 0.382941 0.103982)
(0.143086 0.355174 0.0340826)
(0.0388307 0.405035 0.19541)
(0.112066 0.365023 0.0795825)
(0.127864 0.343175 0.0213729)
(-0.0853196 0.628703 0.237003)
(0.0438015 0.442138 0.0583871)
(0.0536191 0.404707 0.0184386)
(-0.00329083 0.193565 0.0729018)
(0.000305144 0.115153 0.0281047)
(0.00168117 0.086104 0.0131791)
(0.00361282 0.0843646 0.000158977)
(0.00443715 0.218824 0.0295196)
(0.00444504 0.125224 0.0120334)
(0.00521499 0.0899486 0.00614854)
(0.00546094 0.0865363 0.00113662)
(-0.00901434 0.187366 0.0754853)
(0.000315901 0.113108 0.0301738)
(0.00449028 0.085729 0.0157182)
(0.00953392 0.0853722 0.00282461)
(0.0101724 0.217051 0.0358131)
(0.0102203 0.125506 0.0162261)
(0.0114046 0.0907923 0.0103249)
(0.0124829 0.0869825 0.00483492)
(-0.0183129 0.17635 0.086858)
(-0.00224852 0.110051 0.0361684)
(0.00492961 0.0861122 0.0206068)
(0.0146448 0.0837169 0.00629444)
(0.00129235 0.21073 0.0619085)
(0.0084791 0.126551 0.0321802)
(0.0104632 0.0929392 0.0185165)
(0.014421 0.0849681 0.00872616)
(0.00167394 0.221742 0.0458515)
(0.00556006 0.132239 0.0289589)
(0.0043993 0.0940936 0.0146815)
(0.00489612 0.0907846 0.00498816)
(-0.00704078 0.228361 0.0479495)
(-0.000412186 0.138209 0.0331204)
(0.0022328 0.0983958 0.0199261)
(0.00515981 0.0946721 0.0113226)
(-0.0457023 0.188422 0.0730425)
(-0.0135428 0.117054 0.034918)
(-0.00423023 0.08933 0.0182247)
(0.00879558 0.0846872 0.0018605)
(-0.0688549 0.14722 0.069952)
(-0.0215837 0.100005 0.0322644)
(-0.0115406 0.0822005 0.0187603)
(0.0122694 0.0797497 -0.00181868)
(-0.038831 0.160721 0.0919169)
(-0.0103056 0.104391 0.0387748)
(-0.00102345 0.0844879 0.0223281)
(0.014313 0.0772542 0.00482037)
(-0.0562764 0.129776 0.0828164)
(-0.0172583 0.0917445 0.0342701)
(-0.00985738 0.0781783 0.0205066)
(0.0123306 0.0756843 -0.00305719)
(-0.0421656 0.204769 0.0555263)
(-0.0130388 0.126242 0.0306329)
(-0.00421864 0.093261 0.016275)
(0.00741716 0.0894283 0.00216612)
(-0.0758322 0.157947 0.0544524)
(-0.023924 0.106445 0.0286138)
(-0.0122829 0.0852281 0.0175363)
(0.0151373 0.0824802 0.00284749)
(-0.044705 0.214069 0.0413797)
(-0.015266 0.132699 0.0267757)
(-0.00425769 0.0967608 0.017232)
(0.00971981 0.0916929 0.0101632)
(-0.0794373 0.163988 0.0379196)
(-0.0253052 0.111165 0.0240144)
(-0.0129775 0.0878975 0.0167172)
(0.0165836 0.0834833 0.0097453)
(-0.00335368 0.142506 0.0938408)
(-0.000207421 0.0980923 0.0343108)
(0.000711314 0.0798684 0.0159488)
(0.00328038 0.0794174 -0.00383934)
(-0.0030266 0.0871606 0.0991164)
(-0.000121902 0.077457 0.0335329)
(0.000195591 0.0716984 0.0172765)
(0.00343376 0.0731482 -0.0113131)
(-0.00923165 0.137376 0.0936615)
(-0.000808864 0.0962098 0.0348356)
(0.00200063 0.079581 0.017318)
(0.00866845 0.0793399 -0.00248222)
(-0.00551648 0.086147 0.0951911)
(0.000643671 0.0770702 0.0323854)
(0.00111165 0.0715171 0.0172311)
(0.00936235 0.0735455 -0.0105186)
(-0.0315541 0.129416 0.0944874)
(-0.00790543 0.0932635 0.0358838)
(-0.000926721 0.0792413 0.0200042)
(0.0134186 0.0786454 -0.000354421)
(-0.0250067 0.0886308 0.0853457)
(-0.00511515 0.0781018 0.0293607)
(-0.000761119 0.0715351 0.0171151)
(0.0149109 0.0750308 -0.0077144)
(-0.0170932 0.120327 0.0877646)
(-0.00173368 0.0885701 0.0346168)
(0.0028431 0.0770805 0.0221534)
(0.014542 0.0782037 0.00554253)
(-0.0115977 0.0889625 0.0940361)
(-0.000514754 0.0780138 0.0332721)
(0.000705366 0.0725393 0.0221342)
(0.0144314 0.0750039 -0.00765338)
(-0.0481987 0.106762 0.0687064)
(-0.0134451 0.083534 0.0269605)
(-0.006835 0.0732703 0.017497)
(0.016684 0.0728803 0.00164595)
(0.00128723 0.0247836 0.0828028)
(0.00124403 0.0577016 0.0246868)
(0.000998515 0.0559836 0.012695)
(0.0026765 0.0175204 -0.0105646)
(0.0053355 -0.0501707 0.0327502)
(0.00239208 0.046523 0.00878064)
(0.00146711 0.0479414 0.00386721)
(0.00162423 0.0168617 -0.00258218)
(0.000235045 0.031845 0.0815577)
(0.00236515 0.0603063 0.0250338)
(0.00200214 0.0570241 0.0131645)
(0.00708431 0.018553 -0.00947496)
(0.0128387 -0.0391314 0.0332849)
(0.00615465 0.0496071 0.00924398)
(0.00369399 0.0488143 0.00432651)
(0.00432136 0.0171585 -0.00200216)
(-0.00502596 0.0431007 0.0762863)
(0.00159062 0.0641781 0.0243908)
(0.00222296 0.0580664 0.0138226)
(0.0110962 0.0184782 -0.0074491)
(0.0167789 -0.0222105 0.0319005)
(0.0087735 0.054488 0.00933056)
(0.0055388 0.0499174 0.00489765)
(0.00664488 0.017244 -0.00115569)
(-0.00704928 0.0582191 0.0641395)
(0.00201713 0.0688322 0.0209413)
(0.00282017 0.0594068 0.013345)
(0.01473 0.0196548 -0.00521615)
(0.0162817 -0.00343363 0.0280654)
(0.0101984 0.0603094 0.00827866)
(0.0063576 0.0516242 0.00527507)
(0.00791555 0.0178676 -5.93151e-05)
(-0.0168683 0.0786907 0.0562163)
(3.52682e-05 0.0749386 0.0196085)
(5.81388e-05 0.0619022 0.0131834)
(0.014553 0.0219927 -0.00217765)
(0.00719775 0.0133839 0.0251373)
(0.00903883 0.0655387 0.00839026)
(0.00512474 0.0532848 0.00604635)
(0.00743249 0.0183806 0.00154121)
(-0.050278 0.0920962 0.0443927)
(-0.00614422 0.0819088 0.0191574)
(-0.00384141 0.0635915 0.0114128)
(0.0140519 0.02042 0.000658888)
(-0.0158337 0.00667232 0.022998)
(0.00288741 0.0709326 0.0117449)
(0.00202515 0.0567546 0.0073838)
(0.00557776 0.0191547 0.0040137)
(-0.0341416 0.0905404 0.0473993)
(-0.00213081 0.0788624 0.0173607)
(-0.00215038 0.0620862 0.0112023)
(0.0141766 0.0205301 -0.000746086)
(-0.00718501 0.00977671 0.0228014)
(0.00601882 0.0689352 0.00939346)
(0.00354036 0.054879 0.00651651)
(0.00659589 0.0186428 0.00289213)
(-0.0638398 0.0907131 0.0393709)
(-0.0117164 0.0841658 0.0206285)
(-0.00638967 0.0652866 0.0125791)
(0.0151341 0.019204 0.00313188)
(-0.021671 0.00130705 0.0234057)
(-0.000508591 0.0728416 0.0139973)
(0.000371965 0.058352 0.00877076)
(0.00501651 0.0192389 0.00555658)
(-0.0733482 0.0901333 0.0305765)
(-0.017792 0.087256 0.0199879)
(-0.00946847 0.0682378 0.0136447)
(0.0149883 0.0199178 0.00833095)
(-0.027314 0.00811676 0.0216829)
(-0.00488594 0.0760088 0.0151672)
(-0.00176518 0.0605704 0.0104416)
(0.00425958 0.0198425 0.00789046)
(0.001474 0.0839071 0.000596609)
(0.000713186 0.0661949 0.000514625)
(0.00038699 0.047214 0.000349001)
(0.000236212 0.028187 0.000233642)
(0.000175636 0.00936228 0.000179479)
(0.00200123 0.0840429 0.000355438)
(0.00107756 0.0662546 0.000267449)
(0.000613661 0.0472663 0.00017788)
(0.00038324 0.0282176 0.00011957)
(0.000287038 0.00937202 9.25301e-05)
(0.00316441 0.0853997 0.0015303)
(0.0015172 0.066733 0.00108776)
(0.000819487 0.0474635 0.000694597)
(0.00050176 0.0283011 0.00045611)
(0.000375935 0.00939538 0.000347779)
(0.00528285 0.0852833 0.00166143)
(0.00293126 0.0668795 0.00107334)
(0.00169656 0.0475845 0.000660846)
(0.00107188 0.0283686 0.000428527)
(0.000807654 0.00941661 0.000325545)
(0.0044915 0.0863272 0.00371984)
(0.00218128 0.0673197 0.00249218)
(0.00120004 0.0477416 0.00155525)
(0.000744054 0.0284282 0.00101751)
(0.000561087 0.00943225 0.000776224)
(0.00757861 0.0856882 0.00746185)
(0.00416374 0.0677602 0.00462466)
(0.00243327 0.0480637 0.00283583)
(0.00155045 0.0286024 0.00184159)
(0.00117326 0.0094868 0.00139987)
(0.0025753 0.0886111 0.0076974)
(0.00136974 0.068948 0.00488345)
(0.000801642 0.0487407 0.00303127)
(0.00051312 0.0289483 0.00197997)
(0.000388982 0.00959282 0.00151041)
(0.00147523 0.0902309 0.00839655)
(0.000748229 0.0700723 0.00515539)
(0.000425837 0.0494237 0.00316237)
(0.000270323 0.0293033 0.00205783)
(0.000203993 0.00970214 0.00156979)
(0.00396403 0.0886525 0.00497108)
(0.00181328 0.068509 0.0033407)
(0.00100191 0.0483683 0.00210444)
(0.000626271 0.0287373 0.0013809)
(0.000470543 0.00952591 0.00105036)
(0.000937833 0.0912911 0.00392835)
(0.00027374 0.0688939 0.0026276)
(0.000118658 0.0484365 0.00165723)
(6.6e-05 0.0287515 0.00109099)
(4.74986e-05 0.00952823 0.000831225)
(0.00578914 0.0871594 0.00515085)
(0.00297936 0.0679535 0.00333208)
(0.00171302 0.0480341 0.00206452)
(0.00108697 0.0285631 0.00135172)
(0.000821969 0.00947163 0.00102999)
(0.00163102 0.0906812 0.00401345)
(0.000667113 0.0685421 0.00235822)
(0.000353306 0.0482323 0.00143483)
(0.00021634 0.0286458 0.000936787)
(0.000160477 0.00949525 0.000711007)
(0.00144673 0.0898068 0.00559226)
(0.000396501 0.069171 0.00391673)
(0.000159557 0.0487748 0.00249315)
(8.62813e-05 0.0289508 0.00164224)
(6.17654e-05 0.00959221 0.00125431)
(0.000977523 0.0923734 0.00543663)
(0.000306269 0.069548 0.00362416)
(0.000141571 0.0488308 0.0022815)
(8.28229e-05 0.028958 0.00149976)
(6.10323e-05 0.00959246 0.00114435)
(0.00140073 0.0908881 0.0074864)
(0.000364358 0.0703471 0.00470874)
(0.000138995 0.049515 0.00290206)
(7.35227e-05 0.0293381 0.0018908)
(5.08333e-05 0.00971193 0.0014419)
(0.00072187 0.0936436 0.00719196)
(0.00011048 0.0706902 0.00454123)
(1.75695e-05 0.049551 0.0028029)
(1.65045e-06 0.0293367 0.00182672)
(-1.817e-06 0.00971012 0.00139122)
(0.00120161 0.0838796 0.000210167)
(0.00053878 0.0661661 0.000405231)
(0.000279997 0.0471618 0.000289367)
(0.000166327 0.0281541 0.000195501)
(0.000122245 0.00935169 0.000150724)
(0.00110777 0.0852998 -4.04088e-05)
(0.000505232 0.06623 0.000151024)
(0.000264576 0.047136 0.000113845)
(0.000157444 0.0281349 7.85535e-05)
(0.000115768 0.00934542 6.15719e-05)
(0.00275767 0.0848902 0.000766356)
(0.00122009 0.0666012 0.000720206)
(0.000636229 0.047353 0.000478536)
(0.000379747 0.0282383 0.0003183)
(0.000280775 0.00937555 0.000245005)
(0.00257046 0.0862202 8.02777e-05)
(0.00114675 0.0666201 0.000223664)
(0.000602749 0.0473044 0.00015783)
(0.000360119 0.0282083 0.000107084)
(0.00026517 0.00936623 8.39611e-05)
(0.00359507 0.0864403 0.00133933)
(0.00149231 0.0671869 0.0011151)
(0.000771975 0.0476021 0.000721418)
(0.000459667 0.0283481 0.000479067)
(0.000340203 0.0094067 0.000370072)
(0.00308827 0.088134 0.000782154)
(0.00140902 0.0671801 0.000585741)
(0.000758661 0.0475358 0.000362431)
(0.000458033 0.0283097 0.000234942)
(0.000340984 0.0093949 0.000181465)
(0.0041548 0.0887445 0.00430436)
(0.00210642 0.0678298 0.00275028)
(0.00120259 0.0478771 0.00168584)
(0.000757732 0.0284726 0.00110607)
(0.000573361 0.00944248 0.00084833)
(0.00204375 0.0900612 0.00214486)
(0.00102883 0.0677042 0.00136704)
(0.000576618 0.0477816 0.000828885)
(0.000354825 0.028423 0.000541396)
(0.00026809 0.00942695 0.000416254)
(0.00239175 0.0901737 0.00552784)
(0.00126777 0.068236 0.00303371)
(0.00073843 0.0480709 0.00179796)
(0.000471588 0.0285649 0.0011626)
(0.000357422 0.00946998 0.000882956)
(-0.020345 0.323651 0.092329)
(-0.0243178 0.499598 0.160131)
(-0.0559714 0.342077 0.0868023)
(-0.0689425 0.514829 0.155227)
(-0.085543 0.372715 0.0804487)
(-0.110088 0.539735 0.144215)
(-0.104166 0.409328 0.0780942)
(-0.145808 0.582248 0.138436)
(-0.104761 0.450562 0.0858067)
(-0.146415 0.654826 0.159116)
(-0.0944273 0.41967 0.0496926)
(-0.123551 0.518099 0.0741677)
(-0.0890299 0.42957 0.0699221)
(-0.106716 0.552933 0.111614)
(-0.105483 0.418327 0.0324517)
(-0.142082 0.512928 0.0441289)
(-0.10833 0.413838 0.0122043)
(-0.147559 0.512086 0.0173662)
(-0.0189696 0.2591 0.273273)
(-0.00414118 0.0463163 0.0656748)
(-0.000898884 0.0101685 0.0150294)
(-0.000190225 0.00228071 0.00332171)
(-4.60508e-05 0.000401359 0.000829655)
(-0.0083565 0.308172 0.0726817)
(-0.00295576 0.0849792 0.0192389)
(-0.000332663 0.0206547 0.005144)
(-9.28346e-05 0.00467599 0.0011497)
(-3.65502e-05 0.000815746 0.00025548)
(-0.0612452 0.26572 0.271611)
(-0.0134696 0.0458065 0.0643593)
(-0.00294081 0.00986909 0.0146179)
(-0.000627122 0.002193 0.00320675)
(-0.000152921 0.000383695 0.000797197)
(-0.0217369 0.315218 0.0750653)
(-0.00462818 0.0856312 0.0218294)
(-0.000937771 0.0205417 0.00535651)
(-0.000182804 0.00458948 0.00123926)
(-3.91656e-05 0.000797759 0.000309564)
(-0.108032 0.277807 0.262841)
(-0.0238985 0.0460978 0.0611999)
(-0.00524807 0.00968195 0.0137466)
(-0.00112925 0.00212261 0.00299179)
(-0.000277772 0.000368838 0.000739455)
(-0.037862 0.328755 0.0728708)
(-0.00894696 0.0873492 0.0211314)
(-0.00196729 0.0205703 0.00514608)
(-0.00042664 0.00454059 0.0011785)
(-0.000102637 0.000783529 0.000291589)
(-0.155379 0.292519 0.247595)
(-0.0345659 0.0462528 0.0565038)
(-0.00766464 0.00946902 0.0125726)
(-0.00166812 0.00205536 0.00272524)
(-0.000415421 0.000356056 0.000672906)
(-0.0530432 0.346216 0.0702037)
(-0.0136535 0.0895356 0.019906)
(-0.00320773 0.0207562 0.00475032)
(-0.000731616 0.00454746 0.0010703)
(-0.00018461 0.000782294 0.000261054)
(-0.217369 0.305288 0.218167)
(-0.0497373 0.0463741 0.0490119)
(-0.011264 0.00943002 0.0108914)
(-0.00249634 0.00205697 0.00236937)
(-0.000632462 0.000358521 0.00058886)
(-0.0704715 0.36271 0.0656018)
(-0.0204926 0.0915039 0.0177485)
(-0.00510545 0.0211767 0.00413852)
(-0.00120334 0.00466364 0.000920646)
(-0.000311912 0.000806771 0.000222458)
(-0.294794 0.299446 0.123341)
(-0.0736172 0.0540293 0.0295652)
(-0.0175963 0.0121847 0.00679955)
(-0.00405824 0.00282276 0.00151276)
(-0.00106 0.00050939 0.00038233)
(-0.0814681 0.337527 0.0333255)
(-0.0251897 0.0958778 0.00845706)
(-0.00648895 0.0239457 0.00183269)
(-0.00155837 0.00557366 0.000376971)
(-0.000410844 0.00100059 8.56282e-05)
(-0.26784 0.303343 0.171712)
(-0.0648175 0.051003 0.0400157)
(-0.0151207 0.0109626 0.00904137)
(-0.00341992 0.00246287 0.00198722)
(-0.000879558 0.000436335 0.000498303)
(-0.0790527 0.348334 0.046606)
(-0.0246314 0.0943352 0.0121855)
(-0.0063322 0.0226719 0.00278149)
(-0.0015168 0.00512118 0.000611107)
(-0.000396462 0.000901014 0.000146865)
(-0.307782 0.297579 0.0774139)
(-0.0779133 0.0560568 0.0190304)
(-0.0188561 0.0130056 0.00443916)
(-0.00439684 0.00307423 0.000997046)
(-0.00115846 0.00056206 0.000253359)
(-0.0830144 0.334684 0.0212314)
(-0.0249836 0.0969063 0.00550642)
(-0.00634002 0.0247188 0.00117082)
(-0.00150593 0.00586518 0.000228511)
(-0.000395906 0.00106816 4.92933e-05)
(-0.317398 0.296167 0.0283678)
(-0.0801277 0.0553595 0.00705327)
(-0.0194788 0.012901 0.00165726)
(-0.00456752 0.00307454 0.000374602)
(-0.00120967 0.000565848 9.56594e-05)
(-0.0828599 0.333045 0.0102616)
(-0.0250236 0.0963236 0.00240265)
(-0.00634732 0.0247429 0.000476561)
(-0.00139966 0.0059172 0.000129626)
(-0.000390187 0.0010836 1.78774e-05)
(-0.0106155 1.39545 -0.0477068)
(-0.256465 1.93879 0.0252712)
(-0.252228 1.73652 0.163916)
(-0.143497 1.31337 -0.139735)
(0.144786 0.735706 0.0384459)
(0.199335 0.771787 0.0410036)
(0.402065 1.17235 0.102627)
(0.528509 1.17429 0.12514)
(0.226845 0.789551 0.0844046)
(0.459898 0.842047 0.136463)
(0.0889494 1.25757 0.112578)
(0.279073 1.6719 0.170188)
(0.225852 1.85671 0.107235)
(0.374655 2.51665 0.14015)
(0.410505 0.94716 0.0512795)
(0.566053 1.03897 0.0748215)
(0.495535 0.766732 0.0560688)
(0.563424 0.746716 0.0652838)
(0.282993 0.531892 0.0392239)
(0.320077 0.546335 0.0406399)
(-0.752568 0.16704 0.114037)
(-0.56437 0.12025 0.0904216)
(-0.182582 0.0355759 -0.016062)
(-0.143753 0.0285875 -0.0385891)
(-0.112396 0.0338377 -0.0418698)