/*--------------------------------*- C++ -*----------------------------------*\
| =========                 |                                                 |
| \\      /  F ield         | OpenFOAM: The Open Source CFD Toolbox           |
|  \\    /   O peration     | Version:  2412                                  |
|   \\  /    A nd           | Website:  www.openfoam.com                      |
|    \\/     M anipulation  |                                                 |
\*---------------------------------------------------------------------------*/
FoamFile
{
    version     2.0;
    format      ascii;
    arch        "LSB;label=32;scalar=64";
    class       volScalarField;
    location    "2.7";
    object      gradTz;
}
// * * * * * * * * * * * * * * * * * * * * * * * * * * * * * * * * * * * * * //

dimensions      [0 -1 0 1 0 0 0];

internalField   nonuniform List<scalar> 
5712
(
7101.14
21587.2
5382.17
23629.2
2950.32
25052.8
5044.87
39746.7
8252.54
49924.3
8450.64
35380.3
9013.97
31425.8
8879.89
26980.1
4176.53
2252.64
12587.2
5916.42
3896.85
1783.36
13591.1
5460.78
5421.7
3977.3
16015.1
11661.1
3632.95
2841.24
16112.1
12150.9
8153.1
2956.65
6147.58
2215.05
2797.66
7538.75
38827.4
11871.1
11636.4
5386.33
47202.8
14808.3
10885.8
5128.65
25656.6
8556.15
13064.7
5959.65
20839.3
6631.17
4710.02
2557.42
8442.79
3403.94
4163.7
2646.23
8870.11
3333.65
5605.23
3564.95
5551.25
2317.3
9950.74
3584.43
3920.86
1444.93
12118.5
9080.3
7368.51
6586.04
13678.3
11973.5
7423.6
7918.47
6790.43
5794.24
8793.33
7489.83
5502.19
4719.94
3206.69
2748.24
5517.53
5503.13
3168.51
3169.44
5246.72
4090.71
3075.67
2156
5807.76
3264.39
5802.53
6432.77
7668.78
5846
8265.97
10966.1
4263.89
1819.3
3739.6
3877.75
2422.73
843.282
1716.16
1488.6
5319.68
10823.9
3903.23
12263.9
5750.49
10980.4
4657.23
13074.7
7625.04
10939
6478.69
13343.7
8604.45
10485.4
6515.89
6516.5
8037.34
6914.69
7501.66
10268.7
11937.1
17556.9
9331.02
7426.9
7010.45
8891.03
14249.1
13502.3
13076.6
15790.9
15894.9
13199.1
13228.5
15858.4
15778.7
12206.9
12680.4
15237.8
15390.2
8712.53
9248.28
8391.46
8856.7
10160.6
10143.5
11844.6
11505.4
14923.4
15082.1
7957.59
8721.22
8916.07
9468.34
9891.31
10622.8
11354.6
12407.8
14929
16173.6
9285.25
6331.2
7521.94
7616.07
10477.3
11982.6
8521.42
11325.6
6860.86
7008.57
8717.86
6247.74
3149.6
5500.37
1288.6
2045.88
5276.23
8404.4
2071.38
3149.83
2615.49
4796.22
970.748
1742.21
6499.83
5560.51
6624.41
4132.45
9141.75
6507.63
10376.4
6907.59
3011.83
3544.24
3764.17
2127.87
2338.39
2566.14
2613.21
1984.6
11335.7
7445.86
2426.1
12280.2
7708.14
2661.2
11176.1
7285.71
2467.23
12281.8
7690.84
2599.99
10698.3
6866.16
2297.95
12096
7581.29
2603.31
6583.56
3731.56
959.9
7715.78
5261.88
1707.69
8800.59
6201.56
2089.64
9696.48
6295.52
2057.81
11735.9
7351.99
2599.28
7293.8
3977.67
1295.66
6922.81
4460.65
1540.31
7727.59
5078.2
1727.62
9170.02
5873.88
1999.02
11125.2
6459.31
2229.39
-493.162
988.507
442.72
2631.22
1741.84
1771.98
4501.09
3959.23
597.739
975.493
633.51
1023.5
334.735
943.252
622.634
1383.99
1891.05
1131.82
3821.42
2698.79
1753.99
2884.64
2916.82
851.415
5789.25
1852.26
-4037.71
-548.815
715.056
739.756
66.806
234.46
10353.6
4640.55
2753.33
1665.91
10205.3
4713.3
3002.05
1967.19
9904.56
5188.24
4064.31
2941.04
3103.27
2064.34
1768.39
1616.03
13079.3
11448
5745.01
7343.1
14524.8
13572
7071.92
8490.25
5286.56
6381.88
11200
9277.6
3665.84
4797.28
2128.72
2800.2
4735.1
5538.5
2748.98
3183.48
3025.34
4215.65
1717.98
2570.25
4762.37
3466.6
5427.65
3761.97
8158.01
5012.56
7297.53
4956.49
2850.1
2368.22
3768.06
2582.06
1621.5
1498.42
2383.57
1587.5
12170.8
8335.96
6109.78
6514.95
12072.2
8294.01
6056.26
6397.48
12216.9
7936.86
6192.55
5951.86
13185.9
12627.5
12409.3
9649.51
5736.19
7706.32
9393.82
10059.1
9566.72
6924.51
10928.9
9895.78
8302.53
6822.29
4611.34
7344.78
7465.11
7491.42
9271.87
7277.82
7185.49
7304.72
9044.88
6878.49
6710.06
6917.05
8616.09
8669.85
8202.18
8193.64
7086.97
6256.93
6327.72
6168.17
6522.39
6039.07
8089.12
6347.11
7199.89
5387.49
6149.67
4897.23
5635.53
4921.85
5973.02
4626.29
7423.67
4740.95
3805.24
3241.36
1708.92
7193.95
5473.31
5811.84
3652.93
2530.81
1461.94
3748.65
3399.49
4232.23
1827.09
1979.29
1087.9
5451.42
3103.46
2249.43
1548.05
3484.16
1501.51
1777.8
897.008
2220.18
2682.78
2813.42
4782.39
3345.49
4117.91
3423.34
6241.55
2613.96
1949.32
2045.94
3403.03
1200.95
500.189
483.547
889.482
5950.27
2728.47
783.251
6484.49
1726.81
454.845
5750.86
2818.41
877.182
6417.49
1770.27
488.026
5178.34
2551.99
656.398
6078.81
1631.26
367.26
5533.75
3008.95
786.56
4747.32
2535.57
702.429
4755.2
2378.26
674.866
4787.64
2257.52
519.513
5734.25
1429.98
241.748
6151.74
3223.51
992.801
5394.38
2936.93
965.69
4968.4
2599.56
852.065
4885.25
1989.56
534.324
5925.08
1459.68
460.965
1822.55
702.618
329.479
3.97442
737.989
300.836
153.714
28.4156
1887.13
754.345
392.955
70.6152
895.327
405.653
258.123
120.873
2171.45
904.211
515.169
157.361
1547.71
804.505
462.912
218.154
1146.29
723.972
367.037
124.704
1198.74
828.01
498.151
283.066
1826.06
872.949
455.617
46.5124
1748.8
806.61
469.007
-45.4669
2297.92
969.37
558.201
120.509
2070.41
856.752
512.665
-76.4298
1388.16
765.822
406.875
54.153
1361.31
715.346
438.408
71.1873
1034.49
669.392
430.799
254.079
947.991
600.36
417.929
243.632
2346.02
857.769
398.72
-95.9835
2477.91
838.321
431.912
-282.829
2341.54
870.89
432.949
-62.0555
2379.78
809.636
430.777
-262.966
2362.19
897.096
500.106
-8.86052
2133.64
734.017
427.878
-192.86
2194.11
865.42
553.836
138.563
2350.9
831.803
553.355
-191.334
1717.66
674.012
437.426
41.1487
2070.07
617.17
317.376
-264.115
818.756
219.516
96.6802
-64.5546
2038.94
625.844
329.113
-236.874
832.123
231.099
108.163
-50.0541
1907.16
609.77
345.564
-186.228
797.512
233.264
122.441
-28.8923
1603.49
523.533
333.624
-130.404
701.635
206.966
131.877
-1.48288
1405.41
490.213
329.586
-54.4411
628.432
209.757
151.159
38.5303
1109.82
478.935
285.32
16.4722
574.951
293.621
184.595
100.343
1184.98
434.018
280.058
-18.6522
570.035
234.837
162.913
72.3033
984.273
515.712
314.477
78.297
585.143
349.931
219.269
138.914
764.413
499.696
341.117
208.274
542.072
379.181
261.039
197.261
14.9152
12.8656
8.72502
5.84105
4.48698
8.88595
6.68623
4.44701
2.98924
2.31325
38.2575
27.194
17.3649
11.4027
8.69448
41.5356
26.8334
16.5211
10.7132
8.13863
92.996
62.3044
38.8813
25.4378
19.4056
186.546
115.617
70.8958
46.0398
34.9967
192.435
122.086
75.7818
49.4993
37.7601
209.914
128.885
79.0592
51.4458
39.2447
124.277
83.5174
52.611
34.5226
26.2591
98.2088
65.69
41.4308
27.2746
20.7806
128.771
83.3019
51.613
33.7931
25.7499
100.336
58.9556
35.8707
23.4197
17.7752
139.806
97.9182
62.3288
41.0561
31.3576
135.916
90.6039
57.0375
37.494
28.6087
187.16
117.719
72.5515
47.2699
36.0475
179.799
113.531
70.0725
45.6679
34.7805
5.25417
10.1308
7.23417
4.88753
3.7681
-1.01022
3.77561
2.84612
1.96384
1.5393
19.1589
18.0052
11.9634
7.9575
6.12514
2.00694
5.59161
3.94575
2.67711
2.09903
33.4832
27.8774
18.0354
11.9767
9.2518
19.5539
14.6435
9.06076
5.87356
4.53663
107.609
68.7569
42.146
27.6517
21.2082
53.6214
34.176
20.7221
13.5349
10.4064
138.196
75.8426
44.9491
29.0649
22.0739
2308.23
4003.27
2170.06
3880.68
2011.22
3605.37
1952.36
3460.89
2145.17
3977.9
1242.32
1854.19
1748.05
2790.34
811.293
1103.22
305.106
434.156
6831.81
1641.87
375.736
83.0428
20.7414
1817.04
480.972
128.6
28.7424
6.38701
6790.27
1608.98
365.446
80.1688
19.9299
1876.63
545.736
133.913
30.9816
7.7391
6571.03
1530
343.666
74.7947
18.4864
1821.77
528.284
128.652
29.4626
7.28972
6189.87
1412.6
314.315
68.1311
16.8226
1755.09
497.65
118.758
26.7575
6.52634
5454.17
1225.3
272.284
59.2342
14.7215
1640.04
443.712
103.463
23.0162
5.56146
3083.53
739.13
169.989
37.8189
9.55824
833.137
211.426
45.8172
9.42428
2.14071
4292.81
1000.39
226.034
49.6805
12.4576
1165.15
304.637
69.5372
15.2777
3.67161
1935.35
475.759
110.979
24.9262
6.33397
530.784
137.661
29.2705
5.71277
1.23233
709.195
176.332
41.4314
9.36504
2.39149
256.54
60.0662
11.914
3.24066
0.446935
-1192.67
631.78
4097.9
-3493.39
961.146
1025.09
2565.67
3128.5
2110.11
3411.58
2814.44
4254.71
2680.87
3503.76
1281.99
1870.54
1401.72
1632.1
980.598
1016
2850.93
2260.54
-401.551
-964.728
-1046.75
-1398.09
-754.359
11794.6
3003.19
3972.62
3238.37
318.663
-89.0465
3266.69
-1058.33
-492.392
-882.409
-309.021
5826.61
2972.08
1291.52
718.163
3267.66
1472.46
187.984
348.63
-1183.78
-1182.26
823.671
695.219
9239.34
4577.11
4448.14
2568.15
3431.05
3121.48
-77.1428
-1160.08
245.861
2018.72
1811.14
1623.67
1557.21
1230.51
1826.2
1498.4
1238.07
933.41
378.075
-360.127
-299.565
-219.84
-131.5
-43.3701
-862.261
-721.426
-541.545
-335.252
-113.442
-935.474
-782.167
-585.985
-361.781
-122.241
-1250.84
-1047.55
-786.565
-486.742
-164.686
-667.347
-550.292
-405.15
-245.977
-82.3502
8902.73
8362.33
7354.59
7140.8
6930.59
2871.56
2419.96
2277.43
1986.1
938.31
3288.86
2684.33
2322.94
1905.71
917.191
2542.44
2043.25
1737.63
1344.04
524.838
278.63
203.766
228.519
194.114
106.351
-3.38154
69.0625
108.515
100.394
40.908
2739.25
2225.56
1767.85
1254.37
486.829
-676.206
-364.104
-186.035
-84.5836
-27.1478
-395.538
-283.498
-172.536
-82.7534
-22.2989
-644.62
-420.521
-248.865
-127.212
-39.3572
-287.024
-243.384
-177.453
-103.392
-32.8221
4088.85
4112.01
3680.63
3762.43
3934.76
2485.64
1992.56
1708.44
1348.23
550.196
1202.84
1074.07
901.009
637.704
237.006
640.546
551.095
452.829
317.483
117.165
2753.1
2219.05
1718.36
1163.45
429.339
1330.74
1132.35
897.522
592.524
196.79
163.515
140.892
122.109
91.0845
33.8536
321.032
284.188
235.788
162.745
58.0084
-1028.3
-831.932
-603.472
-363.118
-120.961
-1042.03
-855.658
-627.394
-379.45
-126.611
736.471
629.73
501.439
336.659
121.114
620.69
530.069
422.547
283.828
101.634
6177.88
5083.8
4618.99
4617.59
3997.44
3611.92
2900.13
2372.61
1797.43
764.998
3579.62
3089.83
2668.24
2257.26
988.412
2065.92
1727.91
1415.59
1052.75
483.558
2960.29
2433.61
1886.21
1252.56
445.562
2636.43
1922.86
1616.86
1226.76
231.697
-61.6372
-37.6199
-5.82695
13.6309
7.40791
-1030.24
-853.17
-630.419
-383.458
-128.369
238.057
223.314
203.224
152.096
54.2025
-27935.7
-43787.1
-21122.3
-37232.3
-22525
-52434.4
-29648.8
-63737.2
-15778.9
-10547.7
-17568.6
-9414.45
-14756.4
-9676.86
-17732.6
-8393.77
-22926.6
-16079.4
-31834.8
-22913.4
-18033.3
-13169.4
-27425.4
-20507.7
-13868.8
-14044.7
-9682.59
-9287.58
-11728
-12457.6
-41973.6
-12904.8
-13374.2
-6365.98
-49448.7
-15694.8
-12150.4
-5840.09
-29308.7
-9663.82
-14866.4
-6940.84
-24575.5
-7505.67
-10963.4
-4658.25
-15060.1
-5658.29
-9533.86
-4256.1
-13937.8
-4966.68
-9928.34
-4785.76
-8511.58
-3246.15
-12082.1
-4289.06
-4739.9
-1754.21
-9898.75
-7097.61
-8085.88
-6006.84
-8620.22
-7342.47
-7209.36
-6316.15
-8064.48
-5870.62
-9296.94
-7272.25
-6080.11
-4450.92
-3618.78
-2562.23
-5513.46
-4634.77
-3162.94
-2530.64
-6125.12
-4192.32
-3682.81
-2245.55
-7190.26
-3803.91
-6118.9
-6598.56
-9319.68
-6537.89
-8669.89
-11201
-5136.85
-2155.41
-3962.68
-3988.75
-3004.71
-1073.35
-1889.54
-1570.9
-9600.74
-12223.9
-5483.65
-13759.4
-9512.89
-11928.3
-5987.68
-14233.7
-10532.3
-11529.8
-7443.4
-13950.5
-5873.67
-3615.05
-7525.3
-8731.93
-8965.65
-5434.35
-7499.25
-11228.4
-12813.7
-18127.3
-4859.55
-5515.99
-6714.34
-9147.65
-14513.7
-12919.9
-10649
-15993.3
-13266.4
-12551.9
-10939.2
-16011.5
-13374.9
-11481.2
-10170.2
-15140
-13292.8
-8037.51
-7551.84
-7945.33
-7183.7
-9103.66
-8087.82
-10440.5
-9229.59
-14546.8
-13348.5
-6646.75
-7297.1
-7347.11
-7157.13
-8379.34
-8125.45
-10145.2
-10049.4
-14526.7
-14267.3
-7818.92
-5327.1
-6552.6
-6717.01
-8236.26
-10410.6
-6929.26
-9856.1
-6396.69
-6479.66
-7939
-5601.25
-2484.76
-4810.24
-702.117
-1466.43
-4100.07
-7312.66
-1086.94
-2254.22
-2306.8
-4395.89
-678.293
-1397.09
-6341.37
-5303.6
-6608.78
-4043.04
-8799.08
-6110.25
-10301.2
-6658.87
-2907.7
-3354.83
-3740.87
-2060.73
-2216.85
-2384.79
-2567.77
-1903.32
-7767.28
-3002.24
-8253.83
-2872.61
-7955.89
-2979.53
-8662.27
-3191.58
-7609.17
-2804.36
-9385.33
-3710.96
-4237.73
-992.29
-5009.08
-1794.95
-5773.05
-2251.95
-6981.31
-2648.32
-9352.24
-3626.85
-5184.73
-830.681
-4399.43
-1468.89
-5040.01
-1854.55
-6552.11
-2429.7
-8469.35
-2766.06
-6075.73
-5931.02
-3853.72
-3765.46
-9607.08
-7639.36
-7384.07
-5858.13
-5348.64
-5008.25
-2041.18
-1697.51
-5001.15
-4897.71
-1732.95
-1666.59
-2370.39
-5672.61
-3623.44
-6851.13
-4732.94
-1933.36
-2985.89
-612.181
-6398.91
-2147.52
4075.47
1339.16
-134.282
80.0431
1127.11
1330.62
-2699.71
-1550.17
-1060.84
-457.502
-2682.55
-1699.07
-1135.77
-428.44
-2944.89
-2041.5
-1207.85
-258.216
-952.307
368.529
421.08
1083.35
-5017.48
-4958.24
-3664.41
-4211.44
-7140.06
-6906.5
-5795.1
-5827.21
-2520.55
-3257.56
-4128.24
-3986.6
-2455.9
-2818.41
-1137.03
-1200.17
-4095.63
-4005.39
-2259.04
-2014.45
-1259.8
-2023.07
-240.731
-690.558
-1659.79
-1068.45
-2670.27
-1668.87
-2841.73
-2231.84
-3341.55
-2574.91
-654.42
-222.523
-1611.57
-681.979
272.627
561.895
-413.399
247.11
-3113.13
-3262.18
-2731.04
-4408.54
-3202.87
-3411.14
-2880.43
-4518.45
-3777.22
-3530.83
-3269.63
-4425.1
-2164.28
-2539.14
-2842.23
-2875.12
-2793.22
-4285.75
-3497.35
-3438.42
-4368.23
-4887.74
-4373.85
-3404.63
-3001.89
-2913.53
-2414.53
-4417.45
-5657.2
-7655.91
-13237.9
-4209.64
-4799.27
-7201.36
-12319.2
-4233.71
-5187.61
-6613.35
-11035.1
-7430.9
-6435.12
-6072.56
-5372.13
-4415.36
-4918.08
-4814.41
-5896.19
-5696.73
-9891.67
-5037.49
-5870.57
-3750.61
-4862.97
-3227.82
-4518
-3601.37
-5357.94
-3514.64
-7931.43
-2317.38
-2477.33
-1229.28
-260.749
-4623.25
-4094.44
-3837.6
-2200.78
-657.09
-124.145
-1697.97
-2240.33
-2515.88
-597.956
-456.299
19.9473
-3861.06
-1880.95
-914.548
-475.425
-1816.48
-369.737
-209.179
160.626
-687.439
-1698.4
-1700.38
-4340.6
-1795.7
-3377.19
-2495.17
-6272.02
-1152.3
-1019.03
-748.865
-2713.46
289.581
463.99
873.091
-66.8135
-4770.25
-1566.5
-9761.61
-1403.53
-4111.25
-1688.87
-9227.22
-1393.39
-3662.18
-1090.21
-7704.59
-760.891
-3485.16
-753.315
-3126.35
-744.393
-3652.85
-1102.61
-3596.73
-608.825
-6910.34
-647.129
-4278.6
-536.929
-3886.33
-588.799
-4018.56
-802.337
-4256.93
-456.521
-6820.72
-712.435
-720.246
-206.665
-57.0824
193.324
-224.142
-53.0682
-17.1967
56.5305
-693.361
-166.327
-46.1379
191.458
-95.4302
37.0437
16.5976
69.0161
-750.294
-133.359
-10.4719
279.352
190.572
290.999
343.172
456.027
729.425
556.666
562.603
573.67
1061.33
774.31
629.63
466.576
-310.138
100.72
249.778
525.286
-313.106
146.684
199.059
585.039
-869.764
-128.341
32.0275
443.755
-697.131
-12.4248
49.8399
591.775
201.485
330.759
382.28
542.334
86.4844
306.155
309.092
514.225
628.492
520.877
452.13
402.224
506.864
458.557
378.761
382.794
-1187.84
-351.495
-139.092
334.174
-1629.79
-434.287
-269.287
539.075
-1159.35
-318.812
-138.579
330.994
-1579.77
-410.445
-263.341
519.314
-1154.12
-279.464
-159.887
319.044
-1424.5
-355.413
-255.249
454.782
-794.61
-94.8676
-76.8304
353.268
-1345.95
-269.482
-261.296
572.365
-595.873
-22.1444
14.9909
509.086
-1615.57
-338.8
-213.267
466.578
-708.953
-124.83
-52.2209
131.171
-1451.77
-287.25
-194.172
448.303
-658.272
-108.897
-48.4475
126.325
-1178.1
-194.948
-173.592
397.732
-548.067
-74.4938
-40.7585
119.979
-916.032
-124.752
-148.23
341.439
-461.118
-55.2373
-40.4848
106.942
-617.899
-34.5029
-67.3016
327.979
-257.283
6.49089
-6.79045
110.013
-233.785
123.675
158.571
400.633
150.335
200.974
171.668
216.311
-527.707
-14.9982
16.7034
341.068
-32.9528
98.3612
72.497
152.576
112.579
284.72
271.588
418.424
279.436
292.045
248.82
257.771
440.273
412.693
324.927
334.362
397.64
354.154
273.488
245.238
57.7824
20.8004
9.89833
5.87933
4.37573
24.8334
9.6343
4.72083
2.80585
2.07373
81.003
34.6249
18.3827
11.4082
8.61905
59.9022
29.6885
16.946
10.7879
8.20937
147.517
69.8769
39.1303
24.6495
18.6737
219.96
121.061
71.0918
45.5365
34.7068
229.059
129.054
75.9938
48.5993
36.9472
223.428
131.331
79.0356
50.991
38.8294
187.724
94.1165
53.4797
33.8525
25.7869
153.056
74.0895
41.7429
26.3023
20.0064
182.889
88.9909
50.5039
31.8716
24.1969
116.545
59.5265
34.263
21.6729
16.5268
212.942
110.777
63.5841
40.315
30.6263
189.348
99.7934
57.6678
36.6449
27.8993
208.986
121.281
72.7017
46.8328
35.648
202.363
117.551
70.3583
45.2832
34.4856
62.3555
18.7282
8.3903
4.89137
3.6164
28.9762
7.36853
3.10283
1.74809
1.26169
71.8056
25.603
12.7168
7.70083
5.74194
31.1845
8.98923
4.13716
2.42488
1.76266
88.9628
34.4567
17.9951
11.0277
8.21213
41.2996
16.8554
9.24094
5.82554
4.34627
149.721
69.7624
39.3356
24.6235
18.5241
71.846
33.5757
19.1456
12.0377
9.02754
129.026
71.4225
42.1593
26.8986
20.4772
-2749.89
-4150.07
-2624.17
-4060.79
-2415.35
-3775.6
-2279.26
-3593.1
-2290.35
-3922.88
-1290.1
-1846.71
-1820.8
-2764.99
-822.037
-1084.89
-289.22
-402.674
-7642.7
-1811.08
-410.147
-89.8907
-22.2824
-2013.81
-530.312
-140.801
-31.2158
-6.87669
-7502.26
-1757.96
-395.977
-86.2731
-21.3105
-2088.66
-602.626
-146.527
-33.6237
-8.33729
-7095.4
-1642.52
-367.25
-79.5919
-19.5862
-2019.99
-579.549
-139.915
-31.806
-7.81922
-6509.48
-1484.48
-330.027
-71.4331
-17.6006
-1910.75
-537.554
-127.58
-28.6023
-6.94631
-5601.3
-1262.18
-280.941
-61.1458
-15.1902
-1731.96
-468.831
-109.237
-24.2552
-5.85012
-3103.27
-746.004
-172.023
-38.3474
-9.70567
-851.983
-218.404
-47.749
-9.89126
-2.26217
-4346.28
-1016.38
-230.24
-50.6839
-12.7193
-1204.7
-317.166
-72.6527
-15.9797
-3.84293
-1940.57
-478.472
-111.943
-25.2073
-6.41927
-535.536
-140.805
-30.3727
-6.02259
-1.32273
-708.265
-177.229
-41.9037
-9.52708
-2.44592
-253.029
-60.9873
-12.5117
-3.45265
-0.517682
765.184
-1425.73
-5236.5
1851.19
-6492.67
-2843.76
-6360.56
-2872.55
-10717.3
-5826.48
-12563.6
-6861.67
-128.915
-524.053
-812.513
-936.524
-823.684
-449.829
-204.96
-793.672
-1203.87
-1329.04
-1081.64
-407.506
-102.006
-99.9712
-382.319
-359.014
-492.082
-473.708
-347.86
-355.027
-227.706
-262.523
-388.965
-292.252
475.876
1770.93
3445.51
2744.97
2493.91
1208.89
754.259
2270.52
3761.46
4154.42
3534.68
1628.85
-116.294
-98.3475
-74.5597
-46.4796
-15.7857
-473.4
-401.044
-304.608
-190.179
-64.6443
-733.908
-621.665
-472.138
-294.767
-100.196
-845.573
-715.912
-543.469
-339.187
-115.275
-743.255
-628.786
-476.887
-297.381
-101.015
-406.179
-343.456
-259.851
-161.441
-54.6794
-184.817
-156.223
-118.39
-73.7858
-25.0574
-716.673
-606.867
-460.77
-287.618
-97.7579
-1086.87
-920.172
-698.586
-436.073
-148.224
-1199.19
-1014.69
-770.022
-480.579
-163.347
-975.235
-824.554
-625.365
-390.183
-132.612
-367.94
-311.313
-235.938
-146.933
-49.8566
-92.074
-77.9233
-59.119
-36.874
-12.5264
-90.2886
-76.4635
-58.0513
-36.2281
-12.3109
-345.465
-292.766
-222.437
-138.905
-47.2187
-324.466
-275.024
-208.997
-130.532
-44.376
-444.592
-376.716
-286.18
-178.692
-60.7404
-428.006
-362.671
-275.519
-172.042
-58.4818
-314.275
-266.265
-202.219
-126.221
-42.8921
-320.617
-271.517
-206.145
-128.66
-43.7224
-205.531
-173.847
-131.696
-81.974
-27.8032
-236.643
-199.947
-151.441
-94.3286
-32.0191
-350.091
-294.982
-222.463
-137.912
-46.6628
-262.843
-221.39
-167.055
-103.694
-35.1255
424.449
356.629
271.507
171.48
58.9183
1573.82
1317.74
1001.47
632.853
217.693
3029.83
2521.91
1926.79
1236.21
431.197
2402.08
2022.31
1566.84
1027.03
377.803
2195.58
1852.2
1436.72
936.208
328.945
1095.48
940.102
733.049
471.897
161.184
673.61
565.491
428.609
268.912
91.9353
2022.77
1695.38
1285.58
808.519
277.095
3334.25
2787.33
2118.53
1341.49
462.94
3669.18
3067.48
2340.97
1494.31
521.304
3118.69
2608.98
1998
1281.65
447.329
1450.71
1224.51
944.136
607.274
211.641
301.719
692.549
972.196
1083.65
956.645
590.98
442.111
1022.51
1413.62
1505.6
1212.25
493.588
233.977
206.084
504.599
458.058
593.017
556.124
413.973
406.328
276.983
249.062
514.733
320.42
-314.157
-1538.61
-3027.1
-2194.52
-1812
-445.922
-690.831
-2166.67
-3518.6
-3718.31
-2893.7
-854.911
272.995
231.732
176.374
110.302
37.527
626.3
531.286
404.099
252.587
85.9139
878.965
745.403
566.807
354.225
120.474
979.494
830.441
631.33
394.494
134.162
864.672
733.032
557.195
348.11
118.372
535.372
454.685
345.793
215.864
73.3287
399.963
339.452
258.329
161.546
54.961
924.428
783.944
596.129
372.571
126.72
1277.52
1082.93
823.208
514.398
174.947
1359.99
1152.3
875.672
547.126
186.08
1094.5
926.94
704.234
440.001
149.657
446.613
378.922
288.071
179.891
61.1392
211.714
179.723
136.793
85.5469
29.1041
186.473
158.289
120.471
75.3357
25.6291
456.389
387.215
294.557
184.127
62.6277
414.308
351.52
267.405
167.155
56.8547
536.254
454.877
345.955
216.222
73.5372
502.875
426.54
324.385
202.733
68.949
374.426
317.675
241.633
151.018
51.357
367.346
311.515
236.859
148.008
50.3323
250.749
212.901
161.971
101.195
34.3983
225.124
190.855
145.063
90.6142
30.8071
465.698
395.053
300.233
187.402
63.67
289.563
245.379
186.378
116.337
39.5364
-276.656
-229.579
-173.504
-109.516
-37.7092
-1362.15
-1136.48
-862.303
-545.294
-187.81
-2646.62
-2191.55
-1671.67
-1075.24
-376.172
-1885.28
-1564.93
-1203.3
-791.413
-297.081
-1548.02
-1273.43
-970.495
-627.89
-219.776
-367.943
-286.305
-202.637
-118
-35.2127
-616.198
-516.747
-391.521
-245.742
-84.0585
-1929.45
-1616.86
-1226.47
-771.992
-264.764
-3113.56
-2598.98
-1974.53
-1251.32
-432.286
-3266.9
-2718.07
-2068.56
-1320.56
-461.696
-2522.29
-2085.92
-1585.53
-1015.25
-354.835
-727.581
-587.144
-438.611
-278.804
-97.1212
-1918.26
-1393.88
797.36
1300.41
1366.45
1893.3
1240.76
-9904.89
-1517.66
-2991.38
-1317.74
694.161
-4050.38
1013.58
2433.85
866.876
-4862.35
-1958.44
-497.623
-238.175
-2913.81
-710.173
240.877
204.768
1923.61
1877.69
-448.8
-246.227
-8262.84
-3808.13
-3508.96
-1787.1
-2902.85
-2151.56
738.134
1903.39
374.635
-1035.03
-878.391
-805.528
-946.503
-975.847
-975.081
-715.85
-585.574
-482.251
-212.227
725.723
617.849
468.619
290.55
98.1767
1171.88
990.561
751.649
469.486
159.673
1232.16
1041.84
790.067
492.862
167.534
1706.48
1442.52
1094.15
682.942
232.224
1119.74
947.262
717.991
447.427
152.085
-7232.57
-7069.26
-6529.96
-6945.59
-7576.46
-1063.97
-699.92
-841.772
-1002.43
-521.304
-2285.44
-1759.55
-1572.23
-1422.42
-755.576
-895.683
-636.131
-635.053
-600.217
-214.666
615.569
508.097
373.926
226.003
76.1557
-3376.17
-2730.38
-2159.29
-1526.27
-589.82
906.922
759.177
568.419
350.028
117.653
2119.39
1740.2
1313.56
837.108
293.712
782.541
660.822
497.601
306.796
102.874
-3174.74
-3301.34
-3066.69
-3467.97
-4100.74
-1461.43
-1031.4
-913.681
-819.489
-362.521
-399.56
-322.264
-278.772
-222.045
-89.1279
-176.737
-130.267
-112.87
-95.2388
-39.577
-2444.74
-1965.56
-1537.09
-1062.64
-399.797
-596.18
-465.291
-355.562
-233.905
-68.9027
237.553
213.21
158.263
89.8918
28.948
200.62
179.704
133.952
77.3627
25.6216
1720.4
1443.47
1089.98
680.001
231.683
1689.41
1424.7
1077.3
670.441
227.705
-377.546
-305.835
-240.361
-165.812
-61.4267
-196.431
-152.229
-121.517
-88.768
-33.9003
-5263.47
-4278.8
-3987.85
-4262.01
-3996.77
-2884.08
-2249.09
-1850.36
-1457.99
-649.008
-2634.65
-2242.66
-1968.04
-1794.82
-808.73
-1323.75
-1062.49
-881.056
-705.584
-368.951
-2465.87
-1998.04
-1542.63
-1031.98
-368.376
-1704.83
-1053.85
-908.617
-760.577
-45.8952
682.448
587.985
443.381
269.916
91.2127
1716.42
1450.64
1098.25
683.5
232.045
359.208
318.582
236.325
137.416
47.7918
-95.7512
-197.553
-232.152
-279.239
-406.868
-568.781
-19602.4
-16130.3
-15202
-18205.6
-13804.2
-10570.4
-12725.7
-9670.99
-17220.9
-13680.7
-14470.8
-12306.4
-12433.8
-9437.12
-11769.1
-16518.2
-14473
-12904.8
-14653
-12277.9
-9522.49
-10968.7
-8245.16
-15954.8
-13443.6
-14370.2
-12582.9
-12424.7
-10374.4
-12043.8
-12884.3
-11805.9
-10366.5
-11279.9
-10280.7
-8501.04
-9228.25
-7921.5
-13279.8
-12128
-12605.1
-11697.5
-11502.6
-9976.53
-11184.2
-8864.67
-8504.16
-7389.66
-7680.37
-7878.27
-7384.27
-7058.55
-7055.84
-9588.9
-10616.3
-9282.44
-10177.4
-8860.49
-8074.52
-9643.4
-5712.03
-5625.56
-4761.3
-4834.78
-5556.87
-5630.71
-4709.07
-4881.81
-6720.8
-8193.46
-6605.4
-7628.11
-6496.71
-6297.47
-7249.38
-2088.76
-2076.11
-1714.27
-1729.64
-2092.3
-2196.56
-1690.84
-1685.27
-2755.44
-3446.28
-2690.14
-3031.41
-2670.04
-2643.82
-2884.19
-7439.74
-7498.02
-10411.9
-11463.3
-7530.48
-7145
-9697.14
-8090.73
-7134.81
-4687.36
-7276.5
-4609.3
-7381.64
-7399.76
-4706.93
-7087.44
-6941.19
-9612.87
-10377.6
-6717.54
-5934.23
-8756.54
-7199.36
-5060.55
-2021.57
-5021.66
-2258.58
-4299.4
-4090.53
-2609.02
-5975.06
-5883.57
-8113.32
-8547.12
-5930.97
-5492.47
-7617.77
-6860.11
-2719.65
-1961.22
-2705.27
-2577.08
-2660.45
-2915.92
-3277.75
-4417.88
-4446.79
-5969.06
-6098.18
-4597.5
-4562.25
-5885.47
-5809.12
-2805.95
-1830.63
-3033.87
-2821.47
-3338.79
-3902.31
-3792.81
-2747.18
-2773.58
-3808.01
-3838.33
-2726.65
-2752.72
-3791.7
-3756.15
-1569.4
-1356.21
-1786.72
-2236.24
-2292.9
-2797.02
-2987.77
-925.444
-937.88
-1347.26
-1353.15
-937.921
-991.163
-1335.63
-1299.25
-273.833
-558.211
-450.072
-1006.2
-783.826
-1015.01
-1247.01
7017.64
21141.7
5372.48
23641.2
2946.23
25057.5
5042.8
39745.2
8249.07
49919.9
8443.11
35377.8
9000.85
31422.3
8761.23
26348.5
4174.69
2252.26
12588.4
5916.67
3895.58
1782.95
13590.1
5460.41
5355.23
3928.11
15715.6
11443.5
3624.32
2837.48
16126.1
12167.5
8158.14
2955.03
6148.72
2214.84
2797.53
7545.96
38830.2
11871.4
11637.1
5386.2
47202.3
14807.8
10885.6
5128.31
25663.2
8557.38
13066.2
5959.98
20848.7
6632.76
4672.93
2524.74
8272.79
3329.84
4166.96
2646.15
8885.26
3337.14
5607.36
3565.3
5556.13
2318.81
9956.28
3586.26
3922.22
1445.43
12118.4
9080.29
7368.58
6586.06
13678.4
11973.5
7423.47
7918.42
6790.89
5794.37
8793.32
7489.89
5502.37
4719.97
3206.53
2748.14
5517.43
5503.08
3168.32
3169.35
5247.29
4090.84
3075.69
2155.95
5808.81
3264.83
5802.75
6432.87
7669.41
5846.18
8266.14
10966.1
4264.88
1819.7
3739.8
3877.86
2422.96
843.397
1716.16
1488.63
5326.98
10848.6
3887.34
12286.6
5755.39
10972.9
4659.18
13067.2
7625.66
10936.2
6478.44
13341
8604.46
10485.7
6515.95
6517.28
8037.16
6914.72
7501.52
10268.2
11936.2
17555.5
9331.11
7426.88
7010.42
8891.04
14248.9
13523.1
13085.5
15816.8
15874.7
13193
13225.6
15852.1
15781.1
12204.3
12678.8
15235.7
15390.3
8712.46
9248.11
8391.17
8856.37
10159.9
10142.9
11843
11504.4
14922.4
15081.9
7957.5
8721.06
8915.82
9468.06
9890.89
10622.4
11354
12407.3
14928.8
16173.4
9285.11
6331.12
7521.87
7616.01
10477.2
11982.5
8521.37
11325.5
6860.83
7008.56
8717.71
6247.68
3149.59
5500.34
1288.56
2045.85
5276.2
8404.34
2071.35
3149.81
2615.5
4796.22
970.717
1742.19
6499.85
5560.52
6624.43
4132.45
9141.66
6507.62
10376.4
6907.57
3011.86
3544.25
3764.2
2127.87
2338.38
2566.13
2613.21
1984.59
11332.8
7437.74
2427.67
12266.4
7695.66
2655.94
11172.8
7283.41
2465.95
12281.9
7689.79
2599.11
10696.9
6865.12
2297.49
12095.9
7580.74
2602.94
6583.38
3731.42
959.847
7715.46
5261.64
1707.6
8800.09
6201.18
2089.49
9695.83
6295.02
2057.62
11735.7
7351.63
2599.07
7293.64
3977.54
1295.61
6922.56
4460.45
1540.22
7727.27
5077.94
1727.51
9169.69
5873.61
1998.9
11125
6459.01
2229.23
-495.057
987.86
438.072
2630.31
1740.46
1771.38
4498.3
3958.43
587.747
971.762
621.589
1015.65
337.209
945.299
625.323
1385.78
1893.97
1133.35
3821.8
2699.02
1755.78
2887.68
2916.39
851.611
5788.83
1852.08
-4036.48
-547.56
715.347
740.465
68.8726
236.027
10338.1
4635.63
2747.27
1659.88
10204
4714.95
3001.78
1969.08
9903.75
5188.57
4064.88
2942.29
3104.36
2065.42
1769.71
1616.94
13079.4
11448.1
5744.82
7343.06
14525
13572.2
7071.68
8490.18
5286.61
6381.86
11199.8
9277.37
3665.79
4797.31
2128.94
2800.35
4734.92
5538.45
2748.95
3183.5
3025.6
4215.77
1718.45
2570.5
4762.5
3466.92
5427.62
3761.98
8157.49
5012.3
7297.17
4956.15
2850.55
2368.69
3768.22
2582.24
1622.12
1498.92
2383.86
1587.77
12171.7
8351.3
6114.94
6525.65
12070.1
8290.03
6054.78
6390.39
12214.9
7934.59
6191.09
5948.76
13186.1
12627.9
12408.8
9648.35
5735.28
7706.42
9393.75
10058.4
9565.16
6922.7
10929
9895.77
8302.19
6821.72
4610.76
7356.2
7470.53
7497.44
9265.91
7274.46
7181.86
7297.36
9041.32
6876.57
6708.63
6913.97
8614.63
8669.86
8202.08
8193.51
7086.79
6256.5
6327.35
6167.27
6521.7
6037.63
8088.43
6347.11
7199.79
5387.45
6149.55
4897.03
5635.33
4921.47
5972.74
4625.63
7423.33
4740.98
3805.22
3241.36
1708.91
7194.01
5473.29
5811.83
3652.9
2530.76
1461.9
3748.54
3399.43
4232.24
1827.09
1979.35
1087.93
5451.41
3103.44
2249.44
1548.06
3484.19
1501.52
1777.89
897.053
2220.11
2682.73
2813.36
4782.36
3345.28
4117.8
3423.08
6241.45
2614
1949.34
2046
3403.07
1201.06
500.246
483.681
889.56
5949.59
2727.26
784.604
6484.46
1730.27
455.557
5748.3
2820.01
877.98
6416.17
1772.05
488.895
5177.58
2552.42
656.673
6078.28
1631.58
367.479
5533.62
3008.86
786.524
4747.18
2535.51
702.406
4754.99
2378.26
674.879
4787.22
2257.5
519.497
5734.02
1430.06
241.792
6151.64
3223.43
992.768
5394.28
2936.85
965.657
4968.28
2599.49
852.037
4885.08
1989.45
534.26
5924.99
1459.69
460.988
1816.46
698.601
325.609
1.06076
731.463
297.183
150.905
26.6575
1887.99
754.688
393.218
70.7961
896.204
406.035
258.427
121.066
2171.61
904.295
515.284
157.481
1548.08
804.695
463.115
218.274
1146.62
724.151
367.198
124.788
1199.16
828.249
498.299
283.131
1826.22
873.045
455.714
46.5919
1748.83
806.659
469.072
-45.3997
2297.82
969.355
558.264
120.617
2070.24
856.713
512.702
-76.3496
1388.39
765.959
406.975
54.2156
1361.44
715.445
438.49
71.2514
1034.78
669.561
430.907
254.139
948.187
600.494
418.022
243.694
2347.91
857.596
397.094
-98.2497
2483.01
839.66
431.717
-284.434
2340.78
870.582
432.84
-62.0645
2376.48
808.514
430.312
-262.809
2361.48
896.843
500.052
-8.77889
2132.17
733.488
427.706
-192.758
2193.66
865.27
553.859
138.688
2350.06
831.502
553.299
-191.236
1717.39
673.927
437.458
41.266
2077.96
619.885
318.492
-265.565
823.783
221.085
97.2162
-65.0493
2035.25
624.694
328.698
-236.676
831.693
231.03
108.192
-50.0245
1905.48
609.228
345.444
-186.101
796.964
233.106
122.431
-28.8312
1602.74
523.28
333.583
-130.338
701.314
206.862
131.867
-1.43961
1405.06
490.098
329.585
-54.3844
628.262
209.702
151.161
38.5681
1109.8
478.949
285.356
16.5249
574.923
293.631
184.625
100.385
1184.85
433.979
280.071
-18.6019
569.943
234.813
162.928
72.3431
984.337
515.776
314.536
78.3518
585.182
349.979
219.315
138.96
764.547
499.802
341.191
208.329
542.169
379.263
261.098
197.308
13.9343
12.2629
8.32715
5.55626
4.25117
8.29935
6.30214
4.17579
2.78185