/*--------------------------------*- C++ -*----------------------------------*\
| =========                 |                                                 |
| \\      /  F ield         | OpenFOAM: The Open Source CFD Toolbox           |
|  \\    /   O peration     | Version:  2412                                  |
|   \\  /    A nd           | Website:  www.openfoam.com                      |
|    \\/     M anipulation  |                                                 |
\*---------------------------------------------------------------------------*/
FoamFile
{
    version     2.0;
    format      ascii;
    arch        "LSB;label=32;scalar=64";
    class       volScalarField;
    location    "2.7";
    object      gradTy;
}
// * * * * * * * * * * * * * * * * * * * * * * * * * * * * * * * * * * * * * //

dimensions      [0 -1 0 1 0 0 0];

internalField   nonuniform List<scalar> 
5712
(
12585.6
6914.5
21942.4
14355.5
21121.2
17944
31176.4
38569.9
47424.6
59983.4
25106.9
22040
15463.3
10644.9
10196.2
5803.93
21001.8
19042.6
18954.5
18826
24115.7
23220.4
27807.1
24004.1
7424.51
5228.17
3862.8
2672.79
10826.8
7015.67
5995.66
3884.97
21249
22551.1
19124.7
15691.2
15506.1
12061.6
13092
12491.6
17532.9
17204.5
35580.2
39162.9
25563.6
26996.3
18333.8
14430
18775.1
13195.6
7974.15
6873.12
5917.71
8671.37
2940.32
3963.16
7851.48
11595.3
4923.81
6694.66
8029.86
13917.1
6112.61
9960.5
1919.2
6705.08
340.459
4806.92
18110.7
21798.5
18935.1
21534.7
22906.4
23385.1
23270.4
22763.3
16804
20313.2
16851
20052.8
18939.8
21342.4
18569.6
21180.9
23398.9
22397.1
23375.2
22188
15760.5
20333
14370.9
20232.5
17195.7
18292.9
21666.4
30123.7
17985.6
21019.8
21527
32779.8
16284.6
16250.6
21567.2
28673.3
15658.4
14946.1
21544
27963.3
4259.18
5344.65
11581.8
18733.5
5132.33
5718.73
14376.2
21106
6148.4
6395.59
17635.5
23932.1
24672.9
27633.6
20565.1
18648
25019.6
28192.2
24218.2
20615
17276.8
28176.7
25843.9
23660.7
19684.7
19939.9
36813.1
1554.02
2044.77
4121.13
8386.06
2210.05
3051.82
5507.55
9868.02
3348.54
3235.49
7425.38
11842.6
27634.9
27843.2
22791.9
22035.5
19006
17104.2
13780.3
12316.3
10467.3
15450.2
24421.4
22277.1
22409.9
21227.4
18759.9
17507.2
15971.4
14245.2
12498.7
17019.7
22928.7
24480.8
23682.5
26056.1
23275.5
21586.9
23554.3
22652.7
20551.1
20825.3
20287.1
20223.4
24062.7
26674.7
23850.4
26378.8
23815.8
23567
23500.1
23351.6
20356.8
20666.1
20592.7
20801.2
17509.1
17341.8
11969.4
14269.8
17653.8
17080.7
12293.4
14715.1
17036.6
17101.6
11833.9
14305.1
17187.7
16911.7
11725
13970.2
1790.17
1481.52
1106.2
1009.64
881.021
870.208
2668.44
1933.89
1532.36
2343.66
2118.7
1858.24
2873.29
2840.16
3051.59
4234.68
3736.91
3457.84
26900.2
24302.7
22427.4
22268.9
21155.8
20164.3
15146.3
14674.4
14437.7
10638.9
10216.7
10060.1
6878.07
5174.46
4283.58
21257.9
19878.9
18838.8
21087.9
19918.6
19227.8
15630.5
14105
13255.1
11173.9
9999.43
9477.74
7305.61
5495.48
4548.2
27944.5
29091
29677
27353.6
27234.2
27330.2
32422
28028.6
17856.1
19714.4
17772.7
17545.9
23701
20914.6
23137.7
18306.3
25482.6
26663.1
21889
24675.5
28775.2
25171.1
28394.3
29432.2
30020.9
32127.3
24376.2
24980.6
21233.1
20905.2
24242.8
23376.6
16446.5
9231.1
15324.4
10226.9
15959.7
9028.34
14740.6
9888.04
14599.9
8345.73
13689.1
9392.31
13427.7
9763.19
12880.3
9747.45
22476.3
17862.4
21919.1
17904.8
25097.9
22581.9
25054.5
22118.9
20204.4
14101.1
21098.7
13689.1
22266.3
17912.4
22820.3
17847.2
25571.2
21918.9
25957.2
21787.6
19597.5
14239.3
19423.6
14217.9
11966.1
8128.48
10641.2
6556.54
11085.9
7250.24
9987.97
5975.98
12215.5
8634.97
10920.8
6882.16
12274.2
8976.72
10986
7076.87
2616.76
1399.36
4772.78
2554.36
2708.05
1625.47
4829.97
2836.68
2957.37
2192.73
4773.84
3304.06
13562.6
22681.6
8718.02
7848.89
5396.57
23243.1
14998
8349.16
7393.71
4125.81
22407.1
16269.6
11910
8637.78
5043.74
1004.88
996.504
1685.34
1603.49
1261.27
980.335
2089.27
1917.75
1799.59
1612.94
2580.16
2312.48
23679.2
22858.7
15161.6
14028.3
9498.22
9286.35
7238.3
7069.63
3765.21
3400.92
20649.1
17904.5
15120
13180.2
11303.9
10460.3
7924.49
7771.73
4662.28
5402.86
14268.9
11457.1
14372
10781.4
18136.3
13557.6
18347.7
13280.5
11729.7
9617.5
11617
10282.3
14806.7
10256.6
14901.6
10343.2
19192.3
13593
19108.5
13666.4
11795.1
9010.63
11963.4
9363.05
8291.04
7756.69
5210.53
7313.68
8418.53
8150.51
5306.86
7230.14
8258.18
7530.14
5049.32
7657.32
8686.1
7582.28
5270.58
7566.84
2594.48
2087.12
1639.08
9911.37
4838.98
3703.91
2367.73
2235.19
1907.41
10311.9
5600
4514.14
2907.98
3111.73
3130.66
10746
6850.89
6009.13
20822
19081.9
17798.6
13422.5
12770.9
12304.3
9787.34
9517.94
9357.91
8658.01
8271.92
8105.39
12236.4
8895.13
7984.63
15445.9
14032.2
13060.5
11849.7
10951.8
10412.7
10496.9
9573.53
8879.35
10125.9
9125.57
8579.38
15717.6
11053.5
10117.7
4839.12
2878.84
2152.6
2109.12
5470.6
3130.59
2248.71
2163.41
4684.15
2827.69
2143.23
2134.3
5426.27
3137.64
2269.81
2174.56
4408.76
2751.28
2152.81
2092.92
5268.24
3163.77
2323.48
2124.2
5543.56
3305.98
2352.34
2269.62
5709.04
3455.22
2459.9
2366.8
4710.54
2926.36
2233.25
2117.18
3680.51
2500.13
2055.01
1993.74
4018.02
2609.79
2112.2
1931.35
3244.39
2293.61
1954.46
1892.11
5119.22
3156.04
2331.52
2235.71
3948.69
2661.12
2130.7
2062
5351.73
3317.47
2419.02
2292.32
4099.7
2779.13
2197.44
2087.08
3562.65
2452.31
1996.71
1985.44
2179.01
1936.43
1792.46
1828.71
3434.4
2405.25
1989.52
1983.5
2153.68
1926.75
1787.93
1838.64
3235.4
2331.59
1981.03
1966.14
2215.77
1952.54
1788.38
1875.77
3008.18
2214.25
1927.01
1955.09
2224.06
1950.35
1813.48
1875.1
2669.04
2088.35
1831.76
1822.01
619.589
1442.54
1399.59
438.009
-1254.27
1163.07
1198.53
421.543
796.125
1507.66
1425.6
463.826
-978.285
1240.18
1220.36
428.962
1077.52
1604.45
1451.66
461.955
-555.263
1362.2
1247.94
431.1
1455.48
1720.81
1485.17
491.37
-85.8408
1507.74
1290.6
446.691
1967.27
1873.47
1547.55
549.816
334.597
1638.47
1332.12
459.515
2302.4
2047.72
1589.79
510.5
166.808
1773.32
1418.87
478.867
2263.51
1971.56
1552.15
513.253
244.418
1723.38
1371.98
466.07
2267.83
2104.15
1632.17
480.101
32.6763
1821.04
1458.8
480.971
2253.33
2181.4
1705.95
497.945
202.919
1900.22
1514.26
496.061
2097.68
1654.87
1180.35
704.675
234.057
2101.07
1656.37
1181.66
705.439
234.3
2134.99
1668.32
1186.59
707.527
234.885
2132.08
1671.99
1189.61
709.214
235.415
2158.18
1682.99
1193.54
710.706
235.806
2142.2
1694
1201.59
715.061
237.17
2215.28
1723.7
1218.52
723.708
239.821
2255.77
1751.81
1235.59
732.582
242.554
2216.31
1712.73
1209.21
718.433
238.148
2282.28
1722.35
1210.91
718.787
238.206
2178.99
1698.84
1200.85
714.079
236.791
2267.03
1713.55
1205.81
716.145
237.381
2245.17
1729.27
1219.37
723.771
239.805
2309.33
1738.7
1220.77
723.95
239.811
2272.2
1758.68
1237.87
733.453
242.798
2341.09
1767.26
1238.77
733.418
242.753
2096.99
1654.15
1179.05
703.852
233.792
2132.5
1655.75
1178.4
703.373
233.636
2122.25
1665.03
1183.82
705.957
234.389
2155.51
1665.5
1182.61
705.208
234.156
2161.01
1679.67
1190.05
708.702
235.168
2203.35
1679.5
1188.4
707.742
234.872
2218.61
1695.75
1196.93
711.816
236.062
2251.53
1692.6
1194.54
710.574
235.674
2254.34
1705.9
1201.77
714.121
236.749
8091.28
12489.9
8551.92
12870.7
9317.88
13493.4
10233.2
14556.2
11264
16370.7
10491.7
12952.5
10739.2
13823.3
10458.2
12823.2
10346
12802.2
6477.51
1157.91
254.212
57.0178
10.034
7704.29
2124.48
516.368
116.9
20.3937
6642.99
1145.16
246.727
54.8249
9.59237
7880.45
2140.78
513.544
114.737
19.944
6945.16
1152.45
242.049
53.0653
9.22094
8218.87
2183.73
514.257
113.515
19.5882
7312.98
1156.32
236.725
51.384
8.90139
8655.4
2238.39
518.906
113.687
19.5574
7632.19
1159.35
235.75
51.4243
8.96302
9067.74
2287.6
529.418
116.591
20.1693
7486.14
1350.73
304.618
70.569
12.7347
8438.18
2396.94
598.643
139.342
25.0147
7583.57
1275.08
274.065
61.5717
10.9084
8708.35
2358.38
566.798
128.03
22.5254
7439.48
1401.42
325.141
76.8557
14.0515
8367.11
2422.66
617.971
146.629
26.704
7404.17
1383.99
322.524
76.8635
14.1462
8326.11
2408.09
618.571
147.93
27.0901
34886.1
48469.8
43413.1
32834.2
18392.7
19294.7
29308.9
29357.2
19738.8
21051.2
31439.2
41797.6
46417.6
62916.3
23679
25974.4
19168.3
18667.9
13297.3
13658.4
4176.01
3006.26
889.397
714.686
845.942
734.145
877.358
4212.36
4350.48
2827.18
3782.12
3451.38
1659.26
2284.93
2017.28
1394.71
1571.55
1327.02
3661.3
2235.56
1485.84
1370.88
1652.66
1442.03
1149.92
1160.15
1102.66
996.992
1259.03
1183.05
3740.01
2459.67
2604.71
1864.98
1592.52
2175.38
1185.4
971.71
1307.7
8874.95
9404.03
9851.24
12387.8
22080.6
6818.25
7931.58
8816.7
10528
12493.7
2350.03
3381.73
4185.29
4745.68
5038.02
1898.9
2754.42
3428.58
3896.46
4137.52
2241.53
3237.16
4011.79
4543.42
4815.42
1950.27
2827.62
3516.65
3992.27
4236.07
2321.08
3345.08
4141.19
4690.91
4974.53
9364.37
10227.6
10356.8
11974.4
20033.2
9359.74
9904.29
10036.8
11066.2
13440.2
6584.58
7835.66
8532.68
9491.86
10504.3
8294.88
9029.4
9194.48
9725.83
10785.7
7675.8
8535.54
8692.82
9082.86
9758.82
4170.3
5578.9
6533.32
7215.08
7619.68
5480.29
6837.45
7635.54
8324.47
8861.92
4928.72
6304.32
7120.53
7711.1
8088.69
3581.24
4938.98
5902.82
6556.98
6907.88
3975.21
5361.01
6297.58
6934.18
7286.74
3426.59
4762.28
5719.1
6358.83
6692.45
8343.69
9458.34
9866.59
11690.2
19688
5429.97
6883.14
7841.46
8846.61
9704.31
3795.3
5198.19
6199.82
6917.91
7331.11
3531.89
4899.06
5902.28
6622.92
7030.58
4172.68
5619.47
6649.01
7463.96
7992.21
3704.56
5114.93
6155.7
6937.2
7393.07
3002.37
4246.49
5196.09
5878.19
6249.64
3030.12
4286.86
5237.54
5904.7
6261.93
2890.56
4107.95
5022.37
5640.52
5957.56
2626.22
3759.71
4626.21
5217.86
5521.91
3267.57
4577.96
5540.84
6199.57
6548.5
3086.09
4357.02
5308.88
5967.11
6316.12
8260.83
9117.98
9603.37
11803.4
20355
5809.77
7145.57
8142.91
9507.05
10870
6565.87
8176.77
8977.61
10597.2
12347
4669.05
6181.13
7276.1
8315.4
9028.06
4059.83
5530.78
6608.98
7483.03
8015.28
5379.75
6883.31
7861.74
8978.61
9741.02
3090.68
4362.09
5325.26
6011.53
6384.5
2560.3
3667.98
4519.89
5107.87
5413.11
3384.82
4726.54
5724.49
6441.3
6840.58
18639.6
12119.8
19767.3
14897.6
23924.7
33741.8
25487.3
35146
20677.4
20299.9
18237.7
18971.3
21875.8
21783.6
26789.4
23050.8
14276.1
12467
6388.11
5029.17
16656.3
13216.8
8861.6
5911.64
21429.6
23615.6
19704.4
17590.6
20457.1
13682.4
12926.5
12486.9
17539.5
17205.6
35446.5
39162.1
25124.8
26880.6
18747.5
14544.2
19249
13287.6
8368.47
6947.31
13038.4
15571.1
5283.38
6372.12
13996.1
17425
7118.36
8956.8
12247
17722.2
7667.19
11713.3
2176.51
7327.01
357.59
4928.59
18393.6
20266.4
18648.4
20700.2
21332.5
21297
22276.8
21608.5
17233.2
19948.7
18467.5
19382.3
18747.5
20912.4
18502.5
21040.3
22892.5
21805.3
23230.2
21997
15870.6
20136.6
14379.7
20165.7
17738.7
19364.9
21784.4
30534.9
18924.4
23056.7
21783.6
33650
16530.1
16734.5
21607
28853.7
15722.2
15075.5
21550.9
28015
17397.2
19864.1
22826.3
32142.7
16622.3
17977
23575.6
31914.6
14545.3
15055
23754.4
30639
18595.3
20594
18881.8
19203.5
28057.6
20206.3
17574.6
19910.7
17828.5
31901.1
20451.4
19382.4
17887.2
20360
38472.5
12669.3
12204.3
10478.5
13067.3
12344
12009.1
10700.7
13547.9
11362.5
10410.6
10579.6
13637.3
19872
19425.8
17116.4
16439.1
18184
16820.9
14322.4
12816.4
11743.1
15564.8
19769.2
18625
18755.4
18393.1
17030.8
15970.9
15928.9
13833.7
12659.8
16132.2
20926.1
22618.2
22535.4
24908.4
20960.1
19802.3
22280.6
21635.4
19847.7
20049.3
19105.1
18984.6
23505.1
26139.1
23682.4
26218.7
23206.9
23108.5
23319.1
23215.6
19996
20269.4
20481.4
20683.9
17207.5
16907
11893.7
14064.1
17268
16459.3
12286.2
14420
16860
16857.9
11769.3
14176
17128.3
16834.1
11699.8
13924.8
11868.8
12845.2
4564.65
4691.55
11566.4
11689.9
5233.99
5451.35
9358.86
9148.49
5706.75
5562.81
19033.7
18174
16995.8
16852.8
15125
14702.2
11048.3
10191.3
7199.79
5620.59
18599.4
17885.4
19215.1
18335.6
14548.8
13331.9
10837.6
9744.77
6561.99
5130.02
23365.6
23427.5
27456.8
24691.4
24684.9
23931.2
32153.8
26525.9
19036
14953.2
20315.1
15994.1
19910.3
15017.7
21167.4
15970.7
21947.9
20373.5
19379.3
18903.3
20618.6
21822.1
27084.3
29038.2
29203.9
31876.8
22685.1
24447.5
20130.2
20592.9
22483.6
22852.8
12516.4
9934.97
13486.1
10309
12189.4
9657.09
13144.5
9983.55
11614.4
8892.95
12427.9
9396.83
12691.6
9689.79
12661.4
9711.77
18450.8
16550.3
20005.7
17004.3
21854.2
20316.5
23451.9
20830.2
18280.9
13712.6
17116.4
13402.5
21328.2
17402.4
22539.2
17676.3
24770.1
21246.3
25719.9
21568.8
18679.8
13970.8
19159.4
14119.8
11480.2
8417.46
10757.1
6967.44
10829.3
8141.45
10548.9
6869.68
11871.4
8712.57
10917
7072.55
12152.1
8982.48
10980.6
7147.11
10955.4
11519.8
9202.95
8865.13
10481.6
11179.6
8861.54
8528.5
9855.9
10389.9
8027.29
7621.31
16439.7
20422.6
14485
10178.5
7739.75
19894.8
17580.5
16060.2
10425.1
7290.14
19924.6
16460.1
13386.1
10704.1
6884.13
13417.1
16389.3
9608.76
11253.8
12624.4
14795.4
8971.62
10308.5
11226.3
12516.5
7552.04
8000.84
19341.9
18184.8
15918.9
15102.6
14729.1
15480.9
10860.8
11866.8
7152.24
7316.66
18030.6
15651.9
14933.5
13112.3
12766.5
12184.6
10258.7
10471.2
6546.1
7647.22
13828.6
11472.1
14088
10859.1
16626.2
12678.4
17490
12865.6
11918.4
10049.4
12043.7
11062.5
14617.6
10288.1
14834.3
10347.5
18751.7
13404.2
18973.1
13611.2
11822.2
9174.95
11940
9394.58
8712.32
8367.07
5694.79
8128.6
9360.29
9364.95
6326.82
8765.24
8410.94
7786.14
5266.71
8074.26
8739.95
7666.1
5362.06
7701.77
22030.4
23263.3
28174.4
23238.6
19068
20208.7
26388.3
21881.2
15524.9
16418.5
22807.6
19273.8
17104
16299.3
15077.5
14941.9
16483.4
16841.1
14305.6
14082.8
21504.1
18628.1
13592.3
13187.9
12215.3
12296.7
12769.9
12763.9
13780.4
13417.4
22782.3
18859.8
6238.3
3849.91
2756.44
2580.67
6452.99
3947.26
2800.13
2607.28
5960.95
3734.15
2692.43
2570.03
6267
3852.94
2745.79
2562.4
5498.91
3556.52
2621.25
2454.46
5892.94
3738.24
2722.05
2438.09
5901.9
3670.06
2641.45
2503.06
5825.12
3580.23
2555.48
2448.36
5282.02
3389.7
2548.1
2380.56
4183.5
2899.19
2306.72
2206.94
4978
3285.25
2516.47
2240.52
4072.67
2899.71
2299.76
2153.72
5420.21
3423.06
2522.62
2402.24
4220.19
2885.22
2290.23
2210.3
5440.82
3407.23
2488.01
2352.56
4188.89
2852.35
2253.9
2138.14
5780.11
3652.87
2676.88
2484.44
5031.92
3347.33
2550.14
2341.37
5455.26
3543.14
2626.81
2453.54
4718.03
3259.06
2510.15
2335.19
4975.24
3369.55
2557.75
2390.3
4289.24
3123.71
2434.13
2332.42
4455.98
3106.18
2405.31
2299.03
3965.15
2985.37
2362.76
2253.99
3898.48
2880.91
2267.5
2099.21
3716.62
2953.47
2110.12
604.283
1391.02
2686.91
1915.32
611.742
3538.62
2918.98
2101.57
628.32
1381.85
2660.47
1903.43
612.574
3274.83
2840.46
2050.69
605.369
1331.98
2604.3
1861.52
596.783
3249.28
2770.73
2025.7
631.272
1486.92
2550.7
1825.83
594.722
3265.34
2686.64
2000.08
679.584
1563.68
2460.75
1773.24
586.456
2732.03
2433.95
1906.84
630.241
404.581
2143.15
1671.46
561.373
3052.9
2564.07
1952.33
642.978
807.771
2299.64
1717.82
570.747
2469.63
2317.6
1834.83
561.9
99.3137
2022.37
1611.67
533.169
2301.89
2248.48
1774.31
526.065
209.933
1962.51
1564.44
513.53
2483.5
1890.29
1313.63
771.83
254.449
2461.04
1882.73
1311.11
770.865
254.184
2503.66
1887.25
1309.67
769.427
253.672
2457.65
1874.78
1305.06
767.492
253.122
2499.53
1882.45
1304.95
766.653
252.782
2406.92
1857.58
1294.55
761.983
251.429
2386.58
1825.82
1276.97
753.332
248.836
2320.04
1791.69
1258.6
744.284
246.122
2450.65
1855.31
1289.98
759.179
250.529
2519.24
1865.03
1291.33
759.308
250.516
2483.03
1875.74
1299.48
763.604
251.821
2565.82
1877.96
1297.09
761.977
251.292
2403.17
1831.75
1278.34
753.659
248.901
2463.35
1841.25
1279.97
753.964
248.946
2325.35
1793.38
1258.08
743.75
245.942
2393.23
1803.39
1259.99
744.25
246.066
2519.36
1900.99
1316.77
772.948
254.749
2599.47
1910.92
1318.9
773.638
254.93
2534.09
1900.54
1314.26
771.262
254.186
2613.14
1910.84
1316.82
772.205
254.451
2557.39
1899.1
1310.56
768.932
253.421
2644.12
1909.7
1313.42
770.061
253.746
2593.22
1894.17
1305.49
766.082
252.512
2665.11
1901.85
1308.22
767.305
252.863
2598.74
1886.52
1301.14
763.892
251.845
10560.5
14121.4
10528.9
14099.8
10572.6
14111
10952
14713.3
11474.1
16027.3
10488.2
12866.8
10797.2
13696.1
10439.3
12763.7
10337.8
12781.8
7549.41
1305.76
280.988
62.2684
10.8808
8738.93
2374.33
569.779
127.691
22.1258
7550.5
1270.09
269.553
59.3484
10.3265
8729.35
2353.15
559.76
124.151
21.4695
7585.62
1242.71
259.067
56.5311
9.79322
8777.37
2336.6
549.089
120.832
20.7955
7691.28
1210.63
247.545
53.6999
9.29606
8937.52
2329.35
541.496
118.704
20.4136
7788.06
1184.3
241.429
52.7583
9.20278
9123.77
2329.41
541.911
119.634
20.7157
7494.12
1353.5
305.821
70.972
12.8219
8420.63
2399.57
600.789
140.111
25.1833
7635.14
1285.34
276.999
62.3696
11.0638
8709.88
2373.53
572.723
129.702
22.8527
7433.77
1401.26
325.475
77.0189
14.092
8347.99
2421.11
618.416
146.909
26.7762
7400.73
1383.61
322.556
76.8991
14.1564
8318.65
2407.14
618.585
147.99
27.1084
34450.8
48334.8
43112.7
31547.6
23648.3
28004
23492.1
28042.4
26345.3
40800.5
28382.5
44361.9
260.286
277.669
316.409
378.054
463.272
573
275.001
292.158
330.129
389.813
472.109
578.497
248.225
242.187
265.97
259.917
306.018
300.256
371.669
368.303
462.948
466.436
582.747
600.072
707.02
880.768
1122.44
1484.5
1840.16
2125.67
711.72
878.223
1084.87
1325.75
1547.84
1695.7
697.033
1022.97
1285.98
1470.4
1565.41
743.386
1090.56
1370.44
1566.53
1667.49
846.707
1241.23
1558.7
1780.82
1895.09
1010.88
1480.13
1856.68
2119.64
2254.8
1237.22
1808.19
2264.57
2582.59
2745.96
1527.27
2225.76
2781.1
3167.46
3366.13
736.311
1080.35
1357.83
1552.32
1652.48
782.01
1146.88
1440.83
1646.69
1752.65
883.169
1294.15
1624.6
1855.71
1974.58
1041.92
1524.75
1911.86
2182.15
2321.11
1260.17
1840.48
2303.94
2627.06
2793.23
1540.92
2243.76
2802.32
3191.59
3392.29
664.782
975.774
1226.83
1402.94
1493.67
648.62
952.103
1197.16
1369.08
1457.66
712.146
1044.94
1313.36
1501.49
1598.37
695.965
1021.28
1283.75
1467.75
1562.51
819.029
1200.96
1508.49
1723.72
1834.47
803.663
1178.58
1480.56
1691.97
1800.74
993.985
1455.79
1826.55
2085.48
2218.54
985.059
1442.9
1810.58
2067.39
2199.34
1236.54
1807.55
2263.98
2581.86
2745.02
1245.84
1821.1
2280.78
2600.74
2764.87
1553.33
2263.7
2828.01
3219.89
3421.02
1599.15
2329.5
2908.68
3310.03
3515.63
1878.46
2725.14
3393.64
3859.16
4099.84
2326.89
3349.23
4148.98
4710.82
5006.32
2933.39
4159.67
5107.07
5794.57
6173.76
3799.63
5234.23
6326.9
7202.07
7744.34
4583.96
6100.45
7259.94
8332.69
9123.13
5180.84
6703.04
7882.06
9130.39
10158.5
1889.55
2738.82
3409.61
3878.37
4121.87
2319.55
3338.42
4137.32
4701.03
4999.02
2842.61
4047.67
4985.18
5662.33
6033.21
3435.07
4819.15
5889.07
6697.23
7167.35
3961.98
5472.84
6639.92
7573.47
8158.3
4303.49
5881.33
7104.01
8128.01
8803.12
263.48
287.366
333.096
402.436
496.044
614.682
278.241
301.964
346.83
413.803
503.612
617.223
251.367
245.293
275.576
269.437
322.713
316.872
396.515
393.271
497.055
500.917
628.352
648.596
756.547
935.105
1175.25
1524.23
1862.89
2132.34
756.186
925.304
1129.49
1361.5
1570.44
1703.29
705.606
1035.62
1302
1488.84
1585.1
769.484
1129.18
1419.4
1622.91
1727.75
891.663
1307.87
1643.36
1878.46
1999.55
1076.7
1578.01
1981.45
2263.93
2409.4
1325.95
1940.82
2434.49
2779.92
2957.88
1640.64
2396.42
3001.32
3424.69
3643.29
745.022
1093.23
1374.17
1571.15
1672.6
808.426
1186.02
1490.53
1703.99
1813.94
928.2
1361
1709.65
1953.91
2079.71
1106.72
1621.25
2035.01
2324.71
2473.94
1345.51
1968.11
2467.57
2817.2
2997.5
1646.24
2402.29
3006.89
3430.55
3649.76
673.219
988.222
1242.58
1421.04
1513
656.958
964.4
1212.71
1386.94
1476.72
737.979
1083.12
1361.71
1557.11
1657.79
721.556
1059.08
1331.59
1522.75
1621.24
863.978
1267.53
1592.96
1821.07
1938.56
848.383
1244.77
1564.51
1788.66
1904.1
1061.04
1555.46
1953.54
2232.29
2375.81
1052.43
1543.04
1938.14
2214.83
2357.27
1328.93
1945.75
2441.17
2787.76
2966.23
1339.35
1961.19
2460.7
2810.1
2989.96
1677.54
2451.1
3070.35
3503.49
3726.89
1731.66
2530.28
3169.46
3616.27
3846.59
2014.09
2931.47
3662.68
4176.06
4442.9
2477.46
3582.36
4458.04
5079.7
5408.59
3083.22
4399.22
5433.77
6193.32
6614.16
3918.7
5436.87
6616.85
7570.19
8160.49
4657.88
6235.41
7461.49
8598.97
9434.03
5204.7
6749.59
7954.14
9229.3
10277.2
2011.2
2923.63
3650.27
4161.57
4428.28
2449.53
3538.6
4401.44
5015.14
5340.91
2967.58
4244.12
5249.28
5981.2
6383.32
3537.48
4984.83
6117.34
6978.49
7479.95
4028.39
5583.46
6795.84
7769.45
8379.18
4326.25
5920.06
7159.45
8198.73
8883.67
4160.14
3007.19
954.389
770.765
926.092
801.021
952.731
3927.42
3846.39
2750.88
3241.75
1713.59
2228.98
1482.57
1651.2
1413.27
3550.44
2259.32
1563.46
1453.44
1719.9
1513.51
1216.81
1242.53
1213.39
1099.14
1352.47
1274.24
3698.27
2474.09
2593.77
1905.1
1650.76
2205.34
1260.43
1057.2
1388.07
8871.13
9447.52
9944.06
12571.7
22455.4
6836.97
7985.37
8910.75
10674.3
12686.6
2530.99
3663.93
4561.88
5197.38
5531.9
2052.77
2989.26
3735.82
4259.33
4530.9
2464.08
3583.04
4472.32
5095.05
5418.26
2134.11
3109.09
3886.16
4430.04
4711.56
2530.96
3672.5
4578.35
5215.44
5548.19
9122.33
10641.5
11488
14015.6
23848.4
8999.71
10623.3
11742.7
14017.8
18010.7
6660.06
8416.13
9700.6
11295.6
12828.2
8058.12
10041.9
11193.6
12937.2
15245.3
4422.63
6158.61
7486.59
8516.6
9149.79
5590.36
7442.72
8805.11
10054.3
11005.2
3877.99
5506.03
6769.5
7693.39
8212.31
4284.85
6014.4
7342.94
8343.47
8932.86
3711.59
5299.54
6536.8
7427.59
7915.56
8286.11
9772.47
10614.2
12990.7
22134.3
5605.68
7353.89
8664.99
10033.2
11157.9
4062.31
5715.11
6995.24
7966.5
8539.12
3791.25
5364.13
6589.84
7508.59
8038.17
4411.31
6092.56
7388.53
8454.06
9146.35
3927.81
5512.88
6742.8
7694.38
8255.22
3195.46
4562.15
5634.33
6419.85
6851.79
3270.43
4685.16
5796.3
6599.59
7036.92
3209.37
4628.3
5745
6534.51
6952.75
2913.82
4215.63
5244.39
5969.33
6350.31
3555.67
5085.27
6281.56
7144.08
7615.86
3356.16
4812.68
5956.06
6778.19
7224.3
8266.79
9278.24
9920.12
12357.4
21469.4
5883.45
7314.61
8420.07
9905.26
11367
6652.94
8492.68
9556.37
11493.1
13505.8
4807.77
6448.25
7687.92
8869.1
9672.09
4246.45
5870.08
7115.79
8144.73
8773.15
5541.81
7269.96
8511.43
9904.15
10851.2
3309.93
4726
5836.38
6648.12
7095.15
2801.29
4050.35
5038.09
5736.84
6105.48
3628.97
5149.9
6337.55
7220.78
7720.82
9708.14
9022.5
7936.15
6558.87
4743.15
1846.33
18735.4
19949
21419.9
22031.7
20244
20543.1
20660.2
21244.9
16281.5
18526.9
18447.7
18520.6
24575.7
17122.4
26545.3
17700.9
18978.4
20172.3
20393.8
19510.6
20732.8
19803.1
20971.6
16806.3
24532.5
18947.6
23894.7
25453.5
20821.2
30641.1
16543.5
17647
18434.9
18298.7
18460.9
20162
18540.5
20326.7
18994
23777.5
21324.8
23448.6
26623.5
23366.1
29530.2
15418.3
16445
16793.7
16450.8
17547
19799.7
17276.9
19632.8
17313.6
21958.6
19306.1
20888.6
23519.8
20705.2
26661.7
14296.3
15350.1
15504
15102.7
16729.5
19395.8
16024.7
18301
15392.5
17939.3
17415.7
16813.7
20609.7
17646
21579.7
13209.9
14240.3
14465.2
14054.4
15397.9
17589
14989.5
16958.6
13334.3
14534.6
15273.5
14131.3
18202.2
14975.6
18928.3
21763.5
21918.1
22582.1
23551.8
22548.4
23281.1
21697.6
22548.6
18766.4
11971.8
19918.3
11825.1
20015.6
16628
17037.5
20877.1
21337
21048.7
21528
21987.2
22799.7
20589.9
21602.7
16773.1
11979.4
17556.4
11705.2
17385.6
15694.4
15821.8
18437.3
18921.3
18920.2
18955.1
19714.5
20400.1
18943.9
20290.4
15575.2
12768.2
16476.2
12158.2
16959.9
14239
16477.1
16103.4
16742.6
16955.1
16708.9
17754.8
18467.9
17502.3
18977.1
13879.3
13950
14859.7
13097.1
15503.6
13068.6
17521.1
14559.7
15345.3
15520.1
15188.6
16510.6
17796.4
16096
17472.8
13037.7
15570.7
14439.4
15430.3
15819.1
14498.7
20139.5
13170.9
14061
14413.3
14042
15718.2
17477.7
15007.9
16615.6
12763.6
16889.6
14628.9
17540.4
16638.1
15349.7
22523.5
12307.4
6634.9
21926.1
14314.6
21116.8
17929.4
31170.7
38559
47419.3
59966.8
25112.4
22030.2
15469
10624.3
9850.68
5484.66
20997
19040
18949.1
18823.6
24112.1
23218.1
27802.4
24002
7252.77
5138.7
3741.91
2618.38
10818.9
7009.33
5996.48
3889.34
21244.1
22545.2
19121.9
15689.1
15502.7
12062.5
13090.4
12491
17531.6
17203.8
35578.1
39161.8
25562.2
26995.3
18333.3
14430.1
18774.5
13195.3
7974.11
6873.12
5815.2
8502.47
2874.93
3857.76
7855.59
11605.6
4933.06
6707.27
8032.32
13922.1
6116.24
9965.08
1919.72
6706.74
340.457
4807.46
18109.4
21797.8
18934.1
21534.2
22905.1
23384.3
23269.2
22762.6
16803.8
20313
16850.1
20052.5
18939.1
21342
18569.1
21180.5
23398
22396.5
23374.4
22187.5
15760.3
20332.9
14370.7
20232.5
17196.2
18294.8
21666.9
30124.6
17986
21022.2
21527.6
32781.1
16285
16251.8
21567.6
28674
15658.8
14946.9
21544.4
27963.9
4204.22
5302.2
11415.9
18584.9
5141.06
5728.31
14390.1
21123.9
6151.98
6399.2
17641.6
23937.7
24671.8
27632.7
20563.6
18648.5
25022.4
28191.2
24217
20613.1
17277.2
28179.4
25843.1
23659.9
19684.2
19940.6
36814.8
1529.14
2015.03
4068.3
8314.96
2219.02
3056.92
5518.86
9878.58
3351.7
3237.82
7430.14
11846.7
27634.1
27842.6
22790.9
22034.8
19004.9
17103.5
13781.1
12317
10469.6
15452.2
24420.7
22276.6
22409.3
21227
18759.6
17507.1
15972.1
14245.7
12499.7
17020.5
22928.3
24480.5
23682.2
26055.8
23275
21586.5
23553.9
22652.5
20550.9
20825.2
20286.9
20223.3
24062.5
26674.5
23850.2
26378.6
23815.5
23566.7
23499.8
23351.4
20356.7
20666
20592.6
20801.1
17509.3
17341.9
11969.7
14270
17654.1
17080.9
12293.9
14715.4
17036.7
17101.7
11834
14305.2
17187.8
16911.7
11725.2
13970.3
1755.51
1454.19
1087.34
997.951
872.143
863.47
2670.67
1935.64
1534.81
2348.54
2122.93
1862.42
2874.54
2841.23
3052.67
4236.56
3738.54
3459.63
26899.6
24302.3
22427.1
22268.5
21155.5
20164.2
15145.9
14674.3
14437.8
10639.3
10217
10060.6
6879
5175.21
4284.35
21257.6
19878.7
18838.7
21087.7
19918.4
19227.8
15630.5
14105
13255.2
11174.2
9999.7
9478.07
7306
5495.81
4548.55
27948.9
29093.1
29680.8
27355.2
27232
27329.3
32418.8
28027.6
17715.8
19680.6
17597.3
17504
23723.1
20908.5
23164
18299.8
25488
26669.4
21891.4
24678
28775
25170.9
28394.8
29432
30020.1
32126.5
24378
24981.1
21233.9
20905.4
24243.5
23377.1
16430
9212.04
15305
10211.4
15956.8
9029.12
14737.9
9888.03
14598.9
8345.74
13688.4
9392.16
13427.8
9763.18
12880.6
9747.61
22477.1
17862.4
21919.6
17904.7
25097.4
22581.5
25053.9
22118.5
20204.9
14101.2
21099.2
13689.3
22266.4
17912.2
22820.1
17847
25570.7
21918.6
25956.6
21787.2
19597.9
14239.3
19423.7
14217.9
11966.5
8128.53
10641.3
6556.62
11086.3
7250.33
9988.15
5976.09
12215.8
8635.05
10920.9
6882.22
12274.4
8976.87
10986.1
7076.93
2604.16
1385.55
4758.29
2536.18
2710.54
1627.85
4831.16
2838.02
2958.22
2193.48
4774.21
3304.59
13562.5
22681
8718.16
7849.26
5396.82
23242.5
14997.7
8348.95
7393.83
4126.18
22406.6
16269.4
11910
8637.96
5043.89
986.429
976.912
1662.23
1593.38
1262.3
980.929
2090.32
1917.95
1800.14
1613.32
2580.66
2312.63
23678.6
22858.1
15161.1
14027.6
9497.64
9285.44
7238.17
7069.3
3765.51
3401.03
20648.6
17904.1
15119.6
13179.9
11303.8
10460.1
7924.58
7771.71
4662.43
5402.88
14268.7
11456.9
14371.8
10781.3
18136
13557.4
18347.4
13280.3
11729.7
9617.48
11616.9
10282.2
14806.6
10256.5
14901.4
10343.1
19192
13592.9
19108.2
13666.3
11795.1
9010.6
11963.3
9363.01
8291.1
7756.72
5210.58
7313.75
8418.61
8150.55
5306.95
7230.26
8258.21
7530.15
5049.34
7657.36
8686.1
7582.27
5270.59
7566.86
2559.06
2056.47
1614.5
9855.53
4798.44
3667.62
2366.71
2234.95
1908.07
10319.1
5606.14
4519.49
2908.43
3112.12
3130.99
10748.7
6853.31
6011.47
20821.4
19081.4
17798.2
13421.6
12770.1
12303.6
9786.2
9516.94
9357.12
8657.64
8271.49
8105.01
12237.8
8896.54
7986.1
15445.6
14031.9
13060.2
11849.4
10951.5
10412.4
10496.7
9573.31
8879.17
10125.9
9125.58
8579.42
15718.4
11054.3
10118.7
4839.16
2880.33
2153.21
2108.52
5469.15
3131.13
2248.93
2162.05
4682.77
2827.42
2143.15
2134.17
5425.4
3137.68
2269.88
2174.55
4408.22
2751.16
2152.78
2092.86
5267.85
3163.75
2323.5
2124.18
5543.4
3305.98
2352.36
2269.61
5709.05
3455.28
2459.95
2366.83
4710.42
2926.36
2233.27
2117.18
3680.52
2500.17
2055.05
1993.76
4017.86
2609.78
2112.21
1931.35
3244.4
2293.67
1954.5
1892.12
5119.18
3156.07
2331.56
2235.72
3948.71
2661.17
2130.75
2062.03
5351.77
3317.53
2419.08
2292.36
4099.75
2779.19
2197.5
2087.12
3562.59
2453.84
1997.59
1985.18
2175.33
1936.16
1792.88
1827.87
3433.03
2404.98
1989.41
1983.35
2152.86
1926.78
1787.83
1838.61
3234.94
2331.51
1981
1966.09
2215.71
1952.68
1788.41
1875.78
3008.13
2214.31
1927.06
1955.11
2224.17
1950.5
1813.56
1875.12
2669.11
2088.44
1831.82
1822.04
615.034
1442.31
1400.43
438.17
-1258.48
1161.6
1198.35
421.43
797.334
1508.54
1425.92
464.048
-976.342
1241.16
1220.81
429.114
1078.1
1604.88
1451.85
462.056
-554.288
1362.76
1248.21
431.192
1455.82
1721.05
1485.29
491.423
-85.2949
1508.05
1290.77
446.745
1967.45
1873.61
1547.64
549.851
334.882
1638.65
1332.22
459.548
2302.43
2047.78
1589.83
510.51
166.823
1773.38
1418.91
478.882
2263.58
1971.64
1552.21
513.268
244.499
1723.48
1372.04
466.09
2267.84
2104.2
1632.21
480.109
32.6627
1821.09
1458.84
480.985
2253.35
2181.46
1706
497.96
202.896
1900.27
1514.31
496.078
2096.2
1654.15
1180.01
704.517
234.01
2099.04
1655.52
1181.25
705.247
234.242
2134.9
1668.27
1186.56
707.512
234.881
2132.05
1671.95
1189.59
709.211
235.417
2158.12
1682.95
1193.51
710.696
235.804
2142.18
1693.97
1201.57
715.056
237.172
2215.26
1723.68
1218.5
723.702
239.82
2255.77
1751.79
1235.58
732.577
242.553
2216.29
1712.7
1209.19
718.425
238.146
2282.26
1722.32
1210.89
718.778
238.204
2178.95
1698.8
1200.83
714.069
236.789
2267
1713.53
1205.79
716.136
237.379
2245.16
1729.26
1219.36
723.764
239.804
2309.33
1738.68
1220.76
723.942
239.81
2272.21
1758.67
1237.86
733.448
242.797
2341.1
1767.25
1238.76
733.412
242.751
2095.85
1653.53
1178.76
703.722
233.753
2131.44
1655.19
1178.14
703.263
233.608
2122.17
1664.96
1183.79
705.941
234.386
2155.45
1665.44
1182.57
705.196
234.159
2160.94
1679.62
1190.02
708.69
235.166
2203.29
1679.45
1188.36
707.732
234.873
2218.56
1695.71
1196.9
711.806
236.06
2251.48
1692.56
1194.51
710.564
235.673
2254.31
1705.87
1201.75
714.112
236.747
8058.81
12452.7
8552.79
12873.1
9318.77
13494.6
10233.8
14556.8
11264.4
16371
10491.9
12952.7
10739.5
13823.6
10458.3
12823.3
10346.1
12802.3
6466.95
1152.21
252.832
56.7092
9.98051
7690.95
2120.18
515.305
116.656
20.3516
6640.87
1143.24
246.091
54.656
9.56005
7878.54
2138.67
512.727
114.503
19.8971
6944.09
1151.76
241.783
52.9854
9.20455
8218.13
2182.72
513.809
113.374
19.5585
7312.54
1156.07
236.613
51.3464
8.89314
8655.13
2237.95
518.687
113.611
19.5406
7632.07
1159.27
235.706
51.4075
8.95911