/*--------------------------------*- C++ -*----------------------------------*\
| =========                 |                                                 |
| \\      /  F ield         | OpenFOAM: The Open Source CFD Toolbox           |
|  \\    /   O peration     | Version:  2412                                  |
|   \\  /    A nd           | Website:  www.openfoam.com                      |
|    \\/     M anipulation  |                                                 |
\*---------------------------------------------------------------------------*/
FoamFile
{
    version     2.0;
    format      ascii;
    arch        "LSB;label=32;scalar=64";
    class       volScalarField;
    location    "2.7";
    object      gradTx;
}
// * * * * * * * * * * * * * * * * * * * * * * * * * * * * * * * * * * * * * //

dimensions      [0 -1 0 1 0 0 0];

internalField   nonuniform List<scalar> 
5712
(
-7728.21
-9438.18
-17679.4
-27589.2
-26683.8
-52061.7
-18476.1
-55573.5
-19064.5
-44571.7
-23432.8
-38507.2
-17936.2
-23692
-9645.47
-9780.61
-12497.6
-14099.6
-17189.9
-15565.1
-11979.9
-18042.4
-17877
-17913.8
-5041.54
-3635.52
-6839.61
-4876.41
-11422.9
-7360.9
-21164.7
-14710.1
-17636.8
-17840.5
-17850.6
-17947.1
-4048.31
-3658.51
-41141
-50893.5
-21872.2
-29210.4
-53133.3
-65387.8
-24623.4
-30296.9
-30764.4
-40240.7
-24490.1
-33957
-14045.6
-17816.9
-2850.39
-900.013
-3714.36
-1283.93
-6372.98
-2616.51
-11095.3
-4064.15
-7237.86
-2402.88
-7366.11
-2082.41
-14516
-4221.72
-19047.9
-5963.13
-24654.7
-14055.3
-20879.4
-14421.9
-25385.9
-16345.5
-20155.3
-16339.4
-16103.2
-11598.8
-17622.3
-11108.9
-20300.4
-15004.8
-20984.7
-15421
-19762
-16763.3
-20534
-17121.6
-16656.8
-12343.3
-17975.1
-12829.5
-17712.4
-7238.38
-10054.3
-11429.7
-19016.1
-8318.15
-9912.6
-11886.6
-17794.7
-6774.85
-10575.9
-11314.4
-18413.6
-6829.28
-11148.2
-11444.1
-2753.2
-3086.06
-965.357
-1890.68
-7945.29
-9307.25
-3241.41
-6112.41
-12907.1
-15317.7
-5747.07
-10258.5
-17318.1
-9168.34
-17365.3
-20662.3
-10301.5
-6766.19
-10819.2
-12149.7
-20981.9
-13124.8
-9790.87
-12753.6
-14034.4
-13475.6
-16718.6
-3061.1
-3148.36
-1882.12
-2013.03
-9081.08
-8723.51
-5784.38
-5894.48
-13624.7
-12580.1
-8539.88
-8616.7
-9635.84
-10799.8
-15234.1
-16163.5
-16749.4
-15781
-19759.5
-18203.7
-13437.3
-13415.1
-12903.7
-14155
-16605.8
-15388.3
-15545.3
-13203.9
-13819.8
-11242.8
-15187.2
-12191.9
-14115.8
-7796.9
-11060.9
-10871.8
-15589.2
-18288.1
-15920.5
-20845.3
-9293.93
-9265.93
-12750.1
-6038.58
-10646.5
-16891.5
-10972.9
-17975.3
-16137.2
-25504.2
-16644.3
-26027.7
-8958.18
-14759.9
-9227.32
-15941.1
-11002.9
-8309.3
-13983.8
-6417.39
-11970
-4748.9
-13247.1
-3488.88
-11376.9
-11786.2
-14616.1
-7596.55
-10226.7
-13542.3
-13400.2
-9629.99
-2969.92
-2785.09
-2438.2
-1914.21
-1884.83
-1665.53
-8086.21
-7061.07
-6242.89
-5232.91
-4435.45
-3792.04
-10640.1
-9149.7
-8449.85
-7524.89
-6157.12
-5638.26
-9788.28
-8086.59
-7755.89
-15164.9
-11509.2
-9476.35
-13512.1
-10088.6
-7947.97
-14955.9
-11912.1
-10164.5
-11377.1
-7863.04
-5960
-18300.2
-15104.3
-13566.4
-13319.9
-10723.6
-9020.81
-11634.4
-8897.89
-7116.32
-10280.6
-7817.98
-6315.49
-10919.7
-6645.88
-4227.99
-11305.9
-18485.7
-9555.95
-13738.9
-9118.11
-18837.4
-7613.84
-15420.4
-211.182
-1736.29
220.626
-1015.68
-3572.33
-6702.74
-2239.74
-4029.16
-1878.39
-3984.29
-10931.5
-16355.1
-8681.17
-6387.62
-11481.4
-10034.4
-15321.1
-16385.8
516.888
5363.64
-8322.03
-5867.26
-6420.38
-3705.06
-1599.72
-1026.37
-1271.14
-772.241
-3924.39
-1301.93
-1936.72
-240.371
-9961.14
-3064.67
-7423.78
-2326.57
-8396.31
-2540.36
-9503.48
-3158.52
-12188.8
-12129.3
-9509.33
-12068.6
-18272.8
-16543.1
-14985.6
-15778.8
-7162.14
-9491.91
-8353.17
-8745.93
-8914.41
-12038.1
-9376.34
-12176.9
-14317.8
-15520.2
-14843.2
-15658.6
-6346.67
-9660.54
-6160.87
-9807.4
-1042.15
-1700.12
-7810.14
-4636.21
-1033.17
-1486.44
-6840.33
-3944.72
-1015.18
-1528.11
-8266.29
-5096.85
-1319.21
-1647.04
-8371.75
-5379.19
139.374
272.832
-505.487
-376.707
743.701
1253.48
-866.844
-650.389
-1370.6
-358.151
-2780.16
-2524.09
7655.61
3904.01
4405.32
2757.95
-283.983
7060.59
10380.7
4880.54
4781.66
-264.596
-9259.06
-6890.88
-5834.02
-6148.41
-3858.99
498.047
390.582
-237.125
-378.926
1384.42
1588.75
-686.902
-956.764
1099.19
1772.37
-1702.01
-2135.43
3153.58
1726.94
8101.09
5835.45
4245.93
3090.58
3719.12
3122.36
-635.751
-1541.01
-4876.28
-3354.31
468.658
2278.6
535.5
1915.61
-676.664
463.83
-1256.56
-1756.44
-4122.44
-4574.16
-9812.72
-6254.65
-8590.32
-8430.38
-12957.5
-10174.1
-7704.78
-4816.32
-2709.84
-3418.48
-11614.8
-4925.25
-12448
-4529.32
-14889
-9783.31
-15831.2
-9368.01
-9255.71
-3554.69
-10048.1
-3085.78
-6097.77
-5116.88
-4967.8
-8606.63
-3158.48
-4164.57
-3398.71
-7289.84
-6690.82
-4839.12
-5956.85
-9852.95
-7981.8
-4631.37
-6903.97
-9808.87
574.573
799.847
953.772
-245.054
146.245
211.865
2127.7
2680.57
2929.47
-388.678
630.441
787.348
2556.08
3819.87
4367.5
-1173.05
1110.57
1592.1
1022.35
1586.25
1444.69
4660.29
5073.18
4742.4
3634.6
4372.07
4267.18
3810.76
4979.45
5212.94
-776.025
1618.86
1581.32
-3920.87
-1866.47
-1033.36
1539.11
2846.82
3268.72
1726.82
3197.42
3577.15
970.768
2801.65
3196.59
-2132.99
1095.04
1340.48
-82.2708
7.62861
42.0293
90.3206
110.929
111.126
130.375
136.524
-225.358
7.89753
112.257
238.348
254.309
255.507
285.116
312.071
-457.822
-56.213
123.24
366.121
32.3087
211.977
261.58
360.525
41.8486
139.001
109.983
122.403
-176.02
-10.3046
55.82
128.995
-1142.56
-338.57
-105.756
219.89
-1721.37
-539.593
-288.516
306.736
-970.775
-257.64
-25.5862
357.826
-1406.91
-431.457
-246.435
308.264
-1054.14
-325.971
-105.466
185.429
-1895.8
-598.1
-307.072
378.434
-1117.62
-381.651
-106.442
242.995
-1985.93
-632.629
-324.438
414.59
-83.8419
-5.18552
17.7829
82.0095
-75.6651
-3.04756
4.88977
85.844
-230.791
-20.2216
50.0157
216.711
-137.912
16.0918
27.7912
234.059
-788.852
-197.636
-23.168
335.465
-625.167
-127.879
-19.028
372.772
-427.331
-43.342
71.0775
363.55
-289.941
-12.8689
17.6342
360.784
-1204.97
-336.127
-170.875
417.1
32.1808
31.1007
24.9629
66.9125
133.388
59.8021
36.6777
40.6057
5.87612
59.1287
50.0534
177.108
320.967
153.866
92.3497
108.034
-125.649
39.7655
55.5741
277.404
419.473
219.338
138.47
166.122
-176.232
50.4284
70.5042
368.25
407.042
254.96
158.94
197.889
-421.706
0.881705
1.45347
363.824
179.944
225.971
128.118
185.812
-1256.95
-153.606
-96.0352
351.298
-395.842
72.1853
50.6287
139.444
-853.541
-53.2703
-53.7596
354.416
-179.625
150.471
88.509
164.897
-1596
-292.909
-159.742
378.353
-541.776
-12.7148
9.29912
125.413
-1833.71
-444.8
-236.712
374.708
-682.849
-122.148
-44.1296
106.49
36.8501
17.8297
9.67474
5.90531
4.3909
50.0307
26.9389
15.3415
9.581
7.17596
79.1101
37.93
20.4872
12.544
9.39837
132.071
73.2816
42.414
26.797
20.1913
112.288
54.532
30.0011
18.6013
14.0272
189.465
104.094
60.8317
38.7614
29.3315
64.3824
34.2434
20.041
12.828
9.72455
36.8808
18.7057
10.6459
6.75806
5.09984
99.1007
45.3321
25.0478
15.6568
11.7636
23.4458
6.8435
2.96645
1.65
1.18746
144.728
74.484
42.8256
27.1742
20.5492
40.7754
16.6778
8.83265
5.40849
4.01193
36.1682
9.91252
3.98893
2.15703
1.54414
24.4381
7.65673
3.53928
2.07057
1.52581
35.0182
9.10896
3.47487
1.83807
1.27083
18.0468
2.762
0.439238
0.0412613
-0.0454249
30.0403
13.4695
6.99992
4.15817
3.05612
27.6943
12.6308
6.6144
3.9361
2.8942
68.9417
30.5022
15.9057
9.49367
7.01938
64.2615
28.6688
15.0687
9.00298
6.62925
89.8769
37.3077
19.2994
11.4917
8.50508
77.2067
35.2255
18.9665
11.4508
8.5246
103.87
52.6606
30.0648
18.9433
14.334
51.0938
25.7207
14.4154
8.87062
6.70226
59.7938
31.6943
18.4607
11.7897
8.93554
-508.624
-607.944
-1399.28
-1723.56
-2138.58
-2752.2
-2604.14
-3645.19
-2619.02
-3660.38
-2360.68
-3088.77
-2225.75
-2667.91
-2637.07
-3552.05
-2708.24
-3688.98
-474.24
-103.529
-22.4721
-4.75563
-1.15127
-208.913
-73.8939
-8.31657
-2.32087
-0.913754
-1531.13
-336.741
-73.5202
-15.6781
-3.82301
-543.422
-115.704
-23.4443
-4.57009
-0.979139
-2700.8
-597.464
-131.202
-28.2311
-6.94429
-946.549
-223.674
-49.1823
-10.666
-2.56593
-3884.46
-864.148
-191.616
-41.703
-10.3855
-1326.08
-341.337
-80.1933
-18.2904
-4.61525
-5434.21
-1243.43
-281.6
-62.4085
-15.8115
-1761.79
-512.314
-127.636
-30.0836
-7.79781
-7369.85
-1840.43
-439.908
-101.456
-26.5
-2036.7
-629.742
-162.224
-38.9593
-10.2711
-6696.01
-1620.44
-378.017
-85.498
-21.989
-1976.32
-615.785
-158.305
-37.9201
-9.91156
-7694.56
-1947.83
-471.402
-109.921
-28.9616
-2075.36
-624.589
-158.5
-37.6481
-9.89765
-7934.94
-2003.19
-486.969
-114.188
-30.2418
-2071.5
-625.59
-158.683
-34.9916
-9.75468
-265.387
-6411.64
-6305.69
-3587.43
3619.66
4983.36
10051.6
13212.7
5671.12
11497.4
2223.74
6976.83
5646.3
9366.37
10262.6
14151.3
12388.4
14085.6
7074.83
8001.92
-18814.2
-14109.3
-4564.54
-3593.82
-2809.9
-4527.89
-3147.51
-12382.6
-12280.2
-10505.9
-11190.8
-9274.04
-6430.95
-8778.22
-5442.61
-4183.97
-5196.92
-3331.02
-20413
-10252.3
-3119.92
-5196.46
-7774.28
-5316.35
-6341.42
-4804.28
-2361.87
-4006.41
-3471.69
-4042.25
-18915.6
-11836.8
-11910.7
-7615.59
-8132.16
-8130.34
-4152.69
-5315.87
-5422.24
-12894.4
-12476.5
-10914.9
-11126.4
-10463.8
-10153
-7653.8
-6486.01
-5528.53
-2604.43
-4049
-3371.82
-2539.16
-1587.24
-541.027
-3217.5
-2701.32
-2039.27
-1270.56
-431.823
-2498.57
-2080.91
-1558.27
-964.828
-326.933
-4054.29
-3402.06
-2563.74
-1593.37
-540.656
-2800.68
-2335.94
-1753.93
-1089.47
-369.945
-8312.71
-7171.91
-5870.77
-5654.66
-6338.65
-6778.3
-5437.15
-3932.72
-3286.42
-2823.34
-7313.73
-5035.79
-3874.31
-2970.91
-1350.41
-6076.32
-4596.04
-3228.12
-2576.52
-1845.23
-4714.12
-3308.93
-2218.94
-1852.03
-1123.1
-5135.39
-3878.37
-2773.59
-1738.76
-620.132
-6303.6
-4379.81
-3139.7
-2098.19
-851.89
-3820.23
-2515.2
-1710.5
-1088.95
-418.257
-3465.68
-2695.85
-1938.35
-1193.14
-411.024
-4197.56
-3176.49
-2239.41
-1364.44
-469.711
-2789.97
-2188.82
-1574.73
-961.945
-327.645
-14035.1
-11767.9
-9991.06
-9557.29
-9246.92
-7930.99
-5971.18
-4622.66
-3379.62
-1467.93
-2604.62
-2047.21
-1491.48
-931.373
-324.161
-4422.21
-3550.7
-2640.61
-1676.85
-588.274
-6447.84
-5090.45
-3841.63
-2548.58
-938.878
-4562.03
-3694.49
-2773.94
-1773.26
-618.83
-5537.3
-4545.08
-3414.25
-2153.4
-736.97
-4201.13
-3450.22
-2575.78
-1608.33
-550.393
-2041.64
-1651.87
-1211.08
-742.995
-251.674
-3531.22
-2916.16
-2172.78
-1344.56
-456.322
-2961.23
-2369.98
-1734.22
-1072.01
-366.935
-3508.38
-2859.67
-2123.04
-1322.79
-453.369
-12865.8
-11698.1
-10230.1
-10138.2
-9296.21
-8848.48
-6700.5
-5524.93
-4456.73
-2066.4
-9659.52
-7958.08
-6451.95
-5172.67
-2368.81
-6268.83
-4790.98
-3718
-2595.43
-841.688
-6889.17
-5492.44
-4168.33
-2736.72
-935.144
-6664.22
-5058.01
-3909.09
-2722.42
-858.935
-3597.17
-2930.05
-2186.41
-1375.15
-473.42
-4692.71
-3886.53
-2910.57
-1812
-617.136
-4690.6
-3820.84
-2859.17
-1806.65
-624.218
-6127.52
-13429.7
-10791.1
-35010.6
-10200.3
-45786.4
-6817.05
-17998.2
-8911.57
-7494.08
-17441.4
-13625.3
-9101.7
-10970.3
-19120.7
-15919
-3841
-2613.92
-8824.52
-6187.76
-6745.46
-3520.3
-24330.8
-17117.3
-14784.3
-10306.2
-15311.5
-9969.71
1644.25
-1460.64
-42086.8
-51247.9
-21241.4
-29111.1
-53745.7
-65624.9
-23854.6
-30111.6
-31420.6
-40615.1
-23881.8
-33938.2
-15090.7
-18234.1
-2058.86
-392.543
-4484.58
-1442.57
-3898.44
-1831.6
-12565.5
-4482.71
-1968.77
-926.11
-5529.17
-1527.7
-14584.5
-4192.82
-19227
-6006.54
-18099
-11074.5
-18660.7
-12917.1
-17675.1
-12591.5
-17592.6
-14522.4
-14622.5
-10491.8
-13415.6
-9007.69
-19412.1
-14302.9
-20764.4
-15219.1
-18713.7
-15949.7
-20244.1
-16885.6
-16115.5
-11813.9
-17853.4
-12675.9
-16885.9
-7057.03
-9286.14
-11158.8
-16449.9
-7693.34
-8391.84
-11378.1
-17557.9
-6721.19
-10213.7
-11175.7
-18385.8
-6824.7
-11042.1
-11402.8
-636.566
-473.731
106.299
-635.735
-2355.54
-2897.87
-1646.99
-4265.42
-3490.05
-4650.14
-3614.32
-7836.87
-16467.8
-15853.5
-13051.3
-15271.6
-9159.6
-10701.4
-8524.59
-7242.73
-15104.8
-12260.4
-12325.1
-11615.9
-10981.7
-10296.3
-15652
-671.666
-854.835
-424.033
-638.759
-2895.09
-2591.92
-3264.39
-3242.09
-2758.13
-1421.41
-5418.78
-5182.4
-11671.5
-12577.2
-10895.9
-10871.5
-9733.33
-8112.89
-13063.6
-11262.4
-11529.4
-10933.7
-15015.7
-15556.2
-14081.1
-12754.7
-11481.2
-9554.1
-10262.3
-8128.33
-13672.4
-10217.8
-13013
-7865.19
-10665.5
-10849.7
-16047.3
-19061.4
-16021.3
-21091.8
-8652.28
-9033.84
-11095.8
-5679.48
-10506.2
-16804.1
-10931.3
-17939.2
-16223.1
-25713.7
-16654
-26033
-8702.88
-14572.8
-9156.59
-15884.2
-10414
-8068.96
-13666
-6284.02
-10570.4
-4418.28
-12623.5
-3384.19
-11129.8
-11625.1
-14468.8
-7525.58
-10158.3
-13490.9
-13363.5
-9601.7
-1045.07
-794.253
-582.302
-719.309
-1968.02
-918.252
-2722.29
-2711.65
-358.166
-206.327
-4844.37
-4717.83
-13596.2
-11737.5
-10667.5
-8283.77
-6829.22
-4667.9
-9029.99
-6900.01
-9506.56
-6398.81
-19837.2
-16965.6
-10338.1
-8430.27
-7951.12
-5912.55
-6859.46
-4798.19
-7654.17
-3947.73
-5858.59
-11135.9
-5405.12
-10836.1
-7256.73
-11855.6
-8511.94
-13224.5
-1652.11
-1573.44
-1485.46
-1505.3
-4623.44
-4861.34
-4340.15
-4521.15
-2040.58
-2384.7
-9151.79
-10075.8
-5580.12
-6294.06
-10434.3
-9809.49
-14324.9
-16114.9
503.486
5194.18
-7792.34
-5827.4
-6216.11
-3741.07
-1414.33
-1350.25
-1537.63
-1319.67
-3182.58
-2192.32
-2534.11
-1601
-8349.04
-4230.31
-7798.98
-3844.29
-8545.76
-3406.39
-9594.49
-3513.69
-6757.92
-9725.35
-7591.15
-10755
-11301.5
-12819
-12546.4
-13943.7
-6100.44
-8896.56
-5352.03
-7919.15
-8135.34
-11480.3
-9144.89
-12016.6
-13286.7
-14728.9
-14539.4
-15429.8
-5937.55
-9418.38
-6042.99
-9740.42
-1231.28
-2215.7
-7857
-4938.16
-1412.28
-2356.68
-7093.67
-4393.22
-1238.96
-1938.66
-8313.29
-5312.83
-1415.22
-1817.48
-8372.45
-5474.99
-1302.1
-1490.79
-1371.5
-1580.52
-3195.86
-3581.73
-2466.82
-2879.75
-7732.26
-8422.78
-4628.64
-5146.47
-4291.55
-9418.78
-2998.1
-843.955
-1899.98
-4188.63
-1264.25
-2058.57
1512.03
-1359.44
-13627.8
-10127.4
-8026.06
-7998.24
-4787.61
-1804.56
-2002.98
-1861.47
-2324.66
-4262.59
-4614.45
-3436.07
-4363.59
-8977.87
-10186.7
-5216.01
-6720.13
-6185.69
-7506.02
-2267.45
-4287.02
-3641.7
-4961.18
-1348.85
-2225.69
-2473.04
-3810.72
-11285.3
-8826.55
-6362.69
-4386.24
-4949.23
-3407.52
-4924.95
-3468.49
-3148.12
-3921.22
-7631.92
-8142.6
-11450.2
-7833.06
-11226.9
-11239.8
-13983.4
-11416.9
-9663.36
-6450.57
-6154.42
-6861.69
-12417.2
-5830.21
-12669.8
-4743.48
-15361.8
-10520.1
-15945
-9521.51
-10267.8
-4490.86
-10343
-3329.58
-8027.89
-6677.99
-6707.96
-10448.2
-6188.56
-7213.06
-5615.33
-10189.1
-7737.24
-5777.9
-7016.35
-10968.2
-8307.19
-4918.51
-7245.68
-10104.5
-1699.88
-1763.92
-1673.02
-1320.35
-5021.07
-5652.88
-2719.62
-1525.31
-11047.7
-9136.91
-4098.36
-517.866
-9372.16
-8114.39
-6100.03
-5047.27
-5229.12
-4111.93
-2117.58
-945.148
-2711.84
610.918
-8437.39
-6985.4
-4192.86
-2874.41
-2897.88
-1351.71
-2452.48
-640.942
-4475.39
432.902
-326.79
-139.448
-46.6772
39.874
-347.453
-178.319
-53.9649
19.1957
-843.703
-363.501
-101.953
132.952
-795.086
-416.817
-162.88
-7.396
-1277.92
-552.165
-188.588
188.097
-1247.6
-630.01
-356.267
-133.271
-744.995
-396.059
-254.352
-93.4355
-518.358
-250.037
-108.485
26.8177
-1602.65
-637.789
-336.587
37.1016
-1874.28
-605.179
-349.08
313.332
-1620.97
-640.069
-326.083
69.2747
-1603.43
-517.588
-324.644
315.347
-1408.2
-563.019
-255.906
129.415
-2012.86
-651.146
-364.441
350.063
-1270.06
-486.421
-176.287
208.128
-2037.25
-658.208
-347.296
407.696
-307.925
-118.402
-44.1744
58.6602
-309.574
-103.545
-54.7768
65.801
-800.522
-312.097
-111.196
156.992
-787.598
-274.123
-138.963
185.131
-1426.59
-537.814
-226.607
281.513
-1380.28
-483.284
-242.674
311.743
-1433.97
-581.668
-283.807
125.132
-1050.75
-389.509
-199.685
312.484
-1626.73
-540.762
-341.309
366.388
-224.61
-75.2953
-29.9795
40.5306
-128.479
-53.2119
-19.126
4.23796
-625.304
-210.38
-96.9347
106.798
-364.34
-152.554
-64.6757
6.6368
-889.791
-309.05
-149.498
171.557
-531.969
-241.558
-103.056
11.1048
-1072.75
-395.171
-200.63
219.813
-721.559
-330.925
-147.135
8.22545
-1295.21
-446.087
-284.675
193.919
-982.664
-387.873
-206.226
-27.5518
-2224.67
-724.965
-459.514
140.189
-1189.45
-416.808
-238.11
-41.6577
-1922.37
-629.56
-420.088
139.649
-1239.96
-435.26
-246.569
-50.6039
-2227.93
-692.086
-414.692
234.864
-1027.96
-339.687
-186.379
9.22347
-2046.09
-584.508
-326.078
325.62
-839.633
-233.42
-111.296
67.3486
-7.33508
-12.0519
-9
-6.26845
-4.89714
-28.8777
-22.3631
-14.8817
-10.0246
-7.76574
-15.7245
-25.3328
-18.8565
-13.0597
-10.1259
-91.5181
-64.0269
-41.2492
-27.3801
-21.0812
-39.3817
-40.7552
-28.2689
-19.1454
-14.7251
-140.903
-93.9127
-58.9589
-38.6644
-29.6276
-46.4789
-30.9645
-19.3336
-12.6258
-9.66442
-20.7153
-15.4113
-10.0412
-6.65127
-5.1398
-36.8656
-35.0734
-23.4461
-15.6612
-12.081
9.139
-2.0615
-2.4711
-1.87031
-1.49442
-95.8865
-65.639
-41.1758
-26.9732
-20.6529
-6.91393
-11.8265
-8.30854
-5.64319
-4.39673
15.1537
-1.42939
-2.81633
-2.24751
-1.81899
5.09915
-3.16124
-2.93878
-2.11316
-1.66553
17.7985
-0.543036
-2.37388
-1.99175
-1.70254
16.5041
2.18828
0.100037
-0.201442
-0.263501
0.0610338
-7.98183
-6.55314
-4.69749
-3.70327
-3.22516
-8.15184
-6.32314
-4.48358
-3.52566
-3.84146
-19.4668
-15.2591
-10.789
-8.44522
-9.9217
-19.8192
-14.8227
-10.3903
-8.14547
-3.20515
-25.0426
-19.1392
-13.4366
-10.4846
-26.6366
-28.6839
-19.7148
-13.5213
-10.4782
-69.8881
-47.4876
-29.6508
-19.4808
-14.8874
-35.1212
-24.2485
-15.3505
-10.2696
-7.84962
-50.3915
-29.6276
-17.8522
-11.5426
-8.8041
-181.688
-299.348
-610.218
-960.594
-1192.32
-1805.12
-1761.67
-2752.32
-2007.14
-3017.48
-2241.42
-2997.48
-1933.32
-2449.21
-2597.07
-3515.49
-2701.25
-3680.85
-475.249
-105.959
-23.158
-4.91038
-1.18916
-145.331
-67.219
-6.55107
-2.08775
-0.907455
-1552.6
-346.806
-76.0861
-16.2434
-3.95984
-382.155
-88.3947
-18.8347
-3.78844
-0.825848
-2739.49
-613.412
-135.281
-29.147
-7.16949
-750.778
-190.629
-43.6491
-9.75872
-2.39553
-3916.79
-879.72
-195.875
-42.7042
-10.6411
-1148.82
-310.958
-75.06
-17.4511
-4.46088
-5451.58
-1256.05
-285.442
-63.3743
-16.0716
-1644.19
-491.161
-124.03
-29.5111
-7.70019
-7364.09
-1842.99
-441.261
-101.9
-26.643
-2014.98
-624.606
-161.192
-38.7791
-10.2385
-6700.04
-1628.06
-380.781
-86.2684
-22.2127
-1919.9
-604.044
-156.189
-37.5818
-9.85623
-7687.4
-1948.17
-471.929
-110.134
-29.037
-2068.65
-622.904
-158.129
-37.578
-9.8833
-7932.41
-2003.21
-487.116
-114.253
-30.266
-2070.62
-625.357
-158.625
-34.9785
-9.75185
-178.161
-6289.61
-5858.84
-2884.48
-1478.66
-879.101
-3172.31
-2499.97
-5384.08
-5857.01
-3059.99
-2878.58
-429.972
-650.662
-1089.17
-1676.5
-2355.7
-3017.37
-295.768
-613.258
-1239.78
-2092.22
-3060.39
-4016.42
-335.64
-146.106
-589.589
-366.536
-1086.81
-812.499
-1726.53
-1490.29
-2350.8
-2331.08
-2864.54
-3143.69
-3691.58
-4392.42
-5236.43
-7260.09
-7561.11
-9076.85
-4847.6
-5395.26
-5483.67
-5204.18
-4262.16
-3784.89
-388.677
-329.532
-250.493
-156.493
-53.2126
-587.873
-498.127
-378.442
-236.333
-80.3445
-983.489
-832.811
-632.356
-394.759
-134.183
-1512.58
-1279.72
-971.027
-605.954
-205.944
-2122.65
-1793.6
-1359.74
-848.238
-288.28
-2713.02
-2287.82
-1732.38
-1080.57
-367.342
-267.262
-226.515
-172.13
-107.509
-36.5496
-553.864
-469.12
-356.278
-222.439
-75.6112
-1119.11
-947.339
-719.143
-448.887
-152.577
-1887.02
-1596.06
-1210.89
-755.662
-256.846
-2756.63
-2328.7
-1765.42
-1101.58
-374.476
-3610.35
-3044.36
-2306.04
-1439.29
-489.55
-303.484
-257.347
-195.65
-122.246
-41.5736
-132.112
-112.028
-85.17
-53.2148
-18.0975
-532.836
-451.599
-343.161
-214.329
-72.8716
-331.286
-280.809
-213.399
-133.289
-45.3189
-981.647
-831.482
-631.475
-394.247
-134.015
-733.986
-621.801
-472.284
-294.874
-100.236
-1558.1
-1318.51
-1000.53
-624.331
-212.174
-1344.96
-1138.15
-863.605
-538.826
-183.099
-2118.52
-1790.15
-1356.89
-846.185
-287.509
-2100.33
-1774.18
-1344.12
-837.797
-284.565
-2574.82
-2170.17
-1642.15
-1023.56
-347.789
-2824.08
-2377.99
-1796.97
-1118.48
-379.707
-3306.77
-2779.3
-2101.67
-1311.91
-446.506
-3907.29
-3265.46
-2466.68
-1545.27
-527.86
-4595.87
-3801.83
-2874.52
-1821.67
-628.602
-6217.79
-5053.81
-3855.04
-2522.65
-891.293
-6165.26
-4900.76
-3842.25
-2712.87
-1061.83
-7111.56
-5567.46
-4482.31
-3368.37
-1392.14
-4343.7
-3653.26
-2765.27
-1728
-588.621
-4810.94
-4031.49
-3051
-1912.65
-653.692
-4851.97
-4044.06
-3063.72
-1934.38
-665.742
-4540.79
-3750.32
-2852.97
-1831.09
-639.909
-3619.15
-2947.31
-2270.87
-1514.89
-553.92
-3109.27
-2491.54
-1954.61
-1368.81
-524.673
-454.773
-725.723
-1215.68
-1852.54
-2578.4
-3267.44
-328.305
-711.563
-1403.8
-2316.09
-3326.03
-4286.84
-361.865
-166.634
-669.369
-429.869
-1223.4
-924.192
-1922.03
-1662.11
-2611.45
-2623.63
-3167.25
-3648.21
-3953.96
-4657.54
-5497.94
-7437.21
-7680.86
-9122.41
-5074.09
-5531.51
-5509.1
-5131.95
-4169.58
-3744.58
-411.203
-348.742
-265.186
-165.718
-56.3582
-656.093
-556.352
-423.013
-264.34
-89.8987
-1098.62
-931.24
-707.843
-442.264
-150.402
-1673.15
-1417.4
-1076.93
-672.772
-228.791
-2326.5
-1969.13
-1495.38
-934.139
-317.716
-2943.35
-2487.66
-1888.04
-1179.81
-401.475
-296.814
-251.709
-191.393
-119.601
-40.6729
-643.184
-545.33
-414.598
-259.074
-88.1069
-1268.34
-1074.9
-816.945
-510.423
-173.585
-2091.19
-1771.09
-1345.51
-840.59
-285.882
-2999.8
-2538.13
-1927.29
-1204.12
-409.613
-3859.49
-3260.61
-2474.56
-1546.77
-526.528
-327.278
-277.619
-211.14
-131.964
-44.8859
-150.73
-127.88
-97.2723
-60.803
-20.6834
-605.297
-513.394
-390.424
-244.006
-82.9917
-388.774
-329.798
-250.839
-156.783
-53.3273
-1105.9
-937.659
-712.859
-445.44
-151.489
-835.557
-708.558
-538.754
-336.67
-114.5
-1736.43
-1471.42
-1118.16
-698.547
-237.551
-1501.83
-1272.79
-967.298
-604.308
-205.501
-2357.1
-1995.58
-1515.63
-946.724
-321.961
-2368.44
-2005.41
-1523.12
-951.326
-323.502
-2853.65
-2412.13
-1830.66
-1143.75
-389.131
-3288.09
-2779.95
-2109.65
-1317.65
-448.187
-3551.21
-2994.25
-2271.43
-1421.39
-484.411
-4159.36
-3492.16
-2649.84
-1665.68
-569.99
-4853.59
-4042.01
-3075.49
-1957.9
-677.036
-6413.49
-5253.56
-4037
-2655.88
-940.14
-6311.15
-5056.3
-3991.69
-2831.51
-1110.37
-7172.45
-5635.16
-4550.74
-3426.72
-1416.43
-4555.06
-3839.51
-2912.69
-1823.26
-621.64
-4942.53
-4151.92
-3149.98
-1978.63
-676.961
-4884.68
-4081.8
-3100.97
-1962.64
-676.381
-4486.13
-3714.41
-2834.95
-1825.77
-639.351
-3544.37
-2891.91
-2236.49
-1499.38
-550.407
-3076.93
-2467.67
-1940.13
-1362.94
-523.583
-18731.1
-14164.8
-4957.94
-3999.31
-3355.51
-5208.82
-3649.88
-13104.1
-14236
-11887.8
-13664
-7408.89
-11521.4
-5422.14
-5686.71
-4017.87
-21110.6
-11091.2
-3623.69
-5803.6
-8397.44
-5691.24
-6993.04
-5341.48
-2611.69
-4699.82
-4081.6
-4537.69
-18792.2
-12055.3
-12422.5
-7998.15
-8488.66
-8572.92
-4803.19
-5992.06
-5857.03
-12875
-12520.4
-11014.4
-11304.6
-10646.3
-10247.4
-7762.38
-6603.3
-5642.51
-2655.14
-4425.39
-3712.41
-2815.88
-1769.94
-605.091
-3594.52
-3032.09
-2299.89
-1438.31
-489.834
-3011.33
-2536.37
-1921.84
-1201.54
-409.402
-4687.47
-3957.69
-3001.67
-1875.33
-638.195
-3273.05
-2755.57
-2088.7
-1307.2
-445.728
-9825.74
-9022.39
-7829.42
-7519.44
-7927.56
-10180
-9505.68
-7985.27
-6875.68
-5361.54
-9262.2
-7074.04
-5786.78
-4499.83
-2028.99
-10105
-8857.45
-7197.34
-5961.1
-3794.74
-6325.93
-5117.68
-3894.72
-2553.55
-932.528
-9386.14
-7267.24
-5638.41
-3943.25
-1614.85
-4723.51
-3884.18
-2941.25
-1882.03
-661.948
-4936.17
-4047.24
-3065.81
-1968.67
-695.836
-3522.95
-2911.68
-2202.37
-1399.26
-487.331
-15374
-13386
-11710.6
-11203.7
-10569.4
-8988.4
-7094.67
-5681.6
-4205.75
-1816.78
-3152.24
-2591.68
-1968.57
-1267.13
-448.073
-5062.39
-4179.17
-3188.8
-2061.76
-729.708
-7153.82
-5815.45
-4502.65
-3036.46
-1126.87
-4961.99
-4091.71
-3124.94
-2022.59
-710.689
-6175.96
-5136.06
-3905.11
-2483.95
-854.028
-4737.98
-3956.45
-3002.06
-1897.76
-653.776
-2317.41
-1933.78
-1462.69
-920.283
-316.265
-4198.68
-3523.83
-2669.06
-1673.59
-572.203
-3592.48
-2979.95
-2257.27
-1432.75
-497.557
-4014.58
-3345.74
-2538.23
-1607.8
-555.984
-12958.8
-11959.5
-10618.7
-10659.7
-9868.2
-9153.23
-7028.25
-5852
-4741.21
-2198.09
-10411
-8801.32
-7308.18
-5911.68
-2718.85
-6704.66
-5234.38
-4124.43
-2900.24
-943.998
-7297.33
-5912.88
-4555.31
-3022.83
-1039.86
-7194.68
-5601.53
-4416.83
-3108.36
-995.537
-4236.56
-3523.17
-2679.53
-1707.5
-591.728
-5344.47
-4480.69
-3396.35
-2134.24
-730.582
-5144
-4263.96
-3244.6
-2075.86
-722.13
-481.648
-1309.09
-1983.31
-2600.19
-3223.6
-3791.42
-2311.65
-5974.64
-5634.44
-2328.06
-6822.92
-6114.14
-7355.02
-9821.15
-1304.49
-175.46
-2471.78
1169.48
-9663.14
-7997.56
1850.01
-1693.1
-4744.81
-4577.91
-1799.11
-5220.07
-2906.7
-5883.26
-6059.99
-581.268
863.378
-1075.57
3235.65
-6846.22
-4364.02
3623.23
-1057.26
-3262.54
-3377.69
-1249.65
-3298.26
-529.821
-4429.76
-4467.55
-174.345
1053.79
52.5532
3414.89
-4259.85
-472.488
4144.67
-717.606
-2358.8
-2756.04
-972.575
-1820.15
756.082
-3774.28
-4246.92
20.7324
770.679
377.462
2886.64
-3274.51
1462.99
3976.45
-625.607
-2229.4
-2651.67
-899.531
-1712.31
482.843
-4022.14
-5478.05
95.661
598.178
485.654
2540
-3122.59
1496.27
2795.05
-605.945
-2203.01
-2594.76
-876.195
-2094.05
-241.885
-3958.05
-5388.98
142.187
940.418
400.44
2654.44
-3591.63
663.593
2116.76
-1317.12
-3142.85
-4136.73
-1681.2
-6439.83
-11489.7
-6904.73
-12204.3
-1622.97
-1448.45
-5218.64
-4396.45
-2448.21
-9565.17
-4750.05
-1293.81
-3070.68
-3710.33
-1463.08
-6111.74
-9838.98
-6226.42
-8977.29
-1699.03
-1342.17
-5114.25
-4209.25
-1804.74
-8864.71
-4646.54
-1205.74
-2881.64
-3119.85
-1195.45
-5562.33
-8626.23
-5286.22
-8012
-1474.51
-1732.72
-4534.97
-5030.17
-2070.21
-7869.99
-5237.03
-1220.98
-3159.04
-2907.75
-1069.3
-5934.58
-8502.95
-5247.19
-7897.31
-1555.43
-2167.91
-4722.73
-6255.15
-2609.83
-8674.18
-6407.32
-1238.31
-3153.13
-2872.94
-1038.08
-5876.56
-9192.46
-5275.8
-8695.22
-1697.63
-2794.88
-5112.97
-8039.44
-3705.28
-10333.9
-8425.11
-1257.75
-3158.85
-2847.24
-1029.2
-5981.68
-9452.21
-5172.96
-8607.8
-1913.85
-3490.28
-5656.98
-9226.75
-4932.38
-11432.1
-9480.97
7089.12
8580.01
17675.4
27542.4
26686.6
52045.9
18478.8
55569
19067.9
44566.7
23444.8
38502
17966.3
23679.9
8316.28
8409.21
12499.5
14099.9
17185.4
15563.6
11982.3
18043.8
17877.1
17914.2
4646.08
3365.88
6271.78
4476.19
11429.6
7357.23
21131.4
14682.8
17623
17838.8
17845.1
17944.1
4044.65
3644.04
41141.8
50894.4
21872
29210.6
53133.2
65387.8
24623.6
30297.1
30765.1
40242
24489.1
33957.5
14048.1
17818.5
2673.58
851.796
3428.32
1191.81
6358.23
2617.88
11071.8
4059.11
7230.34
2400.68
7355.63
2079.24
14516.1
4221.62
19049.1
5963.49
24653.9
14054.9
20878.4
14421.5
25386.2
16345.7
20155.3
16339.5
16101.5
11598.1
17620.6
11108
20300
15004.6
20984.5
15420.8
19762
16763.3
20534
17121.6
16656.2
12342.9
17975
12829.2
17709.6
7237.63
10053.4
11429.3
19012.5
8317.22
9911.2
11886.1
17794
6774.7
10575.5
11314.3
18413.7
6829.37
11148
11444
2579.86
2879.17
911.215
1764.32
7919.33
9266.7
3240.85
6095.39
12895.7
15303.5
5743.78
10252.8
17317.1
9168.03
17363.6
20657.2
10300.3
6765.86
10818.6
12148.5
20976.1
13123.4
9790.84
12753.1
14033.1
13473
16717.5
2824.58
2901.74
1716.92
1863.67
9070.91
8700.06
5802.2
5898.34
13618.2
12572.7
8542.3
8618.24
9635.56
10799.6
15233.4
16162.9
16748.1
15780
19756.1
18200.9
13438.2
13416.4
12903.5
14154.8
16605.1
15387.8
15544.2
13203.3
13818.2
11242
15187.3
12192.4
14115.3
7796.73
11060.6
10871.6
15589.1
18287.9
15920.4
20845.2
9293.5
9265.77
12749.4
6038.36
10646.3
16891.4
10972.7
17975.2
16137.2
25504.1
16644.3
26027.5
8957.92
14759.8
9227.12
15940.9
11002.5
8309.22
13983.8
6417.45
11969.3
4748.75
13247.1
3489.05
11376.7
11786.1
14616.2
7596.59
10226.6
13542.3
13400.2
9630.03
2706.53
2535.19
2230.23
1776.52
1750.15
1549.78
8075.63
7050.98
6237.8
5236.73
4438.72
3797.61
10636.1
9147.06
8448.96
7526.27
6158.61
5640.79
9788.12
8086.53
7755.88
15164.5
11509
9476.3
13511.5
10088.3
7947.94
14954.3
11911.2
10164.3
11377.9
7863.83
5961.11
18300
15104.2
13566.4
13319.6
10723.5
9020.77
11634.1
8897.76
7116.32
10280.2
7817.82
6315.53
10919.9
6646.14
4228.38
11314.9
18489.3
9567.75
13742
9122.81
18840
7618.95
15422.4
224.777
1607.51
-175.859
933.916
3534.83
6687.68
2200.25
4019.3
1870.63
3977.24
10929.7
16352.6
8674.34
6381.58
11482.5
10034.9
15321.9
16386.3
-517.602
-5363.76
8321.64
5867.44
6419.86
3705.02
1455.98
950.71
1150.03
706.069
3929.69
1295.04
1940.27
238.578
9959.76
3061.72
7422.77
2324.89
8395.83
2539.83
9503.54
3158.4
12190
12129.8
9510.16
12068.9
18274.2
16543.7
14986.4
15779.2
7161.93
9491.96
8352.72
8745.89
8914.89
12038.4
9376.74
12177.1
14318.3
15520.4
14843.5
15658.8
6346.7
9660.68
6161.08
9807.64
1041.35
1699.33
7810
4635.92
1032.07
1485
6840.06
3944.19
1014.79
1527.72
8266.31
5096.75
1319.2
1646.91
8371.92
5379.22
-133.141
-253.025
474.151
352.964
-740.716
-1252.06
859.375
640.68
1370.45
358.271
2776.39
2520.72
-7655.39
-3903.85
-4405.27
-2758.19
282.528
-7060.49
-10380.6
-4880.4
-4781.42
263.33
9259.22
6891.06
5833.93
6148.12
3858.09
-473.503
-365.121
202.562
333.838
-1376.43
-1586.98
692.124
960.498
-1096.58
-1769.4
1703.12
2138.11
-3153.42
-1726.77
-8100.69
-5834.96
-4245.46
-3089.88
-3717.73
-3120.31
635.943
1542.31
4876.43
3354.46
-468.331
-2278.18
-535.118
-1915.01
677.192
-462.953
1256.64
1757.2
4122.79
4574.45
9812.97
6254.83
8590.56
8430.52
12957.6
10174.2
7704.97
4816.51
2710.13
3418.85
11615
4925.4
12448.2
4529.47
14889.1
9783.38
15831.3
9368.06
9255.87
3554.84
10048.3
3085.94
6097.89
5117.05
4967.8
8606.81
3158.73
4165
3398.77
7290.29
6690.92
4839.26
5956.88
9853.09
7981.96
4631.52
6904.08
9809.05
-551.142
-750.223
-891.958
198.646
-155.588
-212.744
-2112.73
-2668.61
-2921.08
403.866
-621.217
-781.471
-2549.88
-3814.57
-4363.67
1178.03
-1106.71
-1589.38
-1022.17
-1586.05
-1444.49
-4659.72
-5072.62
-4741.93
-3633.6
-4371.12
-4266.42
-3807.7
-4976.57
-5210.67
777.973
-1617.07
-1579.87
3921.01
1866.66
1033.56
-1538.65
-2846.35
-3268.26
-1726.08
-3196.68
-3576.49
-969.63
-2800.48
-3195.53
2134.03
-1094.09
-1339.72
78.1388
-6.0918
-37.7589
-82.5911
-104.071
-103.544
-120.728
-125.803
223.769
-8.50923
-112.892
-238.661
-252.931
-255.003
-284.932
-311.769
456.834
55.7701
-123.665
-366.348
-32.3685
-212.054
-261.772
-360.61
-42.0168
-139.087