/*--------------------------------*- C++ -*----------------------------------*\
| =========                 |                                                 |
| \\      /  F ield         | OpenFOAM: The Open Source CFD Toolbox           |
|  \\    /   O peration     | Version:  2412                                  |
|   \\  /    A nd           | Website:  www.openfoam.com                      |
|    \\/     M anipulation  |                                                 |
\*---------------------------------------------------------------------------*/
FoamFile
{
    version     2.0;
    format      ascii;
    arch        "LSB;label=32;scalar=64";
    class       volScalarField;
    location    "2.7";
    object      T;
}
// * * * * * * * * * * * * * * * * * * * * * * * * * * * * * * * * * * * * * //

dimensions      [0 0 0 1 0 0 0];

internalField   nonuniform List<scalar> 
5712
(
541.495
557.383
529.094
548.143
512.493
534.513
486.727
510.698
490.091
514.308
513.942
537.779
524.885
546.647
535.156
553.945
503.983
488.525
520.574
496.594
478.622
461.77
494.214
468.741
548.981
555.415
561.428
564.635
539.605
548.049
554.311
559.303
538.47
526.264
514.116
507.424
539.745
549.728
539.718
545.076
504.256
511.044
516.866
522.455
476.416
482.353
550.795
555.538
522.939
531.93
560.742
566.144
560.029
567.609
567.111
570.721
553.407
565.145
562.434
569.016
544.331
560.937
552.783
565.253
558.948
567.37
562.677
568.697
475.657
461.734
482.593
464.579
442.918
430.392
450.297
434.025
508.964
491.854
503.044
489.004
487.392
466.526
490.2
467.569
455.501
436.443
458.489
437.747
513.467
493.803
516.071
494.78
533.425
558.969
518.677
548.856
528.089
555.428
515.178
545.796
537.205
560.737
520.747
550.633
539.229
561.474
521.651
551.737
556.153
547.208
564.926
558.212
548.902
539.921
561.896
554.318
538.286
528.622
556.621
547.882
461.702
423.696
495.091
520.934
548.902
422.458
459.863
491.321
515.93
541.19
421.735
456.784
485.641
510.484
539.599
529.265
512.732
532.932
517.21
524.157
507.588
530.918
514.781
515.636
499.375
527.312
510.928
415.781
403.393
453.083
441.206
482.573
468.403
504.658
489.221
523.721
507.132
414.577
400.809
448.685
435.914
476.504
462.767
499.888
484.661
520.809
503.526
447.183
436.781
445.953
435.447
413.395
393.616
411.971
390.09
474.918
466.794
475.669
466.82
445.205
434.158
445.738
434.803
411.75
388.557
412.758
390.001
474.168
465.726
474.696
466.322
500.997
493.325
523.102
516.192
500.826
492.174
522.546
513.737
500.396
492.457
523.027
516.506
500.463
492.617
522.867
515.89
493.619
477.815
469.19
496.581
480.119
471.362
488.995
472.865
464.25
493.856
476.719
467.716
480.021
463.417
454.442
489.357
471.236
461.778
387.396
375.92
370.089
424.897
409.907
401.813
451.315
434.503
425.046
470.149
453.103
443.971
484.185
464.839
454.647
383.543
371.399
364.786
421.034
407.482
400.44
446.418
431.027
422.866
465.069
447.372
437.914
478.412
458.96
448.976
418.704
405.609
422.501
409.881
447.224
431.62
455.42
437.695
391.302
371.4
392.535
373.398
392.083
371.809
393.866
374.423
391.974
388.739
391.321
384.874
370.718
374.986
412.633
415.524
441.937
445.715
393.573
395.971
393.896
395.7
377.393
379.08
350.021
331.457
355.64
334.899
351.451
331.146
357.051
335.098
352.443
330.555
359.324
335.744
362.45
338.053
364.639
339.95
384.467
372.843
391.676
377.759
410.961
398.117
418.93
402.999
371.248
357.765
363.771
353.075
395.762
380.697
398.245
382.328
423.68
405.921
426.459
407.43
375.096
360.621
377.279
362.275
354.157
332.848
342.153
326.654
347.461
328.474
338.217
323.752
358.02
335.795
344.724
328.634
360.307
337.855
346.371
329.95
332.495
321.184
324.515
316.919
333.533
322.715
324.163
316.991
334.868
326.168
323.574
317.728
364.676
388.811
347.601
336.497
322.496
386.883
361.225
341.564
329.754
318.04
387.128
363.159
345.502
332.842
320.313
311.717
302.425
308.703
299.552
314.176
304.872
309.73
300.798
318.476
309.754
311.461
302.904
380.217
367.923
354.377
343.149
336.238
327.419
324.263
315.7
313.728
305.664
379.976
367.294
356.722
345.745
339.589
330.107
327.059
317.832
316.526
308.4
359.762
346.204
360.788
345.448
381.248
364.922
382.024
362.524
343.81
331.362
342.657
331.31
361.678
344.885
363.075
346.277
383.185
360.652
384.637
362.058
344.698
331.457
345.936
332.613
329.519
319.124
318.985
308.891
329.269
318.496
318.301
308.711
329.72
319.79
319.351
308.865
331.299
320.541
320.042
310.1
290.71
284.272
281.773
283.287
278.739
277.235
293.977
287.217
284.416
284.657
279.935
278.238
299.132
292.138
289.362
286.758
281.669
279.889
354.448
345.115
340.729
332.294
324.79
321.576
317.03
310.19
307.565
304.642
297.594
294.759
288.741
283.563
281.551
352.838
342.756
337.926
333.586
324.769
320.493
318.72
310.885
307.287
305.231
298.617
296.084
289.942
285.024
282.606
317.225
308.528
302.909
298.046
318.755
309.144
303.196
298.087
317.099
308.56
303.025
298.223
319.002
309.365
303.451
298.337
316.798
308.567
303.21
298.509
319.323
309.68
303.796
298.665
320.591
310.445
304.158
298.815
321.861
311.298
304.585
298.999
318.23
309.431
303.808
298.918
315.818
308.642
303.447
299.14
316.132
308.46
303.33
298.833
314.416
307.934
303.081
299.093
319.825
310.281
304.186
298.994
317
309.32
303.8
299.275
321.089
311.059
304.619
299.228
318
309.969
304.22
299.569
314.68
307.574
302.518
298.082
311.65
306.491
302.047
298.215
314.505
307.562
302.58
298.223
311.669
306.541
302.102
298.332
314.199
307.532
302.675
298.471
311.95
306.721
302.25
298.552
313.682
307.458
302.76
298.793
312.079
306.853
302.405
298.821
313.047
307.332
302.753
299.05
308.845
305.595
301.526
298.733
307.217
305.164
301.3
298.955
309.269
305.77
301.637
298.826
307.709
305.357
301.41
299.04
309.956
306.071
301.825
298.986
308.522
305.692
301.598
299.192
310.778
306.438
302.099
299.222
309.512
306.119
301.864
299.399
311.809
306.922
302.431
299.475
310.444
306.57
302.144
299.619
313.259
307.872
302.956
299.883
311.715
307.516
302.744
300.102
312.583
307.376
302.681
299.682
311.167
307.047
302.439
299.858
313.896
308.397
303.243
300.071
312.29
308.032
303.056
300.349
314.687
308.994
303.631
300.353
313.086
308.622
303.446
300.656
292.769
288.989
286.15
284.267
283.331
292.781
288.998
286.156
284.271
283.334
292.844
289.027
286.171
284.28
283.341
292.873
289.048
286.185
284.289
283.348
292.927
289.07
286.195
284.295
283.352
293.006
289.125
286.23
284.318
283.369
293.193
289.237
286.298
284.362
283.403
293.376
289.351
286.369
284.409
283.438
293.106
289.171
286.255
284.334
283.381
293.146
289.178
286.257
284.334
283.382
293.016
289.115
286.221
284.312
283.365
293.09
289.144
286.236
284.321
283.371
293.215
289.239
286.298
284.362
283.403
293.253
289.244
286.298
284.361
283.402
293.41
289.364
286.375
284.412
283.441
293.443
289.366
286.374
284.411
283.44
292.76
288.979
286.143
284.263
283.328
292.762
288.973
286.139
284.26
283.325
292.818
289.007
286.158
284.272
283.334
292.814
288.998
286.152
284.268
283.331
292.897
289.044
286.178
284.284
283.344
292.888
289.032
286.17
284.279
283.339
292.985
289.087
286.202
284.299
283.355
292.962
289.07
286.192
284.292
283.349
293.043
289.117
286.22
284.31
283.363
540.809
536.622
540.082
535.841
538.703
534.429
537.019
532.542
535.527
530.722
535.752
532.875
535.517
531.983
535.822
533.079
535.993
533.225
566.215
571.51
572.664
572.925
572.981
560.602
570.002
572.323
572.853
572.964
566.299
571.555
572.677
572.929
572.982
560.53
570.028
572.334
572.857
572.965
566.269
571.584
572.687
572.932
572.983
560.304
570.028
572.342
572.859
572.966
566.258
571.616
572.697
572.934
572.984
559.994
570
572.34
572.859
572.966
566.24
571.62
572.697
572.933
572.983
559.7
569.936
572.323
572.854
572.965
565.059
571.207
572.582
572.904
572.975
558.988
569.524
572.188
572.818
572.954
565.535
571.392
572.636
572.918
572.979
559.258
569.716
572.255
572.837
572.959
564.739
571.083
572.544
572.893
572.972
558.819
569.409
572.145
572.805
572.95
564.835
571.096
572.543
572.892
572.971
558.872
569.403
572.136
572.801
572.948
425.958
463.329
460.421
423.627
405.638
407.451
412.613
415.724
425.222
428.391
451.035
457.88
455.292
461.822
433.493
435.978
424.523
426.891
416.191
418.132
366.56
348.895
304.33
298.603
302.966
299.253
303.964
366.751
361.193
343.078
350.699
345.122
322.994
333.279
328.265
317.621
320.925
316.093
360.917
335.529
320.135
317.722
324.151
319.842
312.159
312.402
310.634
307.622
314.72
312.919
360.928
340.132
346.861
329.935
323.732
335.617
313.132
306.847
316.292
350.834
335.933
322.536
307.818
287.166
338.373
326.937
314.578
300.487
282.994
301.217
296.835
291.072
284.279
276.835
296.102
292.549
287.839
282.263
276.149
300.005
295.818
290.294
283.783
276.663
296.683
293.035
288.2
282.485
276.223
300.893
296.562
290.858
284.138
276.785
350.82
334.454
320.137
305.129
286.117
344.734
328.812
314.744
300.168
282.878
333.183
321.911
309.676
296.313
281.2
336.415
322.102
309.083
295.749
281.196
332.261
318.713
306.342
293.754
280.262
317.187
309.654
300.45
290.054
278.805
325.282
315.696
304.77
292.789
279.796
321.204
312.47
302.291
291.108
279.158
312.74
306.18
297.923
288.472
278.252
315.425
308.214
299.342
289.321
278.539
311.448
305.15
297.161
287.992
278.085
347.079
332.185
318.737
304.202
285.575
327.705
318.122
307.055
294.597
280.516
314.935
308.006
299.34
289.407
278.586
312.924
306.441
298.227
288.734
278.358
318.367
310.807
301.509
290.86
279.117
314.795
308.008
299.45
289.54
278.639
308.134
302.577
295.395
286.989
277.76
308.341
302.732
295.481
287.019
277.767
306.774
301.411
294.451
286.344
277.529
304.132
299.245
292.853
285.366
277.2
310.313
304.287
296.579
287.665
277.981
308.778
303.069
295.707
287.142
277.806
346.845
332.513
319.507
305.179
285.955
331.523
321.473
310.087
297.044
281.566
337.37
325.125
312.786
298.839
281.598
323.407
314.995
304.864
293.167
279.918
318.158
310.756
301.566
290.929
279.117
328.004
318.39
307.354
294.805
280.418
308.983
303.267
295.897
287.291
277.862
303.446
298.68
292.442
285.121
277.119
311.715
305.484
297.535
288.31
278.212
506.032
544.702
498.402
535.028
475.19
515.634
482.263
526.441
489.431
478.829
515.798
492.567
465.772
453.794
490.606
465.741
523.114
537.034
552.843
558.528
517.381
531.489
546.574
553.625
532.687
511.403
509.849
497.651
526.881
544.671
538.144
544.743
502.538
510.629
515.545
522.133
475.184
482.042
549.068
555.205
521.212
531.524
559.398
565.936
549.279
563.907
563.419
569.465
543.107
561.727
558.721
567.781
535.991
558.176
549.087
564.001
557.6
566.871
562.409
568.588
472.762
462.296
480.866
464.931
442.841
433.774
450.067
435.888
506.537
491.322
498.714
487.903
486.611
466.779
490.002
467.673
455.438
437.459
458.492
438.095
512.362
493.601
515.778
494.735
531.099
558.088
517.915
548.505
523.727
553.759
513.643
545.088
536.159
560.332
520.416
550.48
538.953
561.363
521.561
551.696
538.428
526.361
558.97
550.779
532.135
520.62
556.613
547.784
524.746
513.926
552.471
543.103
464.028
434.88
490.904
514.593
546.348
435.117
462.28
485.696
507.704
537.87
431.526
459.401
483.997
507.727
538.333
507.923
493.395
522.996
510.056
504.625
489.966
522.695
509.111
500.762
486.59
521.811
507.688
428.161
418.018
455.373
444.924
477.622
465.282
497.535
484.25
520.543
505.935
424.491
411.873
452.291
441.783
476.191
465.268
498.283
485.701
519.799
504.271
450.062
440.921
447.998
438.225
419.571
401.174
415.837
394.933
475.73
468.258
476.388
468.781
446.39
435.716
446.123
435.292
413.77
391.01
413.392
390.759
474.741
466.635
474.895
466.618
501.169
493.957
523.087
516.421
500.581
492.921
522.24
513.987
500.613
492.903
523.093
516.691
500.555
492.781
522.9
515.958
482.443
476.654
498.191
492.647
478.717
472.386
496.744
489.977
475.246
468.639
494.257
485.627
407.474
401.716
435.063
428.193
455.342
447.687
472.892
464.984
490.632
480.102
397.599
392.934
432.041
426.224
454.794
447.58
472.283
463.039
485.524
475.081
411.478
403.587
419.604
409.819
437.79
426.762
452.682
436.139
393.394
375.505
397.79
379.013
391.519
375.362
396.456
379.05
393.453
388.264
393.225
386.648
374.833
378.787
412.988
415.699
441.41
445.603
394.834
396.483
395.235
396.196
379.879
380.005
362.031
343.778
364.152
344.76
362.54
342.67
364.424
343.764
362.472
340.837
365.165
342.646
365.983
342.357
365.855
341.438
390.605
381.661
394.777
382.753
414.222
404.774
420.399
406.636
375.97
363.56
372.515
362.826
397.404
383.361
398.752
383.213
424.451
407.839
426.701
408.069
377.597
363.778
378.054
363.329
360.158
338.849
348.079
332.005
357.818
337.46
347.715
331.711
361.254
339.285
348.044
331.745
361.312
338.988
347.494
330.991
358.215
354.617
341.286
337.241
358.448
354.949
339.951
335.952
357.695
354.41
337.862
334.134
385.126
407.307
367.566
354.313
334.829
408.24
385.847
367.001
352.453
332.434
403.347
380.843
362.119
347.29
330.964
350.14
343.313
330.693
319.527
350.855
344.55
330.016
319.373
350.479
344.162
328.885
318.908
401.7
392.497
380.428
372.669
363.142
357.07
348.44
341.38
328.477
319.391
396.13
383.978
375.093
364.736
357.208
348.11
342.326
332.969
327.686
319.277
370.493
356.93
367.021
351.697
390.691
375.01
387.551
368.59
350.111
337.268
353.308
341.431
364.847
347.959
364.062
347.215
385.955
363.639
385.494
362.97
347.961
334.387
346.967
333.519
335.24
324.198
323.987
313.001
338.861
327.087
326.075
315.365
332.802
322.416
322.13
311.03
332.348
321.397
320.883
310.747
335.95
332.929
299.041
295.864
339.073
335.484
299.864
296.441
337.558
332.562
300.498
296.385
383.512
378.264
365.146
360.808
349.775
345.517
332.629
327.342
300.726
295.891
371.697
367.796
354.055
350.192
337.644
333.77
320.533
317.234
298.606
294.845
325.879
314.18
306.734
300.602
326.391
314.313
306.773
300.507
325.232
313.902
306.647
300.633
325.774
313.992
306.678
300.526
324.102
313.41
306.535
300.75
324.815
313.482
306.472
300.469
324.151
312.962
305.91
299.948
323.127
312.205
305.226
299.428
322.766
312.588
306.061
300.489
319.892
311.525
305.545
300.711
322.38
312.663
306.262
300.856
320.138
311.848
305.806
301.021
322.613
312.27
305.651
300.072
319.452
311.098
305.14
300.336
322.041
311.747
305.125
299.593
318.824
310.574
304.681
299.937
324.778
313.849
306.656
300.838
323.044
313.341
306.43
301.184
324.148
313.608
306.575
300.887
322.545
313.163
306.352
301.217
323.109
313.199
306.448
301.012
321.756
312.844
306.229
301.298
321.531
312.553
306.202
301.167
320.907
312.48
306.092
301.381
320.116
312.014
305.908
301.243
320.981
312.839
306.037
302.044
319.514
312.573
305.906
302.473
320.756
312.729
306.009
302.042
319.336
312.466
305.869
302.456
320.292
312.498
305.921
302.015
318.971
312.248
305.771
302.411
319.806
312.196
305.842
301.998
318.576
311.951
305.662
302.358
319.152
311.78
305.704
301.959
317.948
311.56
305.496
302.277
317.287
310.794
305.042
301.541
315.683
310.464
304.844
301.812
318.306
311.343
305.43
301.809
316.857
311.058
305.218
302.096
316.287
310.195
304.554
301.141
314.615
309.833
304.362
301.425
315.471
309.596
304.075
300.718
313.838
309.218
303.882
301.018
294.24
289.864
286.679
284.609
283.592
294.203
289.85
286.672
284.605
283.589
294.208
289.834
286.659
284.596
283.581
294.143
289.807
286.644
284.587
283.574
294.166
289.8
286.636
284.58
283.569
294.03
289.736
286.6
284.558
283.552
293.835
289.622
286.532
284.514
283.519
293.628
289.503
286.461
284.469
283.484
293.998
289.702
286.577
284.542
283.54
294.036
289.706
286.576
284.541
283.539
294.114
289.762
286.611
284.564
283.557
294.109
289.743
286.597
284.554
283.549
293.861
289.628
286.534
284.515
283.519
293.9
289.635
286.535
284.515
283.519
293.63
289.497
286.456
284.465
283.481
293.672
289.506
286.459
284.466
283.482
294.291
289.881
286.687
284.614
283.595
294.335
289.892
286.692
284.617
283.597
294.274
289.861
286.672
284.604
283.587
294.322
289.875
286.679
284.608
283.59
294.249
289.833
286.652
284.59
283.577
294.299
289.849
286.66
284.595
283.58
294.206
289.797
286.629
284.575
283.565
294.245
289.813
286.638
284.58
283.569
294.158
289.768
286.612
284.564
283.556
535.605
531.871
535.672
531.911
535.583
531.801
535.17
531.168
534.756
530.373
535.706
532.929
535.254
531.924
535.847
533.154
536.008
533.256
565.361
571.354
572.633
572.919
572.98
559.162
569.695
572.261
572.841
572.961
565.577
571.422
572.65
572.923
572.981
559.305
569.763
572.28
572.846
572.963
565.746
571.485
572.667
572.927
572.982
559.42
569.827
572.3
572.851
572.964
565.942
571.552
572.684
572.931
572.983
559.463
569.869
572.311
572.853
572.965
566.093
571.587
572.689
572.931
572.983
559.451
569.863
572.305
572.851
572.964
565.041
571.2
572.579
572.903
572.975
558.968
569.511
572.184
572.816
572.953
565.473
571.374
572.631
572.917
572.979
559.164
569.681
572.246
572.834
572.959
564.739
571.08
572.543
572.893
572.972
558.826
569.406
572.143
572.804
572.949
564.837
571.096
572.543
572.892
572.971
558.877
569.403
572.136
572.8
572.948
425.888
463.006
459.169
422.904
416.804
422.96
414.632
422.176
443.391
459.076
447.251
462.108
282.583
283.213
284.617
286.839
289.884
293.748
283.119
283.738
285.109
287.252
290.182
293.913
282.142
281.921
282.787
282.567
284.242
284.034
286.614
286.495
289.878
290.003
294.094
294.695
298.348
304.075
311.498
321.43
329.781
335.834
298.481
303.999
310.526
317.663
323.805
327.721
281.672
280.362
278.603
276.504
274.192
282.241
280.844
278.969
276.733
274.27
283.509
281.918
279.786
277.242
274.443
285.516
283.618
281.076
278.048
274.717
288.263
285.941
282.838
279.147
275.091
291.742
288.879
285.065
280.536
275.562
282.156
280.772
278.915
276.699
274.258
282.715
281.246
279.275
276.923
274.335
283.953
282.294
280.071
277.42
274.504
285.888
283.932
281.314
278.196
274.767
288.529
286.165
283.008
279.253
275.127
291.889
289.001
285.157
280.594
275.583
281.274
280.024
278.346
276.343
274.138
281.074
279.854
278.217
276.263
274.11
281.857
280.518
278.722
276.578
274.217
281.657
280.349
278.593
276.498
274.19
283.171
281.632
279.568
277.106
274.397
282.983
281.473
279.447
277.031
274.371
285.313
283.446
280.946
277.966
274.689
285.205
283.355
280.877
277.923
274.675
288.258
285.937
282.835
279.145
275.09
288.37
286.032
282.907
279.19
275.105
292.055
289.143
285.264
280.659
275.604
292.594
289.597
285.606
280.871
275.676
295.874
292.359
287.698
282.179
276.121
300.992
296.654
290.945
284.207
276.812
307.569
302.136
295.09
286.815
277.706
316.234
309.289
300.531
290.308
278.925
323.34
315.109
305.039
293.329
280.041
328.394
319.228
308.285
295.582
280.893
295.99
292.456
287.773
282.227
276.138
300.926
296.602
290.91
284.19
276.807
306.729
301.456
294.586
286.5
277.599
313.023
306.695
298.566
289.028
278.474
318.388
311.146
301.969
291.226
279.249
321.786
313.963
304.142
292.651
279.758
282.703
283.578
285.248
287.769
291.151
295.389
283.241
284.108
285.742
288.17
291.401
295.438
282.26
282.037
283.148
282.923
284.872
284.659
287.56
287.445
291.199
291.344
295.901
296.639
300.354
306.379
313.936
323.603
331.307
336.387
300.275
305.969
312.497
319.37
324.975
328.139
281.781
280.454
278.674
276.548
274.207
282.572
281.126
279.184
276.867
274.316
284.082
282.406
280.158
277.476
274.523
286.361
284.338
281.627
278.393
274.835
289.415
286.925
283.592
279.621
275.252
293.238
290.16
286.048
281.156
275.774
282.267
280.867
278.987
276.744
274.274
283.051
281.532
279.493
277.06
274.381
284.528
282.784
280.445
277.655
274.584
286.722
284.643
281.858
278.538
274.884
289.638
287.113
283.734
279.71
275.282
293.278
290.191
286.071
281.17
275.779
281.38
280.114
278.415
276.387
274.152
281.179
279.944
278.285
276.306
274.125
282.183
280.796
278.934
276.711
274.263
281.98
280.624
278.803
276.629
274.235
283.742
282.118
279.939
277.339
274.476
283.55
281.956
279.816
277.262
274.45
286.172
284.179
281.506
278.318
274.809
286.069
284.091
281.44
278.277
274.795
289.459
286.964
283.622
279.64
275.259
289.591
287.075
283.707
279.693
275.277
293.702
290.554
286.348
281.343
275.838
294.368
291.119
286.778
281.611
275.929
297.706
293.933
288.912
282.945
276.383
303.107
298.48
292.359
285.105
277.12
309.823
304.099
296.625
287.797
278.045
318.268
311.085
301.958
291.234
279.247
324.787
316.402
306.081
294.018
280.284
328.924
319.707
308.675
295.844
280.987
297.628
293.863
288.857
282.912
276.373
302.73
298.158
292.115
284.953
277.069
308.544
303.03
295.812
287.282
277.868
314.605
308.077
299.65
289.725
278.715
319.479
312.105
302.728
291.717
279.42
322.177
314.308
304.417
292.83
279.821
367.411
349.655
307.138
300.894
306.401
302.008
307.224
375.356
373.641
351.853
364.568
330.029
341.804
324.054
328.68
322.163
366.727
341.742
326.044
322.845
329.679
324.227
315.429
316.568
316.032
312.238
320.229
317.74
363.558
342.284
351.228
333.038
327.527
340.529
316.944
310.712
320.863
351.745
336.805
323.315
308.421
287.417
339.13
327.641
315.174
300.909
283.151
303.798
299.068
292.806
285.382
277.214
298.196
294.35
289.228
283.143
276.45
303.16
298.546
292.411
285.129
277.126
299.205
295.206
289.878
283.547
276.588
303.889
299.154
292.872
285.419
277.225
360.504
343.995
328.613
311.438
288.749
359.09
342.697
326.934
309.122
286.504
342.225
330.497
316.976
301.395
283.089
352.4
337.184
322.034
305
284.833
324.031
315.904
305.555
293.444
280.005
334.003
323.919
311.675
297.504
281.512
318.865
311.679
302.347
291.37
279.267
322.901
315
304.858
292.971
279.827
317.217
310.322
301.318
290.711
279.035
353.308
338.242
324.079
308.149
287.213
333.834
323.795
311.773
297.8
281.673
320.572
313.076
303.427
292.09
279.527
317.758
310.744
301.665
290.975
279.14
323.659
315.585
305.382
293.42
280.019
318.929
311.686
302.391
291.458
279.308
311.17
305.234
297.484
288.331
278.224
312.219
306.135
298.163
288.746
278.365
311.785
305.797
297.9
288.562
278.296
308.392
302.947
295.745
287.214
277.837
315.495
308.885
300.239
290.041
278.807
313.28
307.034
298.842
289.166
278.507
349.632
335.147
321.814
306.904
286.68
333.624
323.396
311.681
298.136
281.965
341.777
329.228
316.259
301.252
282.427
326.37
317.662
307.025
294.598
280.418
321.749
313.962
304.139
292.615
279.705
332.81
322.8
311
297.266
281.288
312.533
306.384
298.355
288.875
278.41
307.012
301.78
294.861
286.666
277.651
316.005
309.282
300.555
290.27
278.893
280.44
294.685
307.507
318.493
327.184
333.646
487.732
482.616
459.572
464.716
474.855
468.404
452.045
443.356
507.092
523.987
503.163
519.491
497.864
488.991
514.663
477.969
474.232
452.003
455.973
467.776
463.009
445.686
438.892
496.859
510.28
494.332
507.16
490.009
482.655
503.435
464.343
462.017
441.263
444.02
457.36
454.616
436.437
431.357
481.438
494.924
479.863
493.006
477.141
472.06
490.521
450.633
449.058
429.905
432.052
445.582
443.852
425.869
421.418
466.911
480.4
465.856
478.885
463.664
459.407
476.824
440.74
439.366
421.585
423.574
435.988
434.049
417.628
412.614
455.894
468.209
455.133
467.625
453.26
449.227
466.023
433.879
432.547
415.954
417.893
429.195
427.172
412.074
407.144
447.566
460.136
446.836
459.976
445.293
441.515
458.392
410.438
407.527
433.248
436.952
403.641
396.459
427.652
418.738
387.739
368.725
385.312
368.07
380.154
378.699
366.998
406.358
403.492
427.739
430.965
399.716
392.86
422.627
414.585
382.739
366.307
380.198
365.948
375.562
374.535
364.822
400.334
397.657
419.529
422.168
394.102
388.021
415.16
408.424
380.5
364.481
378.181
363.553
373.833
372.762
361.876
393.542
390.826
410.352
412.717
386.717
380.18
406.189
399.277
376.319
361.413
373.747
359.621
369.056
367.17
356.87
388.568
385.814
403.633
405.931
381.764
375.151
399.483
392.511
373.021
359.691
370.091
356.608
364.937
362.183
352.511
385.529
382.735
399.208
401.487
378.72
372.048
395.096
388.294
371.901
358.067
368.704
354.07
362.64
359.278
349.33
542.111
557.795
529.092
548.115
512.494
534.503
486.732
510.699
490.1
514.31
513.952
537.773
524.902
546.636
535.98
554.501
503.982
488.523
520.569
496.592
478.625
461.771
494.215
468.742
549.418
555.736
561.701
564.834
539.598
548.034
554.281
559.275
538.459
526.257
514.111
507.419
539.734
549.715
539.716
545.075
504.255
511.043
516.866
522.455
476.416
482.353
550.791
555.537
522.936
531.928
560.739
566.143
560.279
567.72
567.266
570.784
553.388
565.14
562.411
569.01
544.32
560.933
552.773
565.25
558.944
567.369
562.676
568.696
475.655
461.733
482.591
464.578
442.918
430.391
450.297
434.025
508.961
491.852
503.04
489.002
487.391
466.525
490.199
467.568
455.501
436.443
458.489
437.746
513.465
493.801
516.069
494.779
533.421
558.967
518.675
548.855
528.084
555.426
515.176
545.795
537.202
560.736
520.745
550.632
539.228
561.474
521.65
551.737
556.394
547.435
565.059
558.358
548.875
539.89
561.889
554.308
538.272
528.61
556.617
547.879
461.7
423.695
495.087
520.928
548.9
422.458
459.861
491.317
515.924
541.188
421.734
456.782
485.638
510.481
539.598
529.462
512.898
533.068
517.317
524.143
507.571
530.928
514.788
515.628
499.369
527.314
510.931
415.781
403.393
453.081
441.205
482.571
468.401
504.654
489.218
523.721
507.133
414.577
400.809
448.683
435.913
476.502
462.765
499.886
484.66
520.808
503.526
447.182
436.78
445.952
435.447
413.394
393.616
411.971
390.09
474.917
466.794
475.668
466.819
445.205
434.157
445.737
434.803
411.75
388.557
412.757
390.001
474.167
465.725
474.696
466.322
500.996
493.324
523.102
516.192
500.824
492.173
522.545
513.737
500.395
492.456
523.026
516.506
500.462
492.616
522.867
515.889
493.789
478
469.393
496.697
480.26
471.519
488.985
472.858
464.248
493.861
476.725
467.724
480.017
463.415
454.442
489.36
471.239
461.782
387.396
375.92
370.089
424.896
409.907
401.814
451.314
434.503
425.046
470.147
453.102
443.972
484.186
464.84
454.649
383.543
371.399
364.787
421.034
407.483
400.44
446.417
431.027
422.866
465.069
447.373
437.915
478.413
458.961
448.978
418.713
405.613
422.509
409.884
447.231
431.623
455.426
437.698
391.183
371.35
392.386
373.326
392.07
371.798
393.852
374.414
391.972
388.737
391.322
384.874
370.714
374.983
412.635
415.526
441.938
445.716
393.574
395.973
393.898
395.702
377.393
379.081
349.974
331.452
355.579
334.883
351.45
331.138
357.05
335.094
352.442
330.552
359.323
335.742
362.45
338.053
364.641
339.95
384.469
372.844
391.678
377.76
410.963
398.117
418.931
402.999
371.249
357.766
363.771
353.076
395.763
380.698
398.246
382.329
423.68
405.921
426.46
407.431
375.097
360.621
377.281
362.276
354.158
332.848
342.153
326.654
347.462
328.473
338.218
323.753
358.02
335.795
344.725
328.635
360.308
337.855
346.372
329.951
332.457
321.123
324.511
316.897
333.535
322.719
324.156
316.987
334.869
326.171
323.571
317.727
364.677
388.811
347.602
336.498
322.496
386.884
361.226
341.566
329.756
318.041
387.129
363.16
345.503
332.843
320.314
311.636
302.33
308.679
299.519
314.187
304.884
309.738
300.809
318.481
309.762
311.465
302.91
380.217
367.924
354.379
343.151
336.24
327.422
324.267
315.704
313.73
305.668
379.976
367.295
356.723
345.746
339.59
330.108
327.061
317.834
316.527
308.402
359.763
346.205
360.788
345.449
381.249
364.923
382.025
362.525
343.81
331.362
342.658
331.311
361.678
344.885
363.076
346.277
383.185
360.652
384.637
362.059
344.699
331.457
345.936
332.613
329.52
319.124
318.986
308.892
329.27
318.497
318.302
308.712
329.721
319.79
319.351
308.865
331.3
320.541
320.042
310.1
290.619
284.185
281.687
283.283
278.724
277.218
293.998
287.236
284.432
284.673
279.948
278.248
299.142
292.148
289.37
286.765
281.675
279.894
354.449
345.117
340.73
332.296
324.792
321.578
317.034
310.193
307.568
304.647
297.599
294.763
288.745
283.566
281.554
352.839
342.757
337.927
333.587
324.77
320.495
318.722
310.887
307.29
305.234
298.619
296.086
289.943
285.026
282.608
317.226
308.525
302.902
298.037
318.747
309.135
303.184
298.074
317.096
308.559
303.024
298.223
319.002
309.365
303.45
298.337
316.797
308.567
303.21
298.509
319.322
309.68
303.796
298.665
320.591
310.445
304.158
298.815
321.862
311.299
304.586
298.999
318.231
309.431
303.808
298.918
315.819
308.643
303.447
299.14
316.132
308.46
303.33
298.833
314.416
307.934
303.081
299.093
319.825
310.282
304.186
298.994
317
309.321
303.8
299.275
321.09
311.06
304.619
299.228
318
309.97
304.22
299.57
314.684
307.573
302.514
298.075
311.645
306.488
302.043
298.21
314.503
307.561
302.579
298.223
311.669
306.54
302.101
298.332
314.198
307.532
302.675
298.471
311.951
306.722
302.249
298.551
313.682
307.458
302.76
298.793
312.08
306.853
302.405
298.821
313.047
307.332
302.753
299.05
308.841
305.592
301.523
298.728
307.206
305.159
301.297
298.951
309.273
305.771
301.637
298.825
307.714
305.358
301.41
299.039
309.958
306.072
301.825
298.985
308.525
305.693
301.598
299.192
310.779
306.439
302.099
299.222
309.513
306.119
301.864
299.398
311.81
306.922
302.431
299.475
310.445
306.571
302.144
299.618
313.259
307.873
302.956
299.883
311.716
307.516
302.744
300.102
312.584
307.376
302.681
299.682
311.167
307.048
302.439
299.858
313.896
308.398
303.243
300.072
312.29
308.032
303.056
300.349
314.688
308.995
303.632
300.354
313.087
308.622
303.446
300.656
292.765
288.987
286.149
284.267
283.331
292.777
288.996
286.155
284.271
283.334
292.844
289.027
286.171
284.281
283.341
292.872
289.048
286.185
284.29
283.348
292.927
289.07
286.195
284.296
283.352
293.006
289.125
286.23
284.318
283.37
293.193
289.237
286.298
284.363
283.403
293.376
289.351
286.369
284.409
283.439
293.106
289.171
286.255
284.334
283.382
293.146
289.178
286.257
284.335
283.382
293.016
289.115
286.221
284.312
283.365
293.09
289.144
286.236
284.321
283.371
293.215
289.239
286.298
284.362
283.403
293.253
289.245
286.298
284.362
283.402
293.41
289.364
286.375
284.413
283.441
293.443
289.366
286.374
284.411
283.44
292.756
288.977
286.142
284.262
283.327
292.759
288.972
286.138
284.259
283.325
292.818
289.007
286.158
284.272
283.335
292.814
288.998
286.152
284.268
283.331
292.897
289.045
286.179
284.284
283.344
292.888
289.032
286.17
284.279
283.339
292.985
289.087
286.202
284.299
283.355
292.962
289.07
286.192
284.292
283.35
293.043
289.117
286.22
284.31
283.363
540.866
536.684
540.097
535.856
538.71
534.436
537.022
532.545
535.528
530.723
535.752
532.874
535.517
531.983
535.822
533.078
535.992
533.224
566.249
571.518
572.665
572.926
572.981
560.627
570.008
572.324
572.853
572.964
566.311
571.558
572.678
572.929
572.982
560.543
570.033
572.335
572.857
572.965
566.274
571.585
572.688
572.932
572.983
560.311
570.03
572.343
572.86
572.966