/*--------------------------------*- C++ -*----------------------------------*\
| =========                 |                                                 |
| \\      /  F ield         | OpenFOAM: The Open Source CFD Toolbox           |
|  \\    /   O peration     | Version:  2412                                  |
|   \\  /    A nd           | Website:  www.openfoam.com                      |
|    \\/     M anipulation  |                                                 |
\*---------------------------------------------------------------------------*/
FoamFile
{
    version     2.0;
    format      ascii;
    arch        "LSB;label=32;scalar=64";
    class       volScalarField;
    location    "30/heater";
    object      T;
}
// * * * * * * * * * * * * * * * * * * * * * * * * * * * * * * * * * * * * * //

dimensions      [0 0 0 1 0 0 0];

internalField   nonuniform List<scalar> 
80
(
304.72461
304.51613
304.11658
303.56569
307.2632
306.93792
306.30244
305.40627
313.13184
312.55694
311.38672
309.6451
323.89958
322.98374
320.96177
317.5749
478.67388
479.41871
479.41705
478.68856
440.82563
441.67364
441.62506
440.73216
407.88277
408.50241
408.31584
407.44241
380.19362
380.44506
379.92318
378.88619
358.03861
357.75339
356.47074
354.53192
341.67596
340.65865
338.00814
332.35922
478.6738
479.41866
479.41701
478.68853
440.82548
441.67355
441.625
440.73216
407.8826
408.50233
408.31581
407.44246
380.19347
380.44501
379.9232
378.88629
358.03852
357.7534
356.4708
354.53207
341.67601
340.65874
338.00826
332.35935
323.89956
322.98379
320.96187
317.57502
313.1318
312.55698
311.38682
309.64523
307.26316
306.93794
306.30252
305.4064
304.72455
304.51615
304.11667
303.56583
)
;

boundaryField
{
    minY
    {
        type            fixedValue;
        value           uniform 500;
    }
    minZ
    {
        type            zeroGradient;
    }
    maxZ
    {
        type            zeroGradient;
    }
    heater_to_topAir
    {
        type            compressible::turbulentTemperatureRadCoupledMixed;
        refValue        nonuniform List<scalar> 
40
(
300.28189
300.52004
300.71646
300.8646
300.35959
300.66757
300.92393
301.11909
300.6356
301.1772
301.62325
301.95293
301.15663
302.14524
302.96143
303.55184
301.9982
303.71738
305.16322
306.21185
301.9982
303.71738
305.16323
306.21187
301.15663
302.14524
302.96143
303.55185
300.6356
301.1772
301.62325
301.95294
300.35959
300.66757
300.92394
301.1191
300.28188
300.52004
300.71646
300.86461
)
;
        refGradient     uniform 0;
        valueFraction   uniform 0.00032132529;
        source          uniform 0;
        logInterval     -1;
        writePrecision  8;
        updateHeader    1;
        writeToFile     0;
        useUserTime     1;
        kappaMethod     solidThermo;
        value           nonuniform List<scalar> 
40
(
304.71069
304.50281
304.10432
303.55486
307.24549
306.92098
306.28689
305.3926
313.10679
312.53301
311.3648
309.62598
323.86413
322.94984
320.9307
317.54804
341.62835
340.61277
337.96551
332.32215
341.62839
340.61286
337.96563
332.32228
323.86412
322.9499
320.9308
317.54817
313.10675
312.53304
311.3649
309.62612
307.24546
306.92101
306.28697
305.39273
304.71063
304.50283
304.1044
303.555
)
;
    }
    heater_to_rightSolid
    {
        type            compressible::turbulentTemperatureRadCoupledMixed;
        refValue        nonuniform List<scalar> 10(302.92709 304.35576 307.52005 312.85645 319.88941 319.88945 312.8565 307.52015 304.35586 302.9272);
        refGradient     uniform 0;
        valueFraction   uniform 0.49999997;
        source          uniform 0;
        logInterval     -1;
        writePrecision  8;
        updateHeader    1;
        writeToFile     0;
        useUserTime     1;
        kappaMethod     solidThermo;
        value           nonuniform List<scalar> 10(303.24141 304.87487 308.57425 315.20449 326.10998 326.11006 315.20458 308.57437 304.87498 303.24153);
    }
    heater_to_leftSolid
    {
        type            compressible::turbulentTemperatureRadCoupledMixed;
        refValue        nonuniform List<scalar> 10(300.00276 300.00502 300.01129 300.02563 300.04976 300.04976 300.02563 300.01129 300.00502 300.00276);
        refGradient     uniform 0;
        valueFraction   uniform 2.0832464e-05;
        source          uniform 0;
        logInterval     -1;
        thicknessLayers List<scalar> 1(0.001);
        kappaLayers     List<scalar> 1(0.0005);
        writePrecision  8;
        updateHeader    1;
        writeToFile     0;
        useUserTime     1;
        kappaMethod     solidThermo;
        value           nonuniform List<scalar> 10(304.71201 307.24756 313.11052 323.87094 341.64022 341.64026 323.87092 313.11049 307.24752 304.71195);
    }
    heater_to_bottomWater
    {
        type            compressible::turbulentTemperatureRadCoupledMixed;
        refValue        nonuniform List<scalar> 
92
(
300.08738
300.11847
300.12248
300.11251
300.13586
300.19392
300.20938
300.19813
300.38212
300.49697
300.50406
300.46364
306.0937
308.24046
309.88625
310.5958
303.70917
305.19333
306.46946
307.26548
302.46825
303.45532
304.28114
304.81944
301.73543
302.38945
302.89819
303.16839
301.77291
301.77291
302.50104
302.50104
302.85071
302.85071
302.83245
302.83245
315.92441
321.60658
309.29964
315.53268
306.32906
310.22692
304.60794
306.47174
303.67191
304.87867
315.92438
306.09369
308.24044
309.88624
321.60659
310.59579
309.29962
303.70916
305.19331
306.46944
315.5327
307.26547
306.32905
302.46825
303.45531
304.28113
310.22696
304.81944
304.60793
301.73543
302.38944
302.89819
306.47179
303.1684
303.6719
301.7729
302.50104
302.85073
304.87873
302.83247
301.7729
302.50104
302.85073
302.83247
300.38212
300.49697
300.50406
300.46364
300.13586
300.19391
300.20938
300.19814
300.08738
300.11847
300.12248
300.11251
)
;
        refGradient     uniform 0;
        valueFraction   nonuniform List<scalar> 
92
(
0.0075140686
0.0075140686
0.0075140686
0.0075140686
0.0075140686
0.0075140686
0.0075140686
0.0075140686
0.0075140686
0.0075140686
0.0075140686
0.0075140686
0.0075140686
0.0075140686
0.0075140686
0.0075140686
0.0075140686
0.0075140686
0.0075140686
0.0075140686
0.0075140686
0.0075140686
0.0075140686
0.0075140686
0.0075140686
0.0075140686
0.0075140686
0.0075140686
0.0075140686
0.0075140686
0.0075140686
0.0075140686
0.0075140686
0.0075140686
0.0075140686
0.0075140686
0.0075140679
0.0075140679
0.0075140679
0.0075140679
0.0075140679
0.0075140679
0.0075140679
0.0075140679
0.0075140679
0.0075140679
0.0075140679
0.0075140686
0.0075140686
0.0075140686
0.0075140679
0.0075140686
0.0075140679
0.0075140686
0.0075140686
0.0075140686
0.0075140679
0.0075140686
0.0075140679
0.0075140686
0.0075140686
0.0075140686
0.0075140679
0.0075140686
0.0075140679
0.0075140686
0.0075140686
0.0075140686
0.0075140679
0.0075140686
0.0075140679
0.0075140686
0.0075140686
0.0075140686
0.0075140679
0.0075140686
0.0075140686
0.0075140686
0.0075140686
0.0075140686
0.0075140686
0.0075140686
0.0075140686
0.0075140686
0.0075140686
0.0075140686
0.0075140686
0.0075140686
0.0075140686
0.0075140686
0.0075140686
0.0075140686
)
;
        source          uniform 0;
        logInterval     -1;
        writePrecision  8;
        updateHeader    1;
        writeToFile     0;
        useUserTime     1;
        kappaMethod     solidThermo;
        value           nonuniform List<scalar> 
92
(
304.67736
304.47113
304.07548
303.52985
307.19427
306.87243
306.24293
305.35493
313.01515
312.44619
311.2863
309.55958
477.37021
478.12557
478.13628
477.41857
439.77588
440.6286
440.59
439.70986
407.0616
407.68392
407.50511
406.64255
379.56933
379.82385
379.31015
378.28354
323.70538
357.57951
322.80283
357.30226
320.80058
356.03286
317.44193
354.10973
477.44408
477.5013
439.81789
439.77199
407.09061
406.68318
379.59091
378.30836
357.59378
354.12511
477.44401
477.37014
478.12552
478.13624
477.50128
477.41854
439.81774
439.77573
440.62851
440.58994
439.77198
439.70986
407.09044
407.06143
407.68384
407.50508
406.68323
406.6426
379.59077
379.56918
379.8238
379.31017
378.30847
378.28365
357.59369
357.57942
357.30227
356.03293
354.12526
354.10988
323.70536
322.80288
320.80068
317.44206
313.01511
312.44623
311.2864
309.55972
307.19423
306.87246
306.24302
305.35506
304.6773
304.47115
304.07556
303.52999
)
;
    }
}


// ************************************************************************* //
