/*--------------------------------*- C++ -*----------------------------------*\
| =========                 |                                                 |
| \\      /  F ield         | OpenFOAM: The Open Source CFD Toolbox           |
|  \\    /   O peration     | Version:  2412                                  |
|   \\  /    A nd           | Website:  www.openfoam.com                      |
|    \\/     M anipulation  |                                                 |
\*---------------------------------------------------------------------------*/
FoamFile
{
    version     2.0;
    format      ascii;
    arch        "LSB;label=32;scalar=64";
    class       volScalarField;
    location    "80/leftSolid";
    object      T;
}
// * * * * * * * * * * * * * * * * * * * * * * * * * * * * * * * * * * * * * //

dimensions      [0 0 0 1 0 0 0];

internalField   nonuniform List<scalar> 
130
(
300.0066
300.00726
300.0086
300.01068
300.01356
300.01731
300.02196
300.0275
300.03379
300.04055
300.04727
300.05316
300.05728
300.00682
300.00752
300.00897
300.01123
300.01441
300.0186
300.02394
300.03047
300.03819
300.04688
300.05604
300.06467
300.07114
300.00717
300.00796
300.00958
300.01215
300.01582
300.0208
300.02735
300.03573
300.0462
300.05887
300.07355
300.08929
300.10332
300.00753
300.0084
300.0102
300.01309
300.0173
300.02315
300.03107
300.04166
300.05565
300.07393
300.09748
300.12692
300.15994
300.00775
300.00867
300.0106
300.0137
300.01825
300.02468
300.03357
300.04578
300.06255
300.08578
300.11844
300.16545
300.23204
300.00775
300.00867
300.0106
300.0137
300.01825
300.02468
300.03357
300.04578
300.06255
300.08578
300.11844
300.16545
300.23204
300.00753
300.0084
300.0102
300.01309
300.0173
300.02315
300.03107
300.04166
300.05565
300.07393
300.09748
300.12692
300.15994
300.00717
300.00796
300.00958
300.01215
300.01582
300.0208
300.02735
300.03573
300.0462
300.05887
300.07355
300.08929
300.10332
300.00682
300.00752
300.00897
300.01123
300.01441
300.0186
300.02394
300.03047
300.03819
300.04688
300.05604
300.06467
300.07114
300.0066
300.00726
300.0086
300.01068
300.01356
300.01731
300.02196
300.0275
300.03379
300.04055
300.04727
300.05316
300.05728
)
;

boundaryField
{
    minX
    {
        type            zeroGradient;
    }
    minZ
    {
        type            zeroGradient;
    }
    maxZ
    {
        type            zeroGradient;
    }
    leftSolid_to_bottomWater
    {
        type            compressible::turbulentTemperatureRadCoupledMixed;
        refValue        nonuniform List<scalar> 
130
(
300.00014
300.00025
300.00037
300.00051
300.00069
300.00094
300.00126
300.00166
300.00215
300.00272
300.00337
300.00505
300.03526
300.00014
300.00026
300.00038
300.00052
300.0007
300.00095
300.00128
300.00172
300.00228
300.00298
300.00403
300.01034
300.09626
300.00015
300.00028
300.00041
300.00056
300.00078
300.00107
300.00148
300.00204
300.00279
300.00384
300.00643
300.04224
300.6209
300.00016
300.0003
300.00044
300.00062
300.00086
300.00121
300.00171
300.00243
300.00344
300.005
300.01165
300.1521
302.91409
300.00016
300.00031
300.00046
300.00065
300.00092
300.00131
300.00188
300.00272
300.00397
300.00612
300.02038
300.3954
309.94636
300.00016
300.00031
300.00046
300.00065
300.00092
300.00131
300.00188
300.00272
300.00397
300.00612
300.02038
300.3954
309.94635
300.00016
300.0003
300.00044
300.00062
300.00086
300.00121
300.00171
300.00243
300.00344
300.005
300.01165
300.1521
302.91407
300.00015
300.00028
300.00041
300.00056
300.00078
300.00107
300.00148
300.00204
300.00279
300.00384
300.00643
300.04224
300.62089
300.00014
300.00026
300.00038
300.00052
300.0007
300.00095
300.00128
300.00172
300.00228
300.00298
300.00403
300.01034
300.09625
300.00014
300.00025
300.00037
300.00051
300.00069
300.00094
300.00126
300.00166
300.00215
300.00272
300.00337
300.00505
300.03525
)
;
        refGradient     uniform 0;
        valueFraction   uniform 0.0075140686;
        source          uniform 0;
        logInterval     -1;
        writePrecision  8;
        updateHeader    1;
        writeToFile     0;
        useUserTime     1;
        kappaMethod     solidThermo;
        value           nonuniform List<scalar> 
130
(
300.00654
300.0072
300.00853
300.01059
300.01345
300.01717
300.02179
300.02728
300.03353
300.04024
300.0469
300.05277
300.05708
300.00676
300.00746
300.0089
300.01114
300.01429
300.01845
300.02375
300.03023
300.03789
300.04652
300.05561
300.06422
300.07128
300.00711
300.00789
300.0095
300.01205
300.01569
300.02064
300.02713
300.03545
300.04584
300.05842
300.07301
300.08889
300.10716
300.00746
300.00832
300.01012
300.01299
300.01716
300.02296
300.03083
300.04134
300.05522
300.07338
300.09679
300.12705
300.18057
300.00768
300.0086
300.01051
300.01358
300.01811
300.02449
300.03331
300.04543
300.06208
300.08514
300.11765
300.16712
300.30495
300.00768
300.0086
300.01051
300.01358
300.01811
300.02449
300.03331
300.04543
300.06208
300.08514
300.11765
300.16712
300.30495
300.00746
300.00832
300.01012
300.01299
300.01716
300.02296
300.03083
300.04134
300.05522
300.07338
300.09679
300.12705
300.18057
300.00711
300.00789
300.0095
300.01205
300.01569
300.02064
300.02713
300.03545
300.04584
300.05842
300.07301
300.08889
300.10716
300.00676
300.00746
300.0089
300.01114
300.01429
300.01845
300.02375
300.03023
300.03789
300.04652
300.05561
300.06422
300.07128
300.00654
300.0072
300.00853
300.01059
300.01345
300.01717
300.02179
300.02728
300.03353
300.04024
300.0469
300.05277
300.05708
)
;
    }
    leftSolid_to_heater
    {
        type            compressible::turbulentTemperatureRadCoupledMixed;
        refValue        nonuniform List<scalar> 10(327.46316 331.30579 339.41043 352.58143 371.75676 371.75678 352.58143 339.41043 331.30578 327.46311);
        refGradient     uniform 0;
        valueFraction   uniform 2.0832466e-05;
        source          uniform 0;
        logInterval     -1;
        thicknessLayers List<scalar> 1(0.001);
        kappaLayers     List<scalar> 1(0.0005);
        writePrecision  8;
        updateHeader    1;
        writeToFile     0;
        useUserTime     1;
        kappaMethod     solidThermo;
        value           nonuniform List<scalar> 10(300.05782 300.07174 300.10409 300.16097 300.23345 300.23345 300.16097 300.10409 300.07174 300.05782);
    }
    leftSolid_to_topAir
    {
        type            compressible::turbulentTemperatureRadCoupledMixed;
        refValue        nonuniform List<scalar> 
130
(
300.00028
300.00058
300.00093
300.00136
300.00191
300.00261
300.00352
300.00466
300.00607
300.00777
300.00981
300.01422
300.07558
300.00028
300.00059
300.00095
300.00138
300.00194
300.00265
300.00357
300.00474
300.00619
300.00798
300.01013
300.01414
300.06557
300.0003
300.00063
300.00101
300.00148
300.00209
300.00289
300.00394
300.00532
300.00709
300.00934
300.01219
300.01743
300.07992
300.00031
300.00066
300.00107
300.00158
300.00225
300.00315
300.00436
300.00599
300.00816
300.01105
300.01493
300.02238
300.10646
300.00032
300.00068
300.0011
300.00164
300.00236
300.00332
300.00464
300.00644
300.00891
300.01231
300.01713
300.02714
300.14154
300.00032
300.00068
300.0011
300.00164
300.00236
300.00332
300.00464
300.00644
300.00891
300.01231
300.01713
300.02714
300.14154
300.00031
300.00066
300.00107
300.00158
300.00225
300.00315
300.00436
300.00599
300.00816
300.01105
300.01493
300.02238
300.10646
300.0003
300.00063
300.00101
300.00148
300.00209
300.00289
300.00394
300.00532
300.00709
300.00934
300.01219
300.01743
300.07992
300.00028
300.00059
300.00095
300.00138
300.00194
300.00265
300.00357
300.00474
300.00619
300.00798
300.01013
300.01414
300.06557
300.00028
300.00058
300.00093
300.00136
300.00191
300.00261
300.00352
300.00466
300.00607
300.00777
300.00981
300.01422
300.07558
)
;
        refGradient     uniform 0;
        valueFraction   uniform 0.00032132529;
        source          uniform 0;
        logInterval     -1;
        writePrecision  8;
        updateHeader    1;
        writeToFile     0;
        useUserTime     1;
        kappaMethod     solidThermo;
        value           nonuniform List<scalar> 
130
(
300.00659
300.00725
300.00859
300.01067
300.01354
300.01729
300.02193
300.02747
300.03376
300.04051
300.04722
300.05311
300.05725
300.0068
300.00751
300.00896
300.01122
300.01439
300.01858
300.02391
300.03044
300.03815
300.04684
300.05598
300.06461
300.07109
300.00716
300.00794
300.00957
300.01213
300.0158
300.02078
300.02732
300.03569
300.04615
300.05882
300.07349
300.08922
300.10326
300.00751
300.00838
300.01019
300.01308
300.01728
300.02312
300.03104
300.04162
300.0556
300.07387
300.09741
300.12683
300.15986
300.00774
300.00866
300.01058
300.01368
300.01823
300.02465
300.03354
300.04574
300.0625
300.08571
300.11835
300.16535
300.23193
300.00774
300.00866
300.01058
300.01368
300.01823
300.02465
300.03354
300.04574
300.0625
300.08571
300.11835
300.16535
300.23193
300.00751
300.00838
300.01019
300.01308
300.01728
300.02312
300.03104
300.04162
300.0556
300.07387
300.09741
300.12683
300.15986
300.00716
300.00794
300.00957
300.01213
300.0158
300.02078
300.02732
300.03569
300.04615
300.05882
300.07349
300.08922
300.10326
300.0068
300.00751
300.00896
300.01122
300.01439
300.01858
300.02391
300.03044
300.03815
300.04684
300.05598
300.06461
300.07109
300.00659
300.00725
300.00859
300.01067
300.01354
300.01729
300.02193
300.02747
300.03376
300.04051
300.04722
300.05311
300.05725
)
;
    }
}


// ************************************************************************* //
