/*--------------------------------*- C++ -*----------------------------------*\
| =========                 |                                                 |
| \\      /  F ield         | OpenFOAM: The Open Source CFD Toolbox           |
|  \\    /   O peration     | Version:  2412                                  |
|   \\  /    A nd           | Website:  www.openfoam.com                      |
|    \\/     M anipulation  |                                                 |
\*---------------------------------------------------------------------------*/
FoamFile
{
    version     2.0;
    format      ascii;
    arch        "LSB;label=32;scalar=64";
    class       volScalarField;
    location    "40/heater";
    object      T;
}
// * * * * * * * * * * * * * * * * * * * * * * * * * * * * * * * * * * * * * //

dimensions      [0 0 0 1 0 0 0];

internalField   nonuniform List<scalar> 
80
(
309.5095
309.14775
308.45366
307.49203
312.8194
312.31484
311.33285
309.95014
320.08141
319.28433
317.67751
315.3096
332.54398
331.37272
328.82821
324.64634
480.5212
481.26972
481.27244
480.55731
446.0658
446.93864
446.8883
445.98548
415.81066
416.45518
416.23469
415.30208
389.83115
390.07456
389.44553
388.26655
368.34862
367.97608
366.44003
364.17918
351.7903
350.55058
347.40293
340.88664
480.52116
481.26969
481.27242
480.5573
446.06571
446.93859
446.88827
445.98547
415.81056
416.45513
416.23467
415.3021
389.83105
390.07453
389.44553
388.26661
368.34856
367.97608
366.44006
364.17926
351.79033
350.55063
347.40299
340.88671
332.54399
331.37276
328.82827
324.6464
320.0814
319.28436
317.67756
315.30967
312.81938
312.31487
311.33291
309.95023
309.50944
309.14777
308.45374
307.49216
)
;

boundaryField
{
    minY
    {
        type            fixedValue;
        value           uniform 500;
    }
    minZ
    {
        type            zeroGradient;
    }
    maxZ
    {
        type            zeroGradient;
    }
    heater_to_topAir
    {
        type            compressible::turbulentTemperatureRadCoupledMixed;
        refValue        nonuniform List<scalar> 
40
(
300.56614
301.04672
301.44954
301.76102
300.63469
301.18099
301.64307
302.0045
300.97125
301.80128
302.49404
303.02064
301.57258
302.91733
304.03773
304.87212
302.48177
304.61653
306.42202
307.76295
302.48177
304.61654
306.42202
307.76295
301.57259
302.91733
304.03774
304.87212
300.97125
301.80128
302.49405
303.02064
300.63469
301.18099
301.64307
302.00451
300.56614
301.04671
301.44954
301.76103
)
;
        refGradient     uniform 0;
        valueFraction   uniform 0.00032132529;
        source          uniform 0;
        logInterval     -1;
        writePrecision  8;
        updateHeader    1;
        writeToFile     0;
        useUserTime     1;
        kappaMethod     solidThermo;
        value           nonuniform List<scalar> 
40
(
309.49255
309.13147
308.4385
307.47836
312.79991
312.29614
311.31546
309.93453
320.05707
319.26103
317.65595
315.29041
332.51284
331.34293
328.80071
324.62214
351.75099
350.5128
347.36774
340.85568
351.75102
350.51285
347.3678
340.85575
332.51284
331.34296
328.80076
324.6222
320.05707
319.26106
317.656
315.29049
312.7999
312.29616
311.31552
309.93462
309.49249
309.13149
308.43858
307.47849
)
;
    }
    heater_to_rightSolid
    {
        type            compressible::turbulentTemperatureRadCoupledMixed;
        refValue        nonuniform List<scalar> 10(306.36207 308.31528 312.41974 318.89007 326.88271 326.88271 318.89008 312.4198 308.31536 306.36217);
        refGradient     uniform 0;
        valueFraction   uniform 0.49999997;
        source          uniform 0;
        logInterval     -1;
        writePrecision  8;
        updateHeader    1;
        writeToFile     0;
        useUserTime     1;
        kappaMethod     solidThermo;
        value           nonuniform List<scalar> 10(306.92113 309.12618 313.85705 321.75928 333.87451 333.87455 321.75931 313.85711 309.12626 306.92125);
    }
    heater_to_leftSolid
    {
        type            compressible::turbulentTemperatureRadCoupledMixed;
        refValue        nonuniform List<scalar> 10(300.00832 300.01308 300.02536 300.05059 300.08857 300.08857 300.05059 300.02536 300.01308 300.00832);
        refGradient     uniform 0;
        valueFraction   uniform 2.0832464e-05;
        source          uniform 0;
        logInterval     -1;
        thicknessLayers List<scalar> 1(0.001);
        kappaLayers     List<scalar> 1(0.0005);
        writePrecision  8;
        updateHeader    1;
        writeToFile     0;
        useUserTime     1;
        kappaMethod     solidThermo;
        value           nonuniform List<scalar> 10(309.49522 312.80356 320.06279 332.52211 351.76575 351.76578 332.52211 320.06278 312.80354 309.49516);
    }
    heater_to_bottomWater
    {
        type            compressible::turbulentTemperatureRadCoupledMixed;
        refValue        nonuniform List<scalar> 
92
(
300.23002
300.33537
300.36809
300.35655
300.29624
300.45217
300.52082
300.5254
300.72312
300.99089
301.07149
301.04959
307.37808
309.88922
311.97879
313.02468
304.30917
306.11835
307.80708
309.11069
302.96913
304.22534
305.38133
306.31908
302.33261
303.24577
304.03778
304.58613
302.78261
302.78261
303.9812
303.9812
304.6982
304.6982
304.81824
304.81824
318.37962
327.2135
310.35879
320.93403
307.30722
314.56818
305.91489
309.76677
305.54747
308.07641
318.3796
307.37807
309.8892
311.97877
327.2135
313.02467
310.35877
304.30917
306.11834
307.80707
320.93404
309.11067
307.30721
302.96912
304.22533
305.38132
314.56821
306.31907
305.91488
302.33261
303.24576
304.03777
309.76681
304.58613
305.54746
302.7826
303.9812
304.6982
308.07645
304.81825
302.7826
303.9812
304.6982
304.81825
300.72312
300.99089
301.07149
301.0496
300.29624
300.45217
300.52082
300.52541
300.23002
300.33537
300.36809
300.35655
)
;
        refGradient     uniform 0;
        valueFraction   nonuniform List<scalar> 
92
(
0.0075140686
0.0075140686
0.0075140686
0.0075140686
0.0075140686
0.0075140686
0.0075140686
0.0075140686
0.0075140686
0.0075140686
0.0075140686
0.0075140686
0.0075140686
0.0075140686
0.0075140686
0.0075140686
0.0075140686
0.0075140686
0.0075140686
0.0075140686
0.0075140686
0.0075140686
0.0075140686
0.0075140686
0.0075140686
0.0075140686
0.0075140686
0.0075140686
0.0075140686
0.0075140686
0.0075140686
0.0075140686
0.0075140686
0.0075140686
0.0075140686
0.0075140686
0.0075140679
0.0075140679
0.0075140679
0.0075140679
0.0075140679
0.0075140679
0.0075140679
0.0075140679
0.0075140679
0.0075140679
0.0075140679
0.0075140686
0.0075140686
0.0075140686
0.0075140679
0.0075140686
0.0075140679
0.0075140686
0.0075140686
0.0075140686
0.0075140679
0.0075140686
0.0075140679
0.0075140686
0.0075140686
0.0075140686
0.0075140679
0.0075140686
0.0075140679
0.0075140686
0.0075140686
0.0075140686
0.0075140679
0.0075140686
0.0075140679
0.0075140686
0.0075140686
0.0075140686
0.0075140679
0.0075140686
0.0075140686
0.0075140686
0.0075140686
0.0075140686
0.0075140686
0.0075140686
0.0075140686
0.0075140686
0.0075140686
0.0075140686
0.0075140686
0.0075140686
0.0075140686
0.0075140686
0.0075140686
0.0075140686
)
;
        source          uniform 0;
        logInterval     -1;
        writePrecision  8;
        updateHeader    1;
        writeToFile     0;
        useUserTime     1;
        kappaMethod     solidThermo;
        value           nonuniform List<scalar> 
92
(
309.4258
309.06795
308.38009
307.42667
312.70984
312.21069
311.23743
309.86636
319.91789
319.12932
317.53617
315.18732
479.21628
479.97803
479.99642
479.29448
444.9895
445.86931
445.83202
444.94577
414.94572
415.59477
415.38467
414.46621
389.1526
389.40104
388.78289
387.61715
332.29931
367.83287
331.1464
367.4723
328.6275
365.95366
324.47964
363.71134
479.29895
479.4011
445.03495
445.03461
414.97832
414.52819
389.17952
387.65608
367.85364
363.73582
479.29891
479.21624
479.978
479.9964
479.40108
479.29447
445.03487
444.98941
445.86926
445.83199
445.03461
444.94577
414.97822
414.94562
415.59472
415.38465
414.52821
414.46623
389.17942
389.15251
389.40101
388.78289
387.65614
387.61721
367.85358
367.83281
367.4723
365.95369
363.7359
363.71142
332.29932
331.14643
328.62756
324.47969
319.91788
319.12935
317.53622
315.18739
312.70982
312.21071
311.2375
309.86644
309.42574
309.06797
308.38016
307.4268
)
;
    }
}


// ************************************************************************* //
