/*--------------------------------*- C++ -*----------------------------------*\
| =========                 |                                                 |
| \\      /  F ield         | OpenFOAM: The Open Source CFD Toolbox           |
|  \\    /   O peration     | Version:  2412                                  |
|   \\  /    A nd           | Website:  www.openfoam.com                      |
|    \\/     M anipulation  |                                                 |
\*---------------------------------------------------------------------------*/
FoamFile
{
    version     2.0;
    format      ascii;
    arch        "LSB;label=32;scalar=64";
    class       volVectorField;
    location    "0.9";
    object      flux;
}
// * * * * * * * * * * * * * * * * * * * * * * * * * * * * * * * * * * * * * //

dimensions      [0 1 -1 1 0 0 0];

internalField   nonuniform List<vector> 
5712
(
(-0.371556 0.586007 0.349913)
(-0.456135 0.322205 1.05838)
(-0.841896 1.012 0.267159)
(-1.32634 0.667184 1.15272)
(-1.28382 0.977328 0.144926)
(-2.50276 0.837502 1.21059)
(-0.879146 1.41667 0.24211)
(-2.64017 1.77925 1.88916)
(-0.900992 2.16654 0.39337)
(-2.1103 2.77457 2.36505)
(-1.10888 1.15838 0.407115)
(-1.83247 1.02554 1.69594)
(-0.844221 0.711685 0.437267)
(-1.12749 0.494258 1.51538)
(-0.45521 0.473841 0.432703)
(-0.465859 0.270211 1.30917)
(-0.636818 0.945542 0.200407)
(-0.738629 0.813372 0.115613)
(-0.851501 0.865779 0.610478)
(-0.78203 0.833134 0.298356)
(-0.584589 1.07919 0.185945)
(-0.879207 1.00464 0.0877866)
(-0.862358 1.26844 0.647119)
(-0.864186 1.06152 0.263041)
(-0.251472 0.338202 0.272151)
(-0.189762 0.228382 0.208362)
(-0.339739 0.177615 0.800213)
(-0.24959 0.122757 0.603798)
(-0.576746 0.485057 0.1824)
(-0.39307 0.304417 0.150553)
(-1.05302 0.270966 0.803796)
(-0.75249 0.176512 0.627813)
(-0.875318 1.00878 0.413659)
(-0.900451 1.04687 0.153052)
(-0.914183 0.877184 0.324685)
(-0.959461 0.673099 0.12492)
(-0.232361 0.693193 0.152653)
(-0.194141 0.560468 0.394928)
(-1.99905 0.598325 1.87629)
(-2.47169 0.57571 0.567894)
(-1.07749 0.785368 0.568624)
(-1.43004 0.780942 0.251714)
(-2.53527 1.64973 2.24306)
(-3.12591 1.82819 0.693949)
(-1.18178 1.14919 0.516538)
(-1.45396 1.22858 0.228712)
(-1.51972 0.884084 1.26761)
(-1.98547 0.697912 0.419685)
(-1.22718 0.874539 0.648384)
(-1.68758 0.608649 0.289269)
(-0.714095 0.373115 1.05347)
(-0.896355 0.326925 0.332406)
(-0.153638 0.29376 0.302187)
(-0.0496635 0.483772 0.16217)
(-0.196571 0.147432 0.463467)
(-0.0693028 0.214079 0.19242)
(-0.34606 0.387347 0.280154)
(-0.143849 0.637124 0.170402)
(-0.583157 0.247554 0.484107)
(-0.217094 0.35677 0.188678)
(-0.401274 0.387335 0.362752)
(-0.133394 0.755199 0.228821)
(-0.386406 0.300403 0.310788)
(-0.110902 0.523674 0.136155)
(-0.746657 0.0904463 0.521542)
(-0.220216 0.347198 0.192761)
(-0.974452 0.0132359 0.202286)
(-0.30953 0.246933 0.0762836)
(-1.20816 0.766292 0.661146)
(-0.70352 0.929417 0.516591)
(-1.01443 0.832137 0.385933)
(-0.701799 0.935954 0.357037)
(-1.20162 0.953922 0.68054)
(-0.777188 0.955879 0.602104)
(-0.950708 1.00112 0.360914)
(-0.756329 0.952591 0.386221)
(-0.813803 0.769743 0.378696)
(-0.59125 0.935681 0.34144)
(-0.905136 0.748715 0.53106)
(-0.583067 0.913153 0.470381)
(-0.983509 0.846419 0.274961)
(-0.716684 0.938944 0.24204)
(-1.01746 0.836806 0.147749)
(-0.73195 0.939021 0.127606)
(-0.93124 1.02521 0.256918)
(-0.762713 0.951586 0.256772)
(-0.968709 1.03545 0.133677)
(-0.774717 0.951345 0.13422)
(-0.832674 0.730274 0.276083)
(-0.615916 0.942491 0.227066)
(-0.894988 0.668407 0.151093)
(-0.635372 0.942108 0.109138)
(-0.904095 0.852714 0.337536)
(-0.382411 0.957107 0.193423)
(-0.533783 1.0725 0.352759)
(-0.62315 1.5824 0.378156)
(-0.98053 0.89782 0.477806)
(-0.448425 1.13081 0.361386)
(-0.541684 1.07153 0.526288)
(-0.667301 1.76738 0.66565)
(-0.901429 0.804717 0.233577)
(-0.352306 0.836889 0.103389)
(-0.550512 1.06334 0.217467)
(-0.605293 1.4843 0.220282)
(-0.931417 0.773784 0.124742)
(-0.353148 0.764633 0.0453744)
(-0.574551 1.06165 0.0934904)
(-0.606824 1.43899 0.082048)
(-0.149207 0.253553 0.3811)
(-0.170546 0.332662 0.73748)
(-0.0534822 0.700361 0.267149)
(-0.113084 1.19348 0.827693)
(-0.428004 0.296963 0.412978)
(-0.507233 0.342977 0.738854)
(-0.183511 0.849368 0.316288)
(-0.365645 1.31077 0.871409)
(-0.697717 0.342351 0.521942)
(-0.829543 0.35988 0.715948)
(-0.338276 1.0187 0.428558)
(-0.619149 1.43184 0.869536)
(-0.752404 1.07659 0.504241)
(-0.383385 1.11351 0.53313)
(-0.824998 0.974031 0.449249)
(-1.05146 0.943575 0.463785)
(-0.560014 1.40185 0.53021)
(-0.261233 1.12523 0.352335)
(-0.423158 1.02414 0.445372)
(-0.568597 0.96334 0.648919)
(-1.06793 0.85561 0.784229)
(-0.757378 1.62987 1.12474)
(-0.475577 1.02842 0.483206)
(-0.646322 0.99221 0.444458)
(-0.748095 0.882125 0.459863)
(-0.761736 0.991923 0.582408)
(-0.97726 2.05514 0.884736)
(-0.160238 0.0840053 0.919275)
(-0.160727 0.111305 0.892784)
(-0.103289 0.243834 1.0728)
(-0.108424 0.534795 1.09062)
(-0.473186 0.116862 0.886437)
(-0.431375 0.167369 0.887374)
(-0.324444 0.310852 1.06623)
(-0.321819 0.598963 1.07004)
(-0.705681 0.169967 0.799165)
(-0.612555 0.16337 0.829999)
(-0.484821 0.403142 1.00653)
(-0.473816 0.6803 1.02399)
(-0.396236 1.06616 0.440182)
(-0.434466 1.00726 0.46902)
(-0.624479 0.922275 0.489538)
(-0.661866 0.83268 0.522236)
(-0.773746 0.834825 0.610302)
(-0.719706 0.694283 0.632706)
(-0.963086 0.634288 0.740239)
(-0.861206 0.533426 0.740593)
(-0.730454 0.546642 0.958006)
(-0.718889 0.846626 0.984622)
(-0.559611 0.947115 0.395355)
(-0.565281 0.812693 0.444697)
(-0.730975 0.910562 0.484844)
(-0.612373 0.811459 0.550848)
(-0.71761 0.809686 0.574469)
(-0.548688 0.709592 0.659294)
(-0.675006 0.748968 0.688839)
(-0.493152 0.63049 0.791766)
(-0.804234 0.636763 0.921723)
(-0.608293 0.894691 1.03921)
(-0.595803 0.958922 0.468261)
(-0.261997 1.00484 0.320176)
(-0.478559 1.00264 0.372088)
(-0.429671 1.08699 0.358987)
(-0.649123 0.929158 0.49067)
(-0.706778 0.842267 0.527171)
(-0.665591 0.955174 0.393983)
(-0.827038 0.902166 0.492872)
(-0.416051 0.914014 0.363237)
(-0.375483 0.912076 0.353209)
(-0.55395 0.897024 0.471263)
(-0.184409 0.875608 0.341366)
(-0.473199 1.02403 0.164176)
(-0.702784 1.11615 0.254101)
(-0.496949 1.02156 0.0579043)
(-0.762842 1.11087 0.0882485)
(-0.68138 0.975202 0.239313)
(-1.02712 0.945639 0.357624)
(-0.711009 0.969889 0.0829641)
(-1.06607 0.943953 0.125766)
(-0.417617 0.904585 0.150879)
(-0.640125 0.903875 0.236878)
(-0.44078 0.919419 0.0502214)
(-0.706185 0.913683 0.0815838)
(-0.524072 0.823774 0.361556)
(-0.35462 0.803351 0.302222)
(-0.704272 0.583295 0.382651)
(-0.286737 0.701614 0.244988)
(-0.55051 0.834104 0.518593)
(-0.134821 0.791768 0.376037)
(-0.660672 0.60887 0.606064)
(-0.0896747 0.742448 0.416251)
(-0.555702 0.797151 0.176302)
(-0.535612 0.788368 0.189277)
(-0.744263 0.572617 0.216862)
(-0.364752 0.694675 0.12723)
(-0.510444 0.803395 0.122255)
(-0.628232 0.778796 0.127463)
(-0.690972 0.565166 0.136051)
(-0.470657 0.675213 0.101405)
(-0.143097 0.0876487 0.786509)
(-0.126358 0.0649973 0.523698)
(-0.098548 0.0442378 0.17526)
(-0.093832 0.0442711 0.851863)
(-0.0877857 0.0341509 0.542744)
(-0.0716007 0.0331955 0.18886)
(-0.37437 0.135387 0.766643)
(-0.295993 0.0834733 0.508892)
(-0.234429 0.0589419 0.177601)
(-0.258174 0.105703 0.8407)
(-0.197529 0.0872161 0.538132)
(-0.151718 0.0686622 0.184715)
(-0.473358 0.132933 0.719381)
(-0.360936 0.110447 0.471301)
(-0.303484 0.107514 0.159092)
(-0.374974 0.191176 0.812519)
(-0.270163 0.150034 0.524273)
(-0.222043 0.12616 0.1814)
(-0.363871 0.880068 0.352052)
(-0.252234 0.695168 0.213538)
(-0.215799 0.583085 0.0626077)
(-0.592733 0.761795 0.460805)
(-0.37847 0.640667 0.316328)
(-0.271697 0.55912 0.104116)
(-0.577219 0.538373 0.561102)
(-0.366747 0.464761 0.391812)
(-0.247738 0.422516 0.133029)
(-0.667228 0.41352 0.643086)
(-0.461311 0.351632 0.42598)
(-0.346204 0.316421 0.141937)
(-0.58255 0.31369 0.77266)
(-0.354656 0.201942 0.497263)
(-0.231676 0.146757 0.175586)
(-0.679385 0.697113 0.370437)
(-0.484654 0.570557 0.213906)
(-0.382908 0.49159 0.073813)
(-0.531983 0.724108 0.426927)
(-0.367116 0.598973 0.284652)
(-0.263101 0.527692 0.102881)
(-0.506496 0.560433 0.508982)
(-0.330775 0.439532 0.342164)
(-0.221904 0.377936 0.1214)
(-0.487987 0.428203 0.61036)
(-0.318126 0.333981 0.397037)
(-0.214338 0.288618 0.138847)
(-0.582332 0.314668 0.736006)
(-0.313521 0.201223 0.442401)
(-0.164548 0.146703 0.156119)
(-0.499904 1.20847 -0.0232824)
(-0.799382 1.22768 0.0370014)
(-0.434237 1.30545 0.0096714)
(-0.606163 1.17586 0.10191)
(-0.42859 1.20796 0.0801505)
(-0.861026 1.1785 0.0780654)
(-0.367371 1.46647 0.204197)
(-0.71257 1.23099 0.175606)
(-0.00428122 0.749479 0.0239152)
(-0.0663355 0.797794 0.0355605)
(0.0118632 0.753314 0.0252968)
(-0.041366 0.722554 0.0372409)
(-0.142848 0.999782 0.0119443)
(-0.264616 0.852085 0.0334155)
(-0.094593 0.989762 0.0224934)
(-0.16851 0.760538 0.0492581)
(-0.0885791 1.08746 0.0612413)
(-0.167244 1.11752 0.0403543)
(-0.463149 0.923322 0.141454)
(-0.673766 1.01883 0.10379)
(-0.347446 1.17439 0.0612905)
(-0.274994 1.05177 0.0944334)
(-0.512888 1.23765 0.112655)
(-0.451384 1.29626 0.00854059)
(-0.712614 1.33761 0.258032)
(-0.766405 1.4488 0.0640582)
(0.0154761 1.04943 -0.201363)
(0.230174 1.08525 -0.0635135)
(-0.358447 0.908572 0.00646303)
(-0.249803 0.90155 -0.00129292)
(-0.274933 1.0228 -0.0286165)
(-0.156203 0.992859 -0.0318009)
(-0.0619381 0.653668 0.377643)
(-0.0392844 0.368242 0.147217)
(-0.0533545 0.618632 0.0983908)
(-0.0342035 0.407614 0.0520639)
(-0.155423 0.637468 0.370761)
(-0.0482283 0.360922 0.147103)
(-0.0859924 0.598846 0.105353)
(-0.0181287 0.394743 0.059636)
(-0.399282 0.584461 0.353095)
(-0.112068 0.332738 0.155542)
(-0.313524 0.559715 0.13186)
(-0.0979728 0.374601 0.0802287)
(-0.352339 0.552348 0.0955933)
(-0.105194 0.388587 0.0512611)
(-0.393843 0.531428 0.0337232)
(-0.124427 0.386774 0.0291646)
(-0.5373 0.913829 0.539666)
(-0.505939 0.690289 0.4661)
(-0.415099 0.912553 0.227651)
(-0.494279 0.709064 0.292064)
(-0.841666 1.03836 0.654189)
(-0.734595 0.901319 0.606862)
(-0.683587 1.06396 0.31241)
(-0.689811 0.904063 0.372397)
(-0.292223 0.828522 0.188047)
(-0.355575 0.541868 0.228304)
(-0.342508 0.845421 0.423758)
(-0.332729 0.513905 0.340973)
(-0.38634 0.942474 0.135091)
(-0.485473 0.720413 0.182374)
(-0.403505 0.975171 0.0639462)
(-0.486736 0.723487 0.093782)
(-0.650909 1.1053 0.200138)
(-0.669726 0.909974 0.234176)
(-0.673639 1.13409 0.101602)
(-0.671674 0.91244 0.121078)
(-0.256846 0.815016 0.0951796)
(-0.356057 0.554651 0.143118)
(-0.246055 0.813394 0.0395917)
(-0.357116 0.557239 0.0767793)
(-0.0235135 0.478331 0.153438)
(-0.0384624 0.322712 0.0924685)
(-0.259899 0.402679 0.172475)
(-0.117973 0.261085 0.0959987)
(-0.0259643 0.433934 0.279535)
(-0.0299756 0.287556 0.138989)
(-0.229436 0.370524 0.237552)
(-0.099243 0.238412 0.12875)
(-0.0222532 0.493284 0.0801767)
(-0.0337556 0.342039 0.0572459)
(-0.271342 0.417574 0.113909)
(-0.12916 0.273745 0.0616653)
(-0.0313043 0.497853 0.0319503)
(-0.0362204 0.353441 0.0283114)
(-0.271197 0.421606 0.0644877)
(-0.134984 0.280221 0.0333834)
(0.00684864 0.103935 0.426203)
(0.0129788 0.0548294 0.249089)
(-0.017249 0.195171 0.18381)
(-0.00911008 0.115738 0.168794)
(0.0324021 0.106634 0.422675)
(0.0521397 0.0620299 0.251015)
(-0.025902 0.197315 0.17891)
(-0.011398 0.125752 0.164425)
(-0.0395488 0.114132 0.427636)
(0.000717711 0.0808121 0.246835)
(-0.081134 0.194471 0.178223)
(-0.0621176 0.141542 0.152481)
(0.273979 0.495837 0.541286)
(0.138653 0.864633 0.568269)
(0.158285 0.319704 0.465699)
(0.109069 0.290348 0.328302)
(0.0090392 0.214954 0.157903)
(0.272926 0.877627 0.342906)
(0.384621 0.540084 0.374292)
(0.172675 0.292991 0.360116)
(0.175576 0.260689 0.305887)
(0.011987 0.168561 0.176332)
(-0.410907 0.851598 0.492459)
(-0.287686 0.594634 0.40279)
(-0.214609 0.425273 0.304197)
(-0.19696 0.308021 0.22044)
(-0.091764 0.203291 0.117636)
(0.0182375 0.0356318 0.180545)
(0.0143998 0.0297498 0.153262)
(-0.0037736 0.081104 0.162052)
(-0.00428071 0.0694404 0.168853)
(0.0519449 0.0437587 0.185391)
(0.0512442 0.0312466 0.155361)
(-0.00907014 0.0950543 0.160059)
(-0.00945746 0.080432 0.168197)
(0.0462614 0.0609402 0.187081)
(0.0579414 0.0467453 0.159479)
(-0.0330218 0.112481 0.154931)
(-0.0314923 0.0956776 0.16544)
(0.0976701 0.871486 0.383404)
(0.0258911 0.77883 0.363907)
(0.277324 0.5272 0.320009)
(0.168984 0.443093 0.270591)
(0.139665 0.316386 0.213309)
(0.084313 0.273492 0.203166)
(0.130508 0.239404 0.178785)
(0.0966891 0.203192 0.171578)
(0.00689094 0.152815 0.136956)
(-0.00752563 0.130838 0.160494)
(-0.225239 0.76022 0.28854)
(-0.159818 0.612156 0.325255)
(-0.00730235 0.530072 0.220092)
(0.0474728 0.419046 0.244627)
(0.0146773 0.381894 0.17215)
(0.0497764 0.312381 0.189025)
(-0.00631467 0.266691 0.142757)
(0.0257113 0.224932 0.159436)
(-0.00482455 0.183583 0.10167)
(-0.00889268 0.178259 0.149314)
(-0.1705 0.509508 0.199799)
(-0.174449 0.367094 0.160179)
(-0.37356 0.523297 0.135602)
(-0.23187 0.351193 0.0831345)
(-0.36077 0.681664 0.325608)
(-0.326173 0.475658 0.243929)
(-0.525521 0.705935 0.259049)
(-0.392765 0.479326 0.16966)
(-0.261854 0.408251 0.0897821)
(-0.15417 0.293082 0.0568547)
(-0.0931906 0.399612 0.135303)
(-0.111161 0.308422 0.11982)
(-0.437758 0.548908 0.160139)
(-0.188626 0.339243 0.0753621)
(-0.468767 0.557847 0.0638984)
(-0.178015 0.346497 0.0349267)
(-0.601216 0.751386 0.227236)
(-0.384135 0.500377 0.13375)
(-0.642379 0.755183 0.0818133)
(-0.376554 0.508598 0.0560065)
(-0.313286 0.414716 0.116571)
(-0.113814 0.27881 0.0515052)
(-0.33848 0.423906 0.0508028)
(-0.0999391 0.292353 0.024503)
(-0.168177 0.286947 0.059495)
(-0.121245 0.2294 0.0677697)
(-0.0934578 0.201315 0.0591023)
(-0.16331 0.226614 0.0950527)
(-0.0771819 0.288116 0.0937858)
(-0.0964946 0.237144 0.10675)
(-0.0535924 0.203892 0.0703793)
(-0.133259 0.22069 0.122041)
(-0.184589 0.287069 0.0729626)
(-0.108628 0.224824 0.0484563)
(-0.116475 0.197187 0.042358)
(-0.187808 0.236139 0.0685741)
(-0.225952 0.302349 0.0252834)
(-0.0988321 0.229103 0.00732828)
(-0.145103 0.204798 -0.000880628)
(-0.180179 0.234128 0.010827)
(0.0138753 0.0478219 0.113811)
(0.014086 0.0345384 0.052988)
(0.015073 0.0250164 0.0153813)
(-0.00284097 0.16851 0.110666)
(0.00265821 0.0779024 0.0308227)
(0.00329651 0.0558473 0.00838048)
(0.0482573 0.0449297 0.117701)
(0.0474876 0.0376203 0.0588462)
(0.0469868 0.0294565 0.0184826)
(-0.00313784 0.180827 0.112718)
(0.0110782 0.0920338 0.0329553)
(0.0123575 0.0689418 0.00941417)
(0.0596287 0.0577915 0.11927)
(0.0691829 0.0542035 0.0616017)
(0.0711665 0.0496307 0.0170802)
(-0.0162479 0.196855 0.111534)
(0.0194752 0.115463 0.0329326)
(0.0249878 0.0931634 0.00833418)
(-0.00478378 0.621558 0.253623)
(0.0206828 0.493276 0.146554)
(0.0182581 0.418233 0.042291)
(0.098319 0.361753 0.184623)
(0.101516 0.292794 0.105857)
(0.0898933 0.25497 0.0316413)
(0.0731446 0.240138 0.152086)
(0.079636 0.197161 0.0827526)
(0.0741746 0.175094 0.0252611)
(0.082697 0.191802 0.124323)
(0.0890305 0.155453 0.063597)
(0.0861917 0.137385 0.0171279)
(-0.00711192 0.234551 0.110511)
(0.0275929 0.153451 0.0317521)
(0.0244848 0.125661 0.0071262)
(-0.1826 0.463081 0.271998)
(-0.0939356 0.360819 0.1494)
(-0.0544147 0.301492 0.0492669)
(-0.00179667 0.319124 0.206865)
(0.0342653 0.248906 0.115089)
(0.0468717 0.21084 0.0386998)
(0.0155623 0.255898 0.161289)
(0.0458159 0.196518 0.0876159)
(0.0535009 0.162484 0.0291314)
(0.0107912 0.22164 0.129578)
(0.0415889 0.16938 0.0597829)
(0.047438 0.142134 0.0179916)
(-0.0365716 0.308513 0.120217)
(0.0162216 0.191698 0.0343586)
(0.0194204 0.158361 0.0112996)
(-0.00321386 0.187677 0.0495691)
(-0.000540005 0.0967427 0.0166546)
(0.000130474 0.0536285 0.00767086)
(0.000411958 0.0317144 0.00215962)
(0.00100044 0.208748 0.0199012)
(0.00132304 0.103852 0.00693276)
(0.00173678 0.055772 0.00336231)
(0.00119187 0.0328739 0.00108519)
(-0.00822597 0.182181 0.0500759)
(-0.00154849 0.0953796 0.017291)
(0.000572921 0.0535584 0.00868776)
(0.00118965 0.0319993 0.00286102)
(0.00219491 0.206689 0.0226707)
(0.00297226 0.103992 0.00851552)
(0.00354331 0.0567493 0.00497552)
(0.00247645 0.03374 0.00208663)
(-0.0139099 0.172504 0.0555353)
(-0.00342432 0.0935002 0.0198619)
(-3.48942e-05 0.055081 0.0108026)
(0.00195523 0.0327523 0.00398742)
(-0.00451385 0.200019 0.0350642)
(0.00104601 0.104597 0.0147663)
(0.0016562 0.0594598 0.00664752)
(0.00213629 0.0349909 0.00259564)
(-0.00231546 0.20812 0.0212473)
(0.000658157 0.107921 0.0108002)
(-9.52437e-05 0.058151 0.00287776)
(0.00028026 0.0345434 0.00059258)
(-0.00610314 0.21198 0.0185779)
(-0.0014987 0.111052 0.0105381)
(-0.00012563 0.0589321 0.00398973)
(0.000609928 0.0346298 0.00160145)
(-0.0296914 0.181711 0.0420198)
(-0.00931532 0.0984406 0.0167715)
(-0.00530493 0.0575872 0.00755751)
(-0.000315271 0.0338734 0.00179509)
(-0.0393157 0.153451 0.0387435)
(-0.0124406 0.0886877 0.0150725)
(-0.00930728 0.0543672 0.00836693)
(-0.000412537 0.0309723 0.00140875)
(-0.0243964 0.160725 0.0559715)
(-0.0074023 0.0903393 0.0205172)
(-0.0038052 0.0556552 0.0114809)
(0.00150632 0.0322551 0.00361826)
(-0.0320876 0.14075 0.0483793)
(-0.0101045 0.0833803 0.0175307)
(-0.00822893 0.0524691 0.0107443)
(-0.000192085 0.0297647 0.00154843)
(-0.0270652 0.193763 0.0284301)
(-0.00871471 0.103993 0.0126304)
(-0.00467301 0.0585061 0.00513416)
(-0.000385305 0.0343996 0.00126036)
(-0.0430051 0.161355 0.0275276)
(-0.013619 0.0926695 0.0116999)
(-0.00990256 0.0555213 0.00625142)
(-0.000209186 0.0314728 0.00154408)
(-0.0276663 0.200015 0.0174597)
(-0.00934941 0.107692 0.00901449)
(-0.00419684 0.0595937 0.00417226)
(0.000186425 0.0347809 0.00185525)
(-0.0448806 0.165642 0.0162472)
(-0.0142682 0.0954785 0.00806388)
(-0.0102408 0.0567831 0.00444203)
(-0.000169917 0.0320055 0.00195365)
(-0.00259211 0.145187 0.062052)
(-0.000569237 0.0848958 0.0205374)
(-0.000271868 0.050764 0.0100503)
(0.000225764 0.0300302 0.00223341)
(-0.00182905 0.104951 0.0614305)
(-0.000349889 0.0716603 0.0198735)
(-0.000544317 0.047105 0.0118443)
(0.000305344 0.0272981 0.00125298)
(-0.0067327 0.141296 0.0610213)
(-0.00156119 0.0838054 0.0204693)
(-0.00057825 0.0509239 0.0105938)
(0.000749409 0.030111 0.00247849)
(-0.00318713 0.104711 0.058777)
(-0.00035874 0.0716263 0.0190628)
(-0.00109727 0.0471834 0.0116968)
(0.000888762 0.0273821 0.00119597)
(-0.0202337 0.1356 0.0602522)
(-0.00599027 0.0822679 0.0205255)
(-0.00325541 0.0516858 0.0119229)
(0.000731676 0.0303331 0.00310745)
(-0.014809 0.107179 0.0525087)
(-0.00398317 0.0727255 0.0170704)
(-0.00320775 0.0476697 0.0113573)
(0.00148895 0.0276296 0.00147262)
(-0.00916587 0.130521 0.0545458)
(-0.0022741 0.0800543 0.0189201)
(-0.00154259 0.0513718 0.0121614)
(0.00216542 0.0301602 0.00418234)
(-0.00585259 0.108706 0.0571659)
(-0.0010893 0.0733477 0.0186866)
(-0.00196129 0.0489687 0.0139741)
(0.0017618 0.028046 0.00216313)
(-0.0268556 0.124583 0.0410967)
(-0.00818137 0.0779905 0.0142681)
(-0.00701599 0.0498563 0.00937855)
(0.00125953 0.0284064 0.0022652)
(0.00076383 0.0675728 0.0476817)
(0.000496642 0.0601105 0.0143107)
(9.24038e-05 0.0385788 0.00909706)
(0.000424416 0.0115482 0.000655904)
(0.00302359 0.0309026 0.0180394)
(0.00117904 0.0543147 0.00502899)
(0.000476997 0.0349524 0.00284984)
(0.000351339 0.0106002 0.000454129)
(0.000348335 0.0719196 0.0473372)
(0.000820361 0.061788 0.0143836)
(-0.000210393 0.0393863 0.00909656)
(0.00100302 0.0121182 0.000732898)
(0.00756049 0.0365991 0.0185347)
(0.00305178 0.0561936 0.0052551)
(0.00107305 0.0356009 0.00301547)
(0.000879945 0.0108174 0.000577651)
(-0.00203651 0.0791863 0.0449311)
(0.000284676 0.064442 0.0138097)
(-0.000720749 0.0400608 0.00905788)
(0.00154837 0.01207 0.000892732)
(0.0109402 0.0458573 0.0181609)
(0.004445 0.0593658 0.00524913)
(0.00157622 0.0363508 0.00316769)
(0.00129221 0.0109306 0.000730211)
(-0.00173082 0.0904743 0.0381507)
(0.000542466 0.0680132 0.0116819)
(-0.000916313 0.0415821 0.00847623)
(0.00199087 0.0129299 0.00114029)
(0.0127581 0.0582586 0.016205)
(0.00528347 0.0636214 0.00461589)
(0.00160638 0.0377515 0.00327899)
(0.00137005 0.0114226 0.000914848)
(-0.00632155 0.107721 0.0333605)
(-0.000475582 0.0730713 0.0105786)
(-0.00289772 0.044079 0.00773136)
(0.00131113 0.0145064 0.00150127)
(0.0087705 0.0743811 0.0148809)
(0.00462168 0.0681751 0.00451816)
(0.000638737 0.03915 0.00334001)
(0.00101849 0.0118336 0.00109399)
(-0.0256282 0.121957 0.0238747)
(-0.00473544 0.0794706 0.00880828)
(-0.00643893 0.0456098 0.00487234)
(0.000294649 0.0139899 0.000983433)
(-0.00696459 0.0805468 0.0124903)
(0.000502881 0.0742908 0.00510992)
(-0.00122578 0.0420099 0.00246992)
(0.000201138 0.0124188 0.000991112)
(-0.0154944 0.118767 0.0267925)
(-0.00207164 0.0766839 0.00889427)
(-0.00511336 0.0445679 0.0060483)
(0.000638176 0.0139735 0.00121636)
(-0.00026113 0.0799441 0.0132675)
(0.00260865 0.0719219 0.00465226)
(-0.000446142 0.0405314 0.00292028)
(0.000570725 0.0120858 0.00111003)
(-0.0337927 0.122811 0.0191688)
(-0.00767265 0.0813249 0.00812468)
(-0.00759665 0.0459078 0.0040626)
(0.000165816 0.0132827 0.00105451)
(-0.0110589 0.0799166 0.0110339)
(-0.00131699 0.0761275 0.00513643)
(-0.00179368 0.0427801 0.00218725)
(-1.01663e-05 0.0123791 0.00100261)
(-0.0388861 0.122265 0.0126532)
(-0.0102128 0.083212 0.00647328)
(-0.00853455 0.0470584 0.00336851)
(-5.54149e-05 0.0134843 0.0015223)
(-0.0140348 0.0836833 0.00859861)
(-0.00306351 0.0780776 0.00466835)
(-0.00230163 0.0438166 0.00224034)
(-0.000178457 0.0125941 0.00124208)
(0.000144614 0.0190082 0.000493838)
(7.13281e-05 0.0106537 0.000125238)
(3.21898e-05 0.00564336 3.9441e-05)
(1.4279e-05 0.00266976 1.48576e-05)
(7.63796e-06 0.0007778 7.43745e-06)
(0.000269102 0.0193413 0.000213294)
(0.000119967 0.0107264 5.73697e-05)
(5.20573e-05 0.00566186 1.87822e-05)
(2.27846e-05 0.00267529 7.22286e-06)
(1.2145e-05 0.000779098 3.64856e-06)
(0.000275812 0.0193284 0.000607254)
(0.000149044 0.010743 0.000184979)
(6.75891e-05 0.00567924 6.70319e-05)
(2.99176e-05 0.00268399 2.72312e-05)
(1.59604e-05 0.000781551 1.41069e-05)
(0.000693561 0.0196741 0.0004035)
(0.000326197 0.0108376 0.000149694)
(0.000141982 0.00570882 5.91936e-05)
(6.21314e-05 0.00269414 2.49596e-05)
(3.31175e-05 0.000784088 1.3131e-05)
(0.000450122 0.0194399 0.000940261)
(0.000228768 0.010825 0.000345663)
(0.000100459 0.00571789 0.000136812)
(4.38885e-05 0.00269973 5.77414e-05)
(2.32925e-05 0.000785722 3.0373e-05)
(0.00103625 0.0197387 0.0013654)
(0.000470201 0.0109921 0.000569974)
(0.000202496 0.00578074 0.000238646)
(8.82405e-05 0.00272331 0.000103163)
(4.69505e-05 0.000791815 5.48593e-05)
(0.000315681 0.0204588 0.0012748)
(0.000146532 0.0112449 0.000565654)
(6.43271e-05 0.00588883 0.000243671)
(2.83406e-05 0.00276665 0.000106923)
(1.5181e-05 0.000803282 5.73454e-05)
(0.000106735 0.0207455 0.00116212)
(6.61791e-05 0.0114551 0.000540369)
(3.16404e-05 0.00598948 0.000239142)
(1.44012e-05 0.00280856 0.000106849)
(7.82401e-06 0.000814536 5.80052e-05)
(0.000417352 0.0200576 0.00105579)
(0.000190983 0.0110731 0.000424057)
(8.30759e-05 0.00581904 0.000176583)
(3.62463e-05 0.00273931 7.63741e-05)
(1.92528e-05 0.000796096 4.07041e-05)
(1.68985e-05 0.0199019 0.000792211)
(1.88076e-05 0.0110588 0.00032664)
(9.45761e-06 0.00581918 0.000137268)
(4.27672e-06 0.00274011 5.96237e-05)
(2.28702e-06 0.000796357 3.18374e-05)
(0.000816766 0.0194151 0.00112393)
(0.000347601 0.0109183 0.00043275)
(0.00014566 0.00576019 0.000175896)
(6.26723e-05 0.00271663 7.50908e-05)
(3.3128e-05 0.000790177 3.96827e-05)
(0.000157886 0.01961 0.000745646)
(7.06156e-05 0.0109698 0.000292835)
(3.02205e-05 0.00578431 0.000120598)
(1.30543e-05 0.00272651 5.17877e-05)
(6.89925e-06 0.000792792 2.74438e-05)
(-7.79839e-06 0.0204153 0.00105824)
(1.92233e-05 0.0112305 0.000464735)
(1.14141e-05 0.00588609 0.000199817)
(5.38868e-06 0.00276615 8.78005e-05)
(2.91156e-06 0.000803198 4.72007e-05)
(6.8097e-06 0.0201543 0.000910007)
(1.93985e-05 0.0112013 0.000414431)
(1.03588e-05 0.00588254 0.000180687)
(4.78854e-06 0.00276578 7.98019e-05)
(2.58682e-06 0.000803176 4.2975e-05)
(-6.86688e-05 0.0206546 0.00104765)
(5.29121e-06 0.0114491 0.000492426)
(7.70956e-06 0.00599409 0.000218715)
(4.17921e-06 0.00281155 9.78907e-05)
(2.3652e-06 0.000815425 5.3198e-05)
(-6.3356e-05 0.0204132 0.000991216)
(-7.47335e-06 0.0114087 0.000472507)
(-2.88821e-07 0.00598666 0.000211002)
(2.86578e-07 0.0028099 9.46328e-05)
(2.15876e-07 0.00081509 5.14836e-05)
(0.000105013 0.018492 0.000474953)
(5.37699e-05 0.0105537 0.000113759)
(2.40525e-05 0.00562009 3.43471e-05)
(1.0611e-05 0.00266322 1.26307e-05)
(5.66268e-06 0.000776305 6.24972e-06)
(0.000141911 0.0181288 0.000192204)
(5.82729e-05 0.0104859 4.49873e-05)
(2.40603e-05 0.00560498 1.33126e-05)
(1.02885e-05 0.00265914 4.83383e-06)
(5.42384e-06 0.00077539 2.3747e-06)
(0.0002646 0.0186586 0.000526666)
(0.000127491 0.0106218 0.000142881)
(5.5582e-05 0.00564736 4.8602e-05)
(2.42394e-05 0.00267383 1.9176e-05)
(1.2863e-05 0.000779081 9.80325e-06)
(0.000342256 0.0183061 0.000194923)
(0.0001352 0.0105522 5.04062e-05)
(5.52752e-05 0.00562996 1.64542e-05)
(2.35362e-05 0.00266855 6.35703e-06)
(1.2383e-05 0.000777824 3.21707e-06)
(0.000339656 0.0188654 0.00055171)
(0.000158513 0.0107095 0.000177235)
(6.83653e-05 0.00568325 6.5982e-05)
(2.96377e-05 0.00268784 2.71173e-05)
(1.56793e-05 0.000782743 1.40811e-05)
(0.000463879 0.0186589 0.000269298)
(0.000175891 0.0106499 8.98223e-05)
(7.09788e-05 0.00566541 3.38599e-05)
(3.00878e-05 0.00268185 1.39755e-05)
(1.58131e-05 0.000781257 7.26347e-06)
(0.000659348 0.0191696 0.000960156)
(0.000260339 0.0108166 0.000361373)
(0.0001059 0.00572542 0.000143534)
(4.49798e-05 0.00270405 6.0447e-05)
(2.3629e-05 0.000786958 3.16364e-05)
(0.000373626 0.0190916 0.000488237)
(0.000137133 0.0107669 0.000181001)
(5.44217e-05 0.0057073 7.12044e-05)
(2.29243e-05 0.0026974 2.98281e-05)
(1.20191e-05 0.000785254 1.55467e-05)
(0.000398423 0.0193126 0.00096353)
(0.000157321 0.0108974 0.000375964)
(6.39055e-05 0.00575698 0.000152878)
(2.71326e-05 0.00271608 6.50461e-05)
(1.42597e-05 0.000790077 3.42379e-05)
(-0.0197168 0.530261 0.156855)
(-0.0263072 0.831894 0.273456)
(-0.0552028 0.548632 0.150097)
(-0.0762247 0.840524 0.266449)
(-0.0856673 0.578851 0.142982)
(-0.124239 0.854358 0.249495)
(-0.102006 0.614852 0.14176)
(-0.164622 0.892424 0.241149)
(-0.0933966 0.646429 0.149084)
(-0.152781 0.962927 0.265582)
(-0.0886386 0.555709 0.089448)
(-0.129988 0.682555 0.119701)
(-0.0687676 0.586548 0.119314)
(-0.0900737 0.757229 0.179381)
(-0.117683 0.544378 0.0596985)
(-0.167296 0.662227 0.0716805)
(-0.130302 0.535331 0.0222602)
(-0.18078 0.655675 0.0273979)
(-0.0297835 0.433827 0.466807)
(-0.00669888 0.078628 0.114203)
(-0.0014946 0.0175888 0.026681)
(-0.000326202 0.00402609 0.00604658)
(-8.23371e-05 0.000720688 0.00156464)
(-0.00998503 0.517207 0.12573)
(-0.00415396 0.144743 0.0338205)
(-0.000398349 0.0358003 0.0091806)
(-0.000129969 0.00826344 0.00210036)
(-5.81398e-05 0.00146608 0.000485794)
(-0.0963695 0.43835 0.459092)
(-0.0218167 0.0767528 0.110848)
(-0.00489623 0.0168766 0.0257302)
(-0.00107715 0.00383232 0.00579426)
(-0.000273954 0.000682725 0.00149368)
(-0.0253328 0.520634 0.13022)
(-0.00547309 0.143882 0.0382597)
(-0.00113537 0.0351747 0.00955126)
(-0.000228582 0.00802375 0.00225949)
(-5.08669e-05 0.00142007 0.000583228)
(-0.168194 0.446267 0.435253)
(-0.0383121 0.075377 0.103441)
(-0.0086569 0.0161961 0.0237902)
(-0.00192417 0.00363656 0.00532525)
(-0.000494483 0.00064447 0.00136766)
(-0.0461129 0.528292 0.126422)
(-0.0114423 0.143178 0.0368813)
(-0.00263573 0.0344407 0.00912799)
(-0.000605284 0.00777858 0.00213684)
(-0.000155727 0.00136903 0.000546442)
(-0.236851 0.454466 0.398558)
(-0.0543205 0.0732378 0.0930146)
(-0.0124168 0.0153752 0.0212409)
(-0.00279755 0.0034266 0.00474733)
(-0.000729837 0.000606565 0.00122165)
(-0.0658635 0.537967 0.12065)
(-0.0181365 0.142115 0.0343266)
(-0.00450292 0.0337291 0.00832778)
(-0.00108863 0.00757941 0.00191936)
(-0.000293806 0.00133247 0.000484445)
(-0.322847 0.455715 0.339553)
(-0.0763359 0.0706971 0.0782279)
(-0.0178663 0.014785 0.0178879)
(-0.00411024 0.00332078 0.00402366)
(-0.00109454 0.000592713 0.00104588)
(-0.0899309 0.541759 0.109961)
(-0.0283135 0.140112 0.0299208)
(-0.00744923 0.0332942 0.00710771)
(-0.00185221 0.00754005 0.00162027)
(-0.000511345 0.0013356 0.00040601)
(-0.417618 0.41615 0.182709)
(-0.108334 0.0771807 0.0451408)
(-0.0269102 0.0180272 0.010736)
(-0.0064805 0.00432734 0.00248235)
(-0.00179123 0.000803287 0.000660138)
(-0.108489 0.46418 0.0562131)
(-0.0355241 0.137084 0.0144638)
(-0.0095931 0.0354597 0.00321769)
(-0.00242126 0.00854657 0.000681287)
(-0.00067932 0.00157867 0.000160468)
(-0.387711 0.435119 0.259366)
(-0.0973001 0.0750272 0.0621741)
(-0.0235264 0.0166479 0.0144954)
(-0.00553985 0.00386347 0.00330374)
(-0.00150264 0.000702538 0.000869456)
(-0.102608 0.496503 0.0778362)
(-0.0344794 0.139207 0.0205009)
(-0.0093346 0.0345166 0.00477198)
(-0.00235333 0.00804554 0.00107392)
(-0.000654384 0.00145291 0.000267391)
(-0.43064 0.405108 0.11324)
(-0.113262 0.0784971 0.028728)
(-0.0285253 0.0188977 0.00694191)
(-0.00695817 0.0046387 0.00162314)
(-0.00194434 0.000873847 0.000434804)
(-0.113361 0.45027 0.0358907)
(-0.0356442 0.135646 0.0094753)
(-0.0094355 0.03591 0.00208579)
(-0.00235008 0.00884373 0.000423009)
(-0.000656872 0.00166026 9.52021e-05)
(-0.441702 0.399392 0.041282)
(-0.115819 0.0767406 0.0106217)
(-0.029312 0.0185674 0.00259114)
(-0.00719633 0.00459953 0.000610723)
(-0.00202345 0.00087296 0.000164626)
(-0.115074 0.443771 0.0164572)
(-0.0360622 0.133464 0.00405827)
(-0.00950631 0.0355987 0.000857802)
(-0.00220287 0.00884412 0.000229065)
(-0.000649829 0.00167107 3.62463e-05)
(-0.0168816 1.56661 -0.0884421)
(-0.308003 2.24184 0.00565066)
(-0.300482 1.99325 0.184223)
(-0.165735 1.46112 -0.170917)
(0.160114 0.793476 0.0416512)
(0.220483 0.838021 0.0444628)
(0.439856 1.26819 0.112089)
(0.582598 1.28384 0.137414)
(0.243357 0.870753 0.0936096)
(0.502961 0.94115 0.151698)
(0.0754625 1.41017 0.12855)
(0.287252 1.90951 0.19442)
(0.238619 2.10046 0.126883)
(0.408543 2.88944 0.165093)
(0.458541 1.05998 0.0601387)
(0.639764 1.17645 0.0871589)