/*--------------------------------*- C++ -*----------------------------------*\
| =========                 |                                                 |
| \\      /  F ield         | OpenFOAM: The Open Source CFD Toolbox           |
|  \\    /   O peration     | Version:  2412                                  |
|   \\  /    A nd           | Website:  www.openfoam.com                      |
|    \\/     M anipulation  |                                                 |
\*---------------------------------------------------------------------------*/
FoamFile
{
    version     2.0;
    format      ascii;
    arch        "LSB;label=32;scalar=64";
    class       volScalarField;
    location    "0.9";
    object      gradTx;
}
// * * * * * * * * * * * * * * * * * * * * * * * * * * * * * * * * * * * * * //

dimensions      [0 -1 0 1 0 0 0];

internalField   nonuniform List<scalar> 
5712
(
-9288.9
-11403.4
-21047.4
-33158.5
-32095.6
-62569
-21978.7
-66004.3
-22524.8
-52757.6
-27722
-45811.7
-21105.5
-28187.2
-11380.3
-11646.5
-15920.4
-18465.7
-21287.5
-19550.7
-14614.7
-21980.2
-21558.9
-21604.7
-6286.8
-4744.05
-8493.47
-6239.76
-14418.7
-9826.74
-26325.4
-18812.2
-21883
-22511.3
-22854.6
-23986.5
-5809.03
-4853.52
-49976.3
-61792.1
-26937.2
-35751
-63381.7
-78147.7
-29544.6
-36349.1
-37992.9
-49636.8
-30679.5
-42189.5
-17852.4
-22408.9
-3840.94
-1241.59
-4914.28
-1732.57
-8651.5
-3596.23
-14578.9
-5427.34
-10031.9
-3334.86
-9660.15
-2772.55
-18666.4
-5505.39
-24361.3
-7738.24
-30203.9
-17588
-25360.7
-17545
-30040.5
-19429.7
-23767.7
-18908.2
-20345.1
-14781.2
-22628.4
-14576.7
-24587.7
-17917.1
-25436.4
-18298.7
-23281
-19067.8
-24217.7
-19367.9
-20816.8
-15397.9
-22374.7
-15884.3
-22602.4
-9560.27
-13344.6
-15578.7
-24513.2
-11210.6
-13542.1
-16682.5
-22535.7
-8807.64
-13762.8
-15132.3
-23285.4
-8828.71
-14363.8
-15170.6
-3730.19
-4263.65
-1337.05
-2827.1
-10700.1
-12680.8
-4587.77
-9141.12
-17442.9
-20738.6
-8456.89
-15478.7
-18810.1
-9584.63
-20624.9
-26286.5
-14000.3
-6530.82
-10578.9
-14214.9
-26698.1
-18934.5
-11889.4
-16158
-18702.4
-19043.4
-24431.5
-4005.94
-4018.18
-2582.21
-2710.6
-11829.7
-10784.4
-8111.1
-8045.49
-17642
-15313.9
-12120.5
-11845.4
-9905.9
-10861.6
-15612
-16546.7
-19343.6
-17992.6
-24077.2
-21530.2
-18261.3
-17972.2
-13990.3
-14132
-18274.4
-15309.3
-17940.2
-13717.2
-16875.2
-12328.8
-20105.9
-15207.3
-14895.1
-6549.92
-11964
-10741.8
-16228.1
-17669.4
-16639.8
-20675.9
-10401.3
-9387.08
-13848.8
-4610.24
-11830
-17569.6
-12423.7
-19071.1
-17034.5
-25678
-17775.2
-26651.7
-10440.4
-16003.1
-11019.5
-17654.6
-13101.8
-8865.5
-17606.8
-7168.43
-13762.8
-3370.53
-16516.8
-2241.87
-13892.5
-13390.3
-18606.6
-9118.81
-12761.1
-15705.8
-17274.3
-11766.4
-3577.42
-3158.95
-2463.7
-2345.8
-2194.64
-1790.02
-9359.24
-7399.81
-5860.72
-6454.35
-4938.23
-3792.95
-11834
-9023.39
-7587.1
-9374.35
-6754.08
-5551.08
-9096.77
-6305.85
-5394.97
-14818.3
-9461.75
-6792.42
-14430.5
-9168.68
-6193.44
-16680.7
-11532.8
-8655.09
-14563.8
-8866.41
-5791.89
-16984.6
-12116.3
-9572.71
-13299.6
-9177.91
-6577.52
-12662.4
-8269.39
-5547.6
-12199.7
-7953.16
-5358.45
-14558.3
-7838.02
-4113.7
-12497.6
-19984.6
-10855.9
-15154.1
-10714.8
-21525.6
-9184.28
-17814.3
-107.03
-1658.39
296.58
-1034.15
-3571.2
-6615.39
-2364.82
-4212.76
-2214.48
-4181.11
-11578.7
-16844.2
-8686.15
-6874.86
-12822.2
-11284.6
-17815.3
-19160.1
386.902
5754.35
-8961.18
-6245.09
-6873.31
-3905.07
-1548.45
-982.111
-1333.86
-855.088
-3885.57
-1205.71
-2149.81
-453.218
-9982.05
-2801.7
-7838.1
-2449.32
-8808.49
-2629.86
-9846.08
-3110.69
-13432.5
-12648.5
-10377.5
-12357
-21041.6
-18364.9
-17089.7
-17245.3
-7305.58
-8889.36
-8562.7
-8318.23
-9658.5
-12136.8
-10087.6
-12168.4
-16272.7
-16743.1
-16841
-16791.9
-6421.16
-8901.43
-6151.38
-8927.9
-587.837
-961.56
-6497.48
-2949.32
-649.108
-749.391
-5735.9
-2481.08
-556.329
-843.891
-6783.54
-3229.01
-782.607
-905.51
-6779.93
-3374.59
171.216
324.47
-431.224
-227.752
810.053
1303.49
-647.55
-284.951
-988.719
17.9428
-2028.35
-1552.94
6849.47
3466.33
3957.12
2726.71
225.98
6823.15
9615.52
4316.89
4389.39
299.674
-10272.7
-7192.15
-5365.21
-4924
-2294.1
455.937
359.994
-94.3401
-107.018
1298.62
1281.1
-226.754
-236.437
1156.53
1448.53
-825.545
-787.309
2441.75
647.279
6933.09
4224.6
3491.63
2107.82
3262.69
2417.23
172.273
-188.141
-5630.98
-3995.46
-182.559
1186.82
366.931
1244.41
-157.867
642.782
-120.614
-222.317
-4262.49
-4361.23
-9338.99
-5796.76
-9019.24
-8154.32
-13138
-9819.13
-6546.34
-3854.24
-2329.76
-2779.02
-10943.9
-4715.64
-11719.2
-4450.39
-15030.4
-9603.38
-16059.5
-9413.86
-7832.15
-2845.34
-8462.01
-2498.48
-4204.43
-3031.13
-2336.45
-4082.76
-1929.55
-2412.36
-1339.81
-3331.47
-4614.72
-2715.71
-2911.87
-4695.2
-5648.79
-2470.8
-3627.58
-4504.48
346.882
352.149
376.824
-71.0241
66.4552
82.4128
1206.43
1187.19
1174.67
-78.4459
276.956
308.937
1490.72
1729.57
1779.16
-406.197
486.88
624.696
-119.594
517.07
456.453
2457.97
2537.9
2247.33
1828.62
1990.9
1854.36
2067.42
2225.76
2154.79
-177.798
689.823
612.12
-4564.99
-2348.39
-1360.37
-44.9168
856.633
1171.79
389.059
1145.4
1337.52
269.781
1039.72
1185.95
-914.289
405.54
485.511
-80.3465
-13.5001
3.26184
10.2989
25.011
33.076
43.4194
29.7968
-205.649
-38.7121
14.323
29.7412
54.8726
74.3065
88.5828
61.9112
-347.748
-85.608
-0.872356
48.8807
-112.846
26.1501
41.4051
53.4073
-57.8866
16.4539
-2.38109
7.0065
-152.579
-37.4674
-3.14074
15.2482
-742.285
-232.883
-132.623
-7.88176
-982.893
-311.015
-232.682
-10.3134
-609.909
-185.058
-95.13
37.6581
-802.191
-252.612
-205.723
-4.80212
-676.631
-217.868
-116.825
-9.63263
-1075.13
-340.475
-247.564
-5.22964
-691.658
-233.735
-104.921
4.66063
-1122.02
-356.704
-256.019
-4.24793
-64.8027
-14.2309
-6.7967
5.6441
-45.7263
-8.74722
-13.6079
7.6336
-168.317
-39.0298
-14.4563
18.7352
-79.6783
-8.9685
-27.4317
22.2191
-505.841
-149.757
-81.3852
18.2919
-370.226
-99.5793
-80.1938
37.2237
-229.147
-56.8526
-38.5647
54.1354
-146.315
-27.2326
-49.0323
44.045
-671.39
-204.534
-175.4
31.4882
19.0958
12.4161
2.31009
10.6104
75.5899
29.4761
11.9249
8.78347
8.70837
20.509
-5.25983
25.0755
189.012
76.2944
26.8262
21.9986
-50.9128
7.1169
-18.0187
38.7093
273.504
111.125
39.4055
32.3052
-43.2704
13.5617
-22.9078
49.7716
318.953
132.087
40.1596
34.2512
-158.039
-11.8896
-72.443
32.7784
219.262
115.542
15.9684
25.4623
-640.705
-118.386
-160.973
7.36622
-174.115
12.572
-30.6446
5.02844
-387.361
-51.791
-127.834
15.9544
-6.52824
65.2162
-11.1536
14.2681
-844.817
-191.816
-189.916
4.14541
-276.473
-32.9247
-44.842
-0.254158
-972.153
-255.319
-213.364
-1.38537
-350.871
-76.5878
-57.5407
-4.46144
3.61535
1.7832
0.804744
0.356975
0.190949
6.72755
2.99917
1.30143
0.569615
0.303626
6.8953
3.72611
1.68973
0.747939
0.399011
17.339
8.15492
3.54955
1.55329
0.827939
11.2531
5.7192
2.51148
1.09721
0.582312
25.9062
11.755
5.0624
2.20601
1.17376
7.89202
3.6633
1.60818
0.708515
0.379525
2.66839
1.65448
0.791009
0.360029
0.1956
10.4338
4.77457
2.0769
0.906159
0.481319
0.422462
0.470189
0.23644
0.106918
0.0571754
20.4192
8.69002
3.64151
1.56681
0.828199
3.94715
1.76539
0.755513
0.326357
0.172481
-0.19496
0.480584
0.285352
0.134717
0.0727889
0.170242
0.484962
0.258971
0.119713
0.0646705
-1.71672
0.13228
0.192739
0.10448
0.0591299
-1.5839
-0.186834
-0.00722053
0.00716446
0.00539691
2.62532
1.34425
0.601313
0.265276
0.141567
3.54778
1.45682
0.601508
0.257214
0.135596
6.615
3.18729
1.38955
0.605985
0.321575
8.5564
3.38001
1.38188
0.588404
0.309575
8.49139
3.96282
1.70913
0.740942
0.391982
11.597
4.39727
1.77447
0.752196
0.395327
16.4837
6.50847
2.6475
1.12449
0.590725
9.34065
3.42833
1.36054
0.573109
0.300477
9.96057
3.93302
1.59764
0.678316
0.356492
-492.92
-657.681
-1380.07
-1905.62
-2141.68
-3105.96
-2550.15
-4115.54
-2334.92
-3819.53
-2215.97
-3249.71
-1719.19
-2251.84
-2942.06
-4182.41
-3257.54
-4519.51
-744.588
-167.472
-37.3649
-8.15504
-2.05843
-249.626
-103.849
-9.95873
-3.24923
-1.45349
-2409.24
-545.417
-122.406
-26.9289
-6.84885
-633.319
-136.827
-28.3841
-5.71454
-1.27167
-4204.85
-957.803
-216.423
-48.1043
-12.3621
-1152.82
-286.057
-65.8932
-15.1321
-3.89318
-5921.28
-1358.01
-310.42
-69.9388
-18.2459
-1646.59
-453.412
-112.573
-27.2157
-7.34515
-8071.17
-1908.4
-446.658
-102.756
-27.3634
-2248.27
-707.838
-186.231
-46.3052
-12.7836
-10440.5
-2708.35
-672.755
-162.013
-44.7809
-2712.22
-888.103
-239.827
-60.5315
-16.983
-9692.76
-2432.5
-588.159
-138.496
-37.566
-2565.19
-861.986
-233.365
-58.8332
-16.3596
-10766
-2831.55
-713.132
-173.954
-48.6084
-2834.02
-891.104
-235.888
-58.752
-16.4218
-11042.5
-2895.47
-732.799
-179.908
-50.5861
-2876.84
-901.556
-237.658
-55.0718
-16.2457
-422.041
-7700.07
-7512.05
-4143.38
4002.84
5512.08
10996.4
14565
6083.92
12574
1886.56
7181.29
5965.47
10213.6
11463.5
15994.1
13777.8
15802.6
7851.79
8940.06
-18694.6
-13489.1
-2715.42
-1787.1
-1317.61
-2048.58
-1611.05
-11557.7
-10149.8
-8932.68
-8584.41
-6387.58
-4348.49
-6593.8
-3489.73
-2627.54
-3100.33
-1956.22
-19315.8
-8685.73
-2055.21
-3674.71
-6276.81
-3958.07
-4210.75
-3011.13
-1278.69
-2122.8
-2124.98
-2532.17
-18547.3
-10957.6
-10819.7
-6489.38
-6491.19
-6907.13
-2662.95
-3133.53
-3845.5
-11875.1
-10487.8
-8095.9
-6953.86
-5386.1
-9254.33
-6514.02
-4936.22
-3650.3
-1477.05
-2355.16
-1907.01
-1394.47
-850.73
-285.92
-1573.04
-1293.34
-955.409
-584.891
-196.829
-1152.22
-940.016
-688.942
-419.173
-140.651
-1807.42
-1489.2
-1101.04
-673.768
-226.643
-1407.54
-1147.69
-841.645
-512.842
-172.259
-7301.75
-5820
-4238.19
-3426.4
-3137.68
-5355.37
-3971.25
-2581.81
-1854.46
-1358.01
-6087.53
-4046.37
-2861.87
-1947.46
-784.716
-4577.2
-3235.56
-2094.8
-1455.08
-883.928
-3194.3
-2122.39
-1327.38
-955.868
-504.41
-3398.18
-2494.58
-1716.59
-1031.56
-354.988
-4687.12
-3208.03
-2189.53
-1361.29
-508.383
-2415.78
-1582.33
-1038.3
-624.553
-225.467
-2132.15
-1615.2
-1124.54
-670.607
-225.822
-2455.93
-1815.2
-1241.5
-733.15
-246.537
-1606.58
-1229.53
-859.29
-510.827
-170.863
-12489.5
-9666.59
-7315.56
-5937.65
-4701.53
-6478.18
-4645.43
-3337.85
-2217.81
-863.35
-1675.38
-1276.88
-896.879
-540.432
-183.212
-3042.46
-2357.17
-1681.56
-1025.8
-349.407
-5046.8
-3817.83
-2723.36
-1698.64
-593.524
-3300.15
-2572.79
-1847.37
-1131.55
-383.507
-3574.82
-2831.1
-2046.83
-1248.98
-419.019
-2570.78
-2048.32
-1480.01
-898.433
-302.168
-1083.1
-854.413
-609.596
-365.412
-122.075
-1834.54
-1478.46
-1073.7
-650.512
-218.096
-1772.56
-1379.01
-977.562
-587.185
-197.238
-2146.64
-1698.41
-1220.56
-739.038
-248.726
-11760.8
-9764.12
-7563.68
-6352.28
-4766.85
-7810.72
-5552.55
-4147.05
-2954.63
-1194.41
-8281.97
-6302.75
-4613.99
-3269.79
-1318.86
-5140.43
-3721.98
-2685.06
-1732.46
-544.673
-5320.07
-4055.23
-2912.04
-1809.32
-599.327
-5453.92
-3931.58
-2825.54
-1817.87
-557.257
-2241
-1760.12
-1263.3
-768.255
-258.898
-2707.04
-2181.92
-1587.53
-964.724
-323.951
-3239.36
-2548.54
-1832.95
-1116.69
-376.767
-7649.58
-16964.4
-13228.2
-43919.3
-12232.8
-56275.5
-8370.84
-22273.2
-10662.8
-9154.19
-21419.3
-16758.7
-10552.2
-12626.2
-22983.9
-18839.4
-4875.41
-3362.88
-11383.6
-8120.26
-8443.48
-4443.54
-31205.2
-22332.5
-18264.1
-12489.6
-19337.1
-12650.9
2369.16
-1780.11
-51940.3
-62592.7
-26128.3
-35679
-65128.1
-78901.7
-28549.2
-36126.6
-39300.3
-50364.1
-29963.1
-42262.7
-19424.5
-23067
-2699.66
-526.111
-5961.37
-1935.95
-5096.8
-2475.36
-16602.4
-5981.85
-2545.68
-1280.7
-7112.5
-2004.15
-18816.5
-5474.73
-24645.3
-7803.98
-21626.8
-13649.9
-22549.3
-15656.2
-20300
-14710.3
-20537.1
-16732.1
-18410.4
-13330.7
-16885.3
-11701.5
-23492.5
-17075.9
-25187.6
-18070.5
-21950.6
-18109.8
-23861
-19103.9
-20162.1
-14745.4
-22250.4
-15705.1
-21621.3
-9315.17
-12294.4
-15147.2
-21181.4
-10314.2
-11373
-15753.4
-22333.1
-8756.46
-13301.1
-14947.8
-23294.8
-8832.95
-14239.9
-15122.3
-800.673
-644.5
124.736
-1035.55
-3100.5
-4006.63
-2346.17
-6290.38
-4909.61
-6766.01
-5300.98
-11588.6
-18973.4
-17499.2
-16141.4
-19606.9
-12408.3
-11095.2
-8986.24
-8991.96
-19437
-17189.7
-14628
-14686.4
-14646.6
-14400.5
-22195.5
-979.597
-1231.59
-724.374
-1011.82
-4067.38
-3644.85
-4755.93
-4640.47
-4293.89
-2559.1
-7872.06
-7350.91
-11986.5
-12484.4
-11494.8
-11410.1
-11727.7
-9766.92
-16404.1
-13963.5
-15607.2
-14559.8
-16012.7
-15541.7
-15700.2
-13089.1
-13569.3
-10376.2
-12852.7
-9388.97
-18170.1
-12930.6
-13842.5
-7195.56
-11368
-10857.8
-16484.6
-18644.4
-16401.9
-20928.5
-9721.77
-9437.06
-12393.9
-5101.03
-11485.9
-17514.7
-12295.5
-19030.4
-16819.9
-25803.5
-17668
-26631
-10087
-15928.5
-10898.4
-17616.7
-12631.1
-8975.66
-17489.9
-7378.56
-12634.6
-4039.94
-16197.1
-3185.84
-13670.3
-13363.1
-18545.1
-9155.55
-12681.9
-15685.2
-17252
-11765.9
-1444.75
-1144.56
-915.455
-1117.25
-2922.94
-1689.64
-3820.31
-3821.56
-1301.07
-1058.54
-6571.66
-6254.96
-13108.3
-10771.2
-11194.7
-8142.04
-8124.21
-5249.16
-11108.4
-8157.84
-12486.1
-8227.71
-19068.1
-15329
-10637.9
-7933.54
-8916.48
-5972.37
-8305.29
-5230.68
-9938.39
-4589.92
-5791.89
-11251.8
-5216.09
-11262.2
-7848.34
-12771
-9415.99
-14742.5
-1559.05
-1403.59
-1289.25
-1248.03
-4371.05
-4438.63
-3911.59
-3919.02
-1222.33
-1783.48
-8810.61
-9507.26
-5003.46
-5547.92
-11115.9
-10805.7
-16282
-18680.2
945.204
5826.9
-7656.03
-5858.1
-6211.83
-3755.28
-1192.06
-1092.6
-1254.7
-1042.09
-2675.51
-1595.47
-1940.82
-1014.61
-7465.24
-3270.06
-7008.01
-2962.8
-8236.9
-2880.83
-9628.09
-3198.46
-6867.51
-9784.72
-7864.4
-10778.5
-12427.8
-13970.1
-13984.5
-15123.9
-5803.95
-8043.57
-4899.6
-7138.03
-8501.01
-11412.3
-9743.93
-11962
-14877.9
-15800.9
-16427.7
-16527.5
-5713.94
-8485.67
-5930.05
-8804.63
-306.049
-1086.08
-6247.57
-2997.46
-415.3
-1107.61
-5604.07
-2609.83
-415.664
-957.674
-6633.37
-3268.1
-729.019
-952.531
-6724.63
-3397.25
-1068.63
-1178.64
-1080
-1158.76
-2608.54
-2823.85
-1773.82
-1927.62
-6586.1
-6925.04
-3278.44
-3422.66
-4105.87
-9914.26
-2476.3
106.439
-713.317
-3959.4
-868.548
-1802.28
1920.93
-324.561
-14822.6
-10180.8
-7133.78
-6200.55
-2750.08
-1377.93
-1417.55
-1304.22
-1451.07
-3268.6
-3348.13
-2204.18
-2540.67
-7081.56
-7509.08
-3322.92
-3854.47
-5971.19
-7109.31
-1810.53
-3767.59
-3008.09
-4099.01
-434.16
-1241.87
-915.455
-1493.92
-11408.4
-8518.34
-5840.58
-3927.17
-3862.56
-2628.27
-3172.89
-2016.77
-1220.51
-1465.37
-6759.85
-6984.06
-10204.2
-6801.06
-10965.6
-10417
-13573.8
-10669.9
-7647.09
-4851.87
-4678.25
-5159.76
-11226
-5213.42
-11757.3
-4544.97
-15075.5
-10018.8
-16018.3
-9473.42
-8281.5
-3352.5
-8562.03
-2611.76
-5267.8
-3912.6
-3227.36
-5029.49
-3864.64
-4366.05
-2587.42
-5002.85
-5109.59
-3194.44
-3400.1
-5212.34
-5781.52
-2601.7
-3771.97
-4630.07
-1131.32
-1191.62
-993.594
-835.019
-3528.97
-3914.76
-1544.96
-979.702
-7686.53
-6341.6
-2172.61
-332.05
-8667.47
-7185.95
-5450.06
-4368.1
-4329.02
-3415.69
-1522.33
-935.076
-1096.02
350.062
-8027.13
-6264
-4020.76
-2830.84
-2639.38
-1592.21
-1817.26
-892.504
-2115.8
158.554
-186.422
-64.3119
-19.2386
0.861829
-171.166
-65.6207
-2.41703
8.82011
-475.902
-168.134
-40.3062
9.62477
-384.753
-151.098
-22.1987
4.17346
-705.637
-260.612
-84.0594
13.531
-623.173
-248.43
-114.031
-38.558
-357.805
-151.571
-92.8083
-33.3776
-275.9
-109.884
-42.4042
-3.1392
-901.654
-328.646
-197.444
-46.8179
-1028.69
-335.072
-259.929
-16.16
-886.182
-321.688
-182.709
-21.2143
-869.302
-284.843
-240.762
-12.0592
-798.203
-291.851
-157.831
-23.3586
-1112.35
-360.013
-269.723
-15.4105
-743.219
-265.629
-122.897
-2.7193
-1139.04
-365.718
-264.322
-7.33125
-181.735
-58.4679
-24.525
0.408573
-182.177
-52.6298
-33.8246
2.18996
-463.3
-153.096
-61.3107
4.77428
-455.125
-135.262
-83.2286
8.27604
-806.2
-276.275
-144.326
1.93419
-776.108
-247.672
-156.465
18.4886
-742.342
-271.305
-145.837
4.33543
-558.128
-185.813
-121.3
28.8593
-861.592
-285.946
-239.442
13.3485
-137.983
-37.6303
-15.9768
4.25563
-86.596
-25.1311
-6.34655
0.51321
-369.696
-103.838
-54.7902
7.50814
-228.241
-68.8548
-24.4923
-1.0924
-490.216
-148.769
-86.3557
12.481
-284.67
-99.5045
-37.1712
-2.31499
-533.729
-177.73
-109.729
14.4363
-313.146
-123.82
-53.343
-7.09363
-612.797
-195.098
-163.437
-7.59688
-407.629
-138.982
-82.1294
-19.1846
-1073.53
-317.567
-259.958
-35.9344
-538.454
-157.267
-102.809
-28.2649
-908.901
-270.342
-236.682
-31.5326
-544.771
-159.251
-102.69
-28.167
-1104.04
-321.151
-255.011
-24.1034
-477.181
-136.6
-90.1545
-20.4969
-1053.65
-298.268
-235.22
-10.7893
-410.541
-109.715
-72.3183
-11.0375
-2.39158
-1.29621
-0.595276
-0.273165
-0.151839
-4.10651
-2.10398
-0.965903
-0.444385
-0.247196
-6.23164
-2.83425
-1.26729
-0.57862
-0.321764
-13.44
-6.05985
-2.72137
-1.24583
-0.692265
-10.1969
-4.25667
-1.8837
-0.860169
-0.478965
-19.9427
-8.81287
-3.92487
-1.79406
-0.997128
-7.45064
-3.07374
-1.33233
-0.602184
-0.332704
-5.13791
-1.8176
-0.736775
-0.324295
-0.177189
-9.08806
-3.70253
-1.58757
-0.717435
-0.397843
-1.91199
-0.514171
-0.184307
-0.0780541
-0.0424341
-13.87
-6.06998
-2.70609
-1.24048
-0.691337
-3.10864
-1.28606
-0.551202
-0.249566
-0.138548
-3.72339
-0.800359
-0.243759
-0.0958056
-0.0508887
-2.80707
-0.684349
-0.23448
-0.0975897
-0.0527296
-4.28557
-0.878072
-0.235412
-0.0845483
-0.0428459
-1.94266
-0.262757
-0.0296163
-0.00095344
0.00167599
-1.49727
-0.874103
-0.417601
-0.194102
-0.108251
-0.84738
-0.726949
-0.378757
-0.181183
-0.102074
-3.62948
-2.03317
-0.963728
-0.44784
-0.250191
-2.09581
-1.74117
-0.88757
-0.421772
-0.237237
-4.88564
-2.61386
-1.20536
-0.556079
-0.310285
-3.41228
-2.39443
-1.16816
-0.54823
-0.307267
-8.55568
-4.12701
-1.8867
-0.872814
-0.488492
-3.11959
-1.90202
-0.906351
-0.423245
-0.237161
-5.96651
-2.58785
-1.15934
-0.534023
-0.29847
-181.332
-360.478
-639.86
-1168.34
-1295.35
-2201.64
-1896.68
-3318.94
-2038.48
-3452.74
-2352.06
-3404.6
-1830.39
-2520.08
-3005.34
-4234.82
-3271.28
-4529.17
-713.043
-163.446
-36.8074
-8.08208
-2.05027
-194.875
-95.9812
-8.71892
-3.06952
-1.42558
-2327.04
-534.673
-120.928
-26.7451
-6.83272
-502.208
-117.06
-25.4263
-5.27881
-1.19771
-4079.76
-940.477
-213.986
-47.8001
-12.3362
-1000.24
-262.612
-62.3224
-14.5948
-3.80286
-5766.52
-1335.06
-307.039
-69.4919
-18.2008
-1532.2
-434.88
-109.568
-26.7343
-7.26186
-7913.17
-1882.49
-442.561
-102.179
-27.2983
-2215.06
-698.66
-184.311
-45.9537
-12.7211
-10388.9
-2695.17
-670.102
-161.578
-44.7246
-2740.42
-890.909
-239.971
-60.5125
-16.9749
-9584.99
-2410.12
-584.171
-137.89
-37.4918
-2592.97
-861.348
-232.66
-58.6548
-16.3253
-10744.8
-2825.33
-711.76
-173.719
-48.5774
-2845.49
-892.754
-236.071
-58.7696
-16.4228
-11036.7
-2893.69
-732.384
-179.837
-50.577
-2878.8
-901.896
-237.703
-55.0806
-16.2466
-157.9
-7459.29
-6722.11
-2953.04
-1540.85
-762.122
-3168.74
-2190.77
-6055.43
-6562.61
-3587.13
-3337.86
-113.973
-191.834
-357.205
-612.96
-964.376
-1394.83
-83.726
-193.56
-426.713
-793.957
-1297.66
-1919.15
-84.7246
-36.0748
-163.392
-97.0907
-333.066
-236.437
-595.109
-492.674
-918.503
-874.473
-1293.57
-1340.44
-1931.84
-2602.97
-3537.28
-5646.14
-6524.92
-8313.66
-2608.91
-3243.73
-3645.12
-3818.01
-3433.48
-3306.63
-102.375
-86.1116
-64.9064
-40.2668
-13.6382
-172.067
-144.484
-108.716
-67.3545
-22.796
-319.841
-268.015
-201.259
-124.498
-42.102
-547.589
-457.641
-342.786
-211.657
-71.5103
-858.797
-715.162
-533.943
-328.961
-111.025
-1236.28
-1024.23
-761.381
-467.842
-157.717
-75.1478
-63.1477
-47.5508
-29.4774
-9.97991
-173.436
-145.453
-109.314
-67.6636
-22.8898
-381.679
-319.447
-239.612
-148.105
-50.0659
-708.473
-591.354
-442.459
-273.01
-92.2106
-1154.11
-959.79
-715.822
-440.762
-148.729
-1699.05
-1406.09
-1044.5
-641.676
-216.333
-76.1473
-64.0978
-48.3495
-30.0124
-10.168
-32.4337
-27.3121
-20.6099
-12.7973
-4.33641
-146.684
-123.299
-92.8721
-57.5838
-19.4971
-87.2147
-73.3622
-55.2973
-34.3049
-11.6186
-298.545
-250.482
-188.317
-116.594
-39.4467
-212.079
-178.079
-133.989
-83.0072
-28.0921
-532.205
-445.314
-333.912
-206.328
-69.7337
-440.83
-369.072
-276.888
-171.152
-57.8545
-818.698
-682.423
-509.89
-314.274
-106.084
-779.731
-650.153
-485.86
-299.462
-101.079
-1146.65
-949.955
-706.021
-433.684
-146.16
-1188.65
-984.947
-731.864
-449.318
-151.37
-1699.95
-1397.84
-1033.24
-633.141
-213.251
-2263.95
-1840.32
-1350.53
-826.102
-278.303
-3017.04
-2408.3
-1752.69
-1074.57
-363.216
-4669.5
-3627.08
-2624.99
-1632.79
-557.09
-5098.61
-3829.59
-2788.44
-1814.24
-658.965
-6229.82
-4576.2
-3363.67
-2272.91
-850.157
-2295.44
-1887.67
-1395.75
-855.674
-288.341
-2830.08
-2308.52
-1698.28
-1039.91
-350.598
-3142.48
-2535.74
-1855.57
-1137.26
-384.376
-3228.6
-2562.79
-1865.53
-1150.31
-391.484
-2806.07
-2174.87
-1580.22
-994.158
-347.186
-2605.33
-1970.35
-1433.35
-925.34
-331.367
-117.936
-205.229
-384.29
-659.413
-1036.35
-1493.76
-88.4934
-209.781
-459.445
-848.995
-1377.4
-2017.98
-88.3133
-38.4115
-176.269
-106.106
-361.702
-258.885
-649.678
-543.309
-1011.46
-993.393
-1425.59
-1594.21
-2059.79
-2760.88
-3720.94
-5793.68
-6614.27
-8342.62
-2712.77
-3333.24
-3704.53
-3837.24
-3428.18
-3301.08
-105.969
-89.1698
-67.2406
-41.7299
-14.1366
-184.217
-154.829
-116.615
-72.3079
-24.4838
-344.425
-288.966
-217.272
-134.547
-45.5278
-589.798
-493.659
-370.356
-228.98
-77.4201
-924.303
-771.177
-576.913
-356.013
-120.264
-1326.63
-1101.8
-821.142
-505.606
-170.643
-79.4695
-66.826
-50.3584
-31.2372
-10.5793
-188.152
-157.987
-118.887
-73.6683
-24.9362
-411.404
-344.794
-258.996
-160.277
-54.2165
-758.531
-634.117
-475.228
-293.62
-99.2455
-1226.81
-1022.09
-763.709
-470.962
-159.053
-1789.53
-1484.01
-1104.72
-679.821
-229.407
-79.4006
-66.8647
-50.4598
-31.3344
-10.6183
-34.5505
-29.1114
-21.9813
-13.6559
-4.62863
-158.357
-133.23
-100.449
-62.3319
-21.1142
-95.3834
-80.3086
-60.5942
-37.6226
-12.7483
-324.517
-272.595
-205.202
-127.182
-43.0545
-232.431
-195.4
-147.208
-91.2932
-30.9149
-581.735
-487.525
-366.179
-226.582
-76.639
-486.787
-408.237
-306.826
-189.944
-64.262
-903.129
-754.44
-564.996
-348.897
-117.895
-887.569
-741.968
-555.993
-343.471
-116.082
-1266.94
-1052.93
-785.135
-483.568
-163.215
-1418.53
-1180.43
-881.06
-542.92
-183.286
-1817.49
-1499.45
-1112.1
-683.292
-230.478
-2410.49
-1968.42
-1451.14
-890.754
-300.641
-3190.69
-2562.94
-1876.52
-1155.6
-391.469
-4818.31
-3767.06
-2743.45
-1714.54
-586.11
-5197.08
-3926.9
-2875.49
-1879
-684.139
-6265.44
-4613.56
-3399.28
-2301.59
-861.625
-2391.23
-1970.87
-1460.63
-897.099
-302.602
-2913.81
-2382.41
-1756.85
-1077.84
-363.761
-3199.93
-2588.18
-1898.56
-1165.93
-394.487
-3250.75
-2586.05
-1887.08
-1166.18
-397.347
-2805.67
-2178.26
-1586.22
-1000.43
-350.01
-2602.36
-1969.53
-1434.36
-927.317
-332.393
-18655.9
-13520.5
-2959.43
-2002.91
-1721.6
-2460.12
-1940.83
-12378.7
-12799.9
-10421.1
-11901.7
-5542.47
-9439.36
-3855.32
-4129.52
-2768.96
-20034.9
-9540.48
-2600.26
-4227.54
-6811.12
-4277.26
-4658.78
-3445.42
-1627.11
-2694.24
-2751.74
-2981.34
-18494.7
-11098.3
-11261.1
-6767.03
-6798.9
-7292.36
-3153.1
-3628.35
-4219.45
-11867.9
-10510.7
-8143.46
-7033.39
-5462.28
-9304.7
-6569.89
-4993.95
-3703.53
-1499.72
-2582.16
-2105.92
-1551.05
-951.58
-320.811
-1770.3
-1462.87
-1086.2
-667.675
-225.197
-1519.1
-1253.1
-929.121
-570.758
-192.569
-2181.64
-1808.94
-1346.34
-828.368
-279.505
-1708.95
-1406.72
-1041.61
-639.599
-215.764
-8565.27
-7212.32
-5587.83
-4601.75
-4030.81
-8475.02
-7267.78
-5555.32
-4276.68
-2920.43
-7753.25
-5600.54
-4207.69
-2952.47
-1201.35
-8232.75
-6667.03
-4985.66
-3749.48
-2148.09
-4585.21
-3567.63
-2593.02
-1626.24
-574.286
-7416.92
-5509.26
-4022.75
-2631.69
-1012.12
-3267.48
-2595.48
-1890.28
-1167.51
-401.099
-3485.98
-2759
-2007.05
-1241.5
-427.808
-2365.88
-1892.73
-1381.02
-849.915
-290.083
-13532.8
-10802.5
-8421.15
-6899.99
-5381
-7383.08
-5504.19
-4078.52
-2754.22
-1075.45
-2196.38
-1740.42
-1268.28
-785.857
-270.679
-3574.15
-2836.36
-2070.19
-1284.42
-441.519
-5591.04
-4330.55
-3158.84
-2002.84
-706.382
-3612.44
-2859.11
-2083.57
-1290.88
-440.489
-3996.79
-3205
-2344.76
-1443.22
-486.617
-2979.77
-2410.88
-1768.69
-1086.45
-367.827
-1411.34
-1144.92
-840.387
-515.573
-174.566
-2358.42
-1930.18
-1424
-873.771
-295.057
-2359.64
-1894.49
-1384.98
-852.206
-290.203
-2570.66
-2074.75
-1520.67
-935.025
-317.405
-11822
-9909.76
-7764.61
-6602.11
-5019.47
-7991.85
-5737.54
-4321.91
-3098.04
-1256.78
-8834.46
-6867.89
-5144.46
-3694.19
-1505.56
-5433.9
-4002.49
-2927.88
-1905.65
-601.615
-5636.33
-4353.43
-3166.5
-1986.76
-662.483
-5863.75
-4316.36
-3158.41
-2055.34
-639.529
-2700.24
-2164.88
-1584.06
-976.613
-331.558
-3164.97
-2580.86
-1899.84
-1165.11
-393.238
-3599.15
-2873.89
-2097.44
-1292.44
-438.952
-303.897
-857.954
-1365.16
-1879.87
-2425.11
-2943.34
-2783.86
-7084.32
-6473.11
-2719.69
-8085.42
-7687.83
-8323.73
-11367.7
-1598.86
-126.337
-3001.9
1825.55
-11639.8
-10266.2
2696.69
-1983.13
-5473.3
-5094.22
-2034.25
-6004.19
-3543.23
-6435.09
-6583.39
-678.492
1290.64
-1217.76
4612.42
-7798.15
-5490.97
5093.76
-1145.22
-3496.49
-3488.35
-1308.07
-3432.63
-283.603
-4447.78
-4246.64
-109.47
1465.51
358.677
4656.45
-4272.09
-217.625
5635.73
-687.814
-2288.33
-2572.84
-912.154
-1502.07
1384.93
-3430.19
-3628.08
143.49
996.271
786.601
3698.17
-2861.51
2174.93
5184.37
-549.665
-2044.93
-2326.04
-781.841
-1259.5
1056.2
-3517.81
-4753.58
227.182
663.427
864.816
2916.63
-2791.06
1958.78
3261.26
-512.635
-1969.2
-2197.08
-730.402
-1739.83
3.91107
-3368.31
-4667.95
260.407
999.644
659.899
2832.77
-3636.09
515.497
2085.69
-1292.88
-3030.9
-4442.48
-1838.04
-6307.75
-11492.5
-7310.75
-13058.6
-1487.65
-1255.19
-4837.36
-3857.18
-1913.46
-8823.07
-4117.6
-1231.99
-2877.75
-3852.64
-1542.03
-5818.96
-9511.18
-6375.91
-9128.25
-1507.26
-1103.66
-4570.38
-3534.32
-1211.08
-7887.72
-3856.33
-1078.05
-2535.38
-3013.1
-1168.12
-4985.24
-7785.39
-5043.48
-7528.48
-1213.25
-1372.92
-3778.71
-4054.51
-1438.06
-6640.97
-4191.83
-1004.1
-2589.16
-2558.89
-944.93
-4915.86
-7080.05
-4633.87
-6913.91
-1179.89
-1602.36
-3632.04
-4676.9
-1817.55
-6842.9
-4759.82
-954.517
-2439.71
-2381.78
-855.537
-4560.96
-7233.04
-4448.81
-7389.68
-1207.71
-1964.78
-3688.39
-5650.67
-2651.35
-7698.52
-5859.76
-930.074
-2354.34
-2273.98
-813.128
-4541.71
-7302.29
-4218.01
-7162.4
-1322.17
-2383.46
-3972.79
-6275.38
-3651.29
-8386.69
-6411.69
8516.9
10364
21045.5
33103.9
32101
62551.5
21982.6
65999.8
22530.1
52752.7
27739.1
45807.3
21145.8
28175.1
9804.29
10009.7
15923.4
18466.2
21282.5
19549.1
14617.7
21981.8
21559.1
21605.2
5794.73
4391.08
7788.97
5726.73
14425.9
9822.09
26284.2
18778.5
21866.1
22509.2
22847.8
23982.9
5804.34
4835.39
49977.7
61793.6
26937
35751.5
63382.2
78148.3
29545
36349.5
37994.2
49638.9
30678.4
42190.3
17855.7
22411.1
3599.84
1174.33
4534.01
1607.35
8632.58
3597.84
14549
5420.83
10022
3331.84
9646.75
2768.43
18666.8
5505.3
24363
7738.77
30202.9
17587.5
25359.6
17544.5
30040.9
19429.9
23767.8
18908.2
20343.1
14780.4
22626.3
14575.5
24587.3
17916.8
25436.3
18298.5
23281.1
19067.8
24217.8
19367.9
20816.3
15397.4
22374.7
15884
22598.8
9559.33
13343.4
15578.4
24508.4
11209.4
13540.3
16681.8
22535
8807.49
13762.3
15132.2
23285.7
8828.87
14363.5
15170.6
3497.48
3982.18
1263.01
2639.31
10663.4
12620.9
4586.31
9112.76
17426.9
20718.1
8452.03
15469.9
18809
9584.26
20622.8
26279.4
13998.7
6530.45
10578.2
14213.4
26690
18932.4
11889.4
16157.4
18700.7
19039.8
24430
3693.18
3708.77
2348.18
2507.66
11819.1
10752
8139.33
8050.67
17634
15304.4
12124.9
11848.1
9905.59
10861.4
15611.2
16546
19342
17991.5
24072.9
21526.8
18263
17974.4
13990
14131.7
18273.5
15308.8
17938.8
13716.5
16873.2
12328
20106.3
15208.3
14894.5
6549.68
11963.6
10741.6
16227.9
17669.2
16639.6
20675.7
10400.7
9386.89
13847.9
4609.96
11829.7
17569.4
12423.5
19070.9
17034.4
25677.8
17775.1
26651.5
10440.1
16003
11019.3
17654.5
13101.4
8865.43
17606.9
7168.58
13761.9
3370.37
16517
2242.18
13892.4
13390.3
18606.7
9118.91
12761
15705.8
17274.4
11766.5
3261.15
2876.99
2252.19
2176.27
2038.35
1666.98
9348.19
7389.5
5856.84
6458.48
4940.9
3797.4
11829.6
9020.81
7586.55
9376.22
6755.55
5553.33
9096.61
6305.78
5394.95
14817.9
9461.59
6792.39
14429.9
9168.45
6193.43
16679
11531.9
8655.01
14565.1
8867.26
5792.91
16984.4
12116.2
9572.66
13299.3
9177.79
6577.49
12662.1
8269.28
5547.61
12199.4
7953.04
5358.51
14558.8
7838.35
4114.07
12506.9
19988.2
10868.2
15157.3
10719.8
21528.5
9189.66
17816.4
132.346
1536.86
-241.075
953.332
3530.92
6600.14
2321.24
4201.3
2205.55
4173.38
11576.5
16841.2
8679.06
6867.87
12823.3
11285.1
17816.3
19160.7
-387.82
-5754.55
8960.59
6245.23
6872.66
3905
1410.09
910.1
1210.45
784.877
3890.49
1199.41
2151.9
450.694
9980.49
2799.06
7836.42
2447.45
8807.8
2629.27
9846.1
3110.55
13433.7
12649
10378.3
12357.3
21043.1
18365.5
17090.5
17245.6
7305.24
8889.33
8562.14
8318.13
9658.95
12137.1
10088
12168.6
16273.2
16743.3
16841.3
16792
6421.12
8901.49
6151.57
8928.09
586.818
960.721
6497.24
2948.97
647.899
748.056
5735.56
2480.54
555.805
843.459
6783.46
3228.82
782.534
905.336
6780.02
3374.54
-162.48
-301.483
404.738
214.713
-806.076
-1299.84
641.529
278.647
989.132
-17.0245
2025.44
1550.68
-6849.35
-3466.23
-3957.16
-2726.88
-227.227
-6823.1
-9615.44
-4316.79
-4388.99
-300.64
10272.8
7192.33
5365.11
4923.73
2293.32
-430.811
-335.273
77.9586
89.6475
-1291.48
-1278.02
229.745
239.069
-1154.15
-1446.26
826.169
788.819
-2441.65
-647.185
-6932.86
-4224.32
-3491.34
-2107.42
-3261.67
-2415.95
-172.334
188.717
5631.05
3995.49
182.746
-1186.61
-366.762
-1244.12
158.115
-642.363
120.479
222.564
4262.68
4361.31
9339.09
5796.79
9019.37
8154.32
13138.1
9819.1
6546.34
3854.25
2329.83
2779.12
10944
4715.68
11719.3
4450.46
15030.4
9603.34
16059.5
9413.84
7832.16
2845.36
8462.09
2498.55
4204.33
3031.1
2336.25
4082.66
1929.53
2412.45
1339.62
3331.48
4614.66
2715.68
2911.73
4695.11
5648.82
2470.83
3627.54
4504.46
-329.227
-329.986
-352.308
53.2514
-69.7684
-82.558
-1198.78
-1181.87
-1171.23
85.0083
-273.202
-306.723
-1487.59
-1727.24
-1777.59
408.385
-485.302
-623.65
119.676
-516.983
-456.37
-2457.68
-2537.64
-2247.13
-1828.12
-1990.47
-1854.05
-2065.9
-2224.5
-2153.87
178.627
-689.086
-611.561
4565.01
2348.44
1360.44
45.1204
-856.433
-1171.61
-388.727
-1145.08
-1337.25
-269.269
-1039.23
-1185.53
914.683
-405.157
-485.221
75.9804
12.9382
-2.581
-9.34499