/*--------------------------------*- C++ -*----------------------------------*\
| =========                 |                                                 |
| \\      /  F ield         | OpenFOAM: The Open Source CFD Toolbox           |
|  \\    /   O peration     | Version:  2412                                  |
|   \\  /    A nd           | Website:  www.openfoam.com                      |
|    \\/     M anipulation  |                                                 |
\*---------------------------------------------------------------------------*/
FoamFile
{
    version     2.0;
    format      ascii;
    arch        "LSB;label=32;scalar=64";
    class       volScalarField;
    location    "0.9";
    object      gradTz;
}
// * * * * * * * * * * * * * * * * * * * * * * * * * * * * * * * * * * * * * //

dimensions      [0 -1 0 1 0 0 0];

internalField   nonuniform List<scalar> 
5712
(
8747.83
26459.6
6678.97
28817.9
3623.14
30264.8
6052.74
47229.1
9834.24
59126.4
10177.9
42398.5
10931.7
37884.5
10817.6
32729.3
5010.17
2890.34
15261.9
7458.9
4648.62
2194.67
16178
6576.02
6803.78
5209.06
20005.3
15094.9
4560
3763.82
20094.9
15695.3
10341.5
3826.3
8117.12
3123.01
3816.33
9873.19
46907.2
14197.3
14215.6
6292.84
56076.6
17348.7
12913.5
5717.8
31690.2
10492.1
16209.6
7231.72
26336.8
8310.15
7554.69
4054.26
11586.7
4810.51
7003.86
4260.06
12102.7
4716.94
9068.8
5720.52
7769.69
3403.88
13038.6
4819.02
5057.16
1907.09
16528.7
12914.8
9648.33
8925.92
17013.5
15052.6
9022.85
9655.53
9467.4
8536.01
13276.5
11759.5
6874.03
6051
3693.73
3190.16
6422.94
6419.31
3341.93
3355.49
6902.06
5676.66
3777.32
2728.45
8438.4
4835.57
8818.97
9453.9
11945.2
9034.65
13157.2
16641.2
5839.42
2584.72
5436.67
5507.06
3118.56
1134.36
2337.26
2051.2
9527.51
18437
6678.72
20692.3
10324.4
18471.3
7907.2
21785.2
13048.5
17898.7
10713.9
21738.4
12606
13328.2
11231.2
11594.6
13255.2
8808.37
11134.3
16223
19605.7
28118.6
12080.1
11111.5
11496.6
14560.2
22118.4
22981.9
22319.6
26819.9
27265.4
22160.9
22184.4
26655.8
26750.9
19979.1
20750
25163.3
25599.7
11004.5
11725.5
12238.4
13055.9
15257.5
15817.6
18506
18514.8
23950.1
24615.6
9883.87
11117.4
12121.1
13771.2
14361.7
16482.3
17221
19794.2
23043.1
25980.3
11706.5
8004.4
9302.21
8974.66
12266.8
13179.3
9849.58
12321.8
9080.94
8830.22
11781.6
8534.14
4104.4
6352.51
1447.61
2206.21
5982.83
8940.59
2074.1
3144.14
3771.99
5921.94
1255.54
2039.59
9038.91
7555.54
9566.28
6124.69
12964.8
9400.94
15151.6
10406.3
4407.54
4731.92
5421.56
3180.74
3056.39
3186.57
3401.26
2535.13
19662.7
13092.5
4381.49
21296.6
13568.6
4721.49
19166.1
12722.3
4440.02
21017.5
13453.3
4617.88
17984.5
11782.5
3977.3
20313
13106.8
4535
8801.3
5338.45
1565.19
11520.1
7908.19
2602.91
14027.6
9795.31
3325.71
16077.2
10649.5
3548.43
19316.5
12431.6
4389.66
9260.92
5347.66
1845.33
10673.2
7116.3
2572.04
12724.6
8554.1
3034.99
15259
9925.93
3471.18
18400.1
11060
3902.97
-582.059
925.035
241.785
2547.75
2003.76
1951.63
5104.93
4390.16
597.881
889.012
632.42
931.023
298.609
835.386
562.336
1231.45
1531.03
1008.86
3536.34
2594.76
1532.26
2360.83
2816.37
213.515
6450.81
1601.46
-5034.08
-1587.84
161.576
-32.323
-715.412
-795.023
9441.09
3680.43
2459.77
1301.6
9269.02
3677.58
2633.83
1490.9
8827.38
3888.54
3296.5
2005.72
2389.83
1281.53
843.079
729.116
13491.7
11652.5
5691.28
7301.59
16354.7
15171.5
7810.25
9309.94
4701.17
5707.61
10593.9
8524.33
3377.27
4559.35
1598.66
2344.55
5003.45
5854.39
2540.05
3026.95
2379.49
3577.95
989.793
1919.48
3835.95
2311.71
4311.88
2399.97
6988.37
3474.72
5938.8
3218.75
2004.42
1431.15
2847.72
1541.63
798.757
707.784
1612.19
834.585
10655.1
6227.23
4595.26
4219.86
10566.9
6275.37
4472.74
4110.63
10690.9
6170.88
4455.58
3812.02
13532.2
14206.7
11642.5
8207.54
3947.56
8572.66
9357.3
9002.9
7647.18
4408.3
12311.5
10069.7
7604.92
5511
2940.9
4513.62
3831.55
4051.31
4221.33
4634.77
3884.02
4001.49
4204.93
4677.03
3986.97
3873.28
4136
9585.11
9097.66
8000.22
6764.78
5332.73
5079.15
4469.62
4289.46
3423.9
4012.34
7213.51
8131.37
5502.31
6115.67
4303.75
4725.62
3568.92
3985.9
2541.76
3732.86
4994.97
4004.48
3390.05
2078.36
8140.2
6098.24
6476.22
4241.5
2244.55
1421.37
3382.58
2995.51
4003.47
1884.05
1597.46
873.166
5680.89
3343.75
2045.33
1400.16
2914.27
1287.63
1270.07
612.575
1487.37
1694.24
1477.56
2376.32
2344.64
2668.76
1759.48
3051.03
1824.07
1211.41
1058.95
1714.35
632.086
183.207
-22.0157
270.676
2845.26
1324.7
384.533
2766.64
770.567
209.512
2942.52
1471.16
462.064
2817.95
823.883
235.354
2981.74
1540.04
427.004
2788.36
823.315
208.355
6340.58
3663.86
1057.28
4615.59
2646.43
791.033
3802.15
2068.82
631.526
3108.08
1589.93
428.197
2762.78
793.803
178.155
6799.95
3735.01
1231.67
5171.64
2877.23
967.495
4032.22
2190.4
728.286
3239.44
1494.57
449.791
3005.43
858.966
282.489
1239.23
416.365
191.771
53.9904
497.53
173.319
84.0578
27.1298
1251.9
432.275
217.194
71.5255
566.767
212.888
124.388
52.1658
1388.38
496.548
270.065
99.6855
876.604
369.159
166.188
64.8911
531.182
270.005
71.9439
14.8145
464.449
263.453
99.7433
40.0362
1050.49
419.287
188.938
44.8772
968.588
376.813
209.173
35.2187
1399.29
512.929
287.022
90.4565
1209.48
438.267
268.609
38.7107
710.752
315.759
128.354
31.509
688.19
292.498
156.286
38.6019
436.492
225.362
104.306
46.3813
406.18
201.597
111.051
48.8412
1551.3
513.436
251.259
55.8352
1535.76
496.839
296.108
31.3244
1525.53
511.732
264.844
61.9622
1469.42
476.57
292.421
29.8992
1506.31
513.138
298.072
77.6862
1312.72
426.76
283.934
36.8154
1363.64
473.004
304.035
104.559
1429.15
467.166
349.352
54.0781
1027.42
356.704
234.464
56.63
1192.04
357.767
227.426
16.3976
450.985
125.725
71.246
11.3532
1183.43
359.589
227.414
18.3224
463.367
131.378
75.3867
14.4413
1123.28
345.244
226.447
22.3183
454.022
131.228
79.1921
18.2553
953.768
292.048
211.906
28.5074
405.124
115.397
81.9748
22.8712
834.013
264.464
193.284
37.5316
372.021
112.954
83.5002
27.3498
596.869
220.207
121.809
24.5858
312.258
127.748
61.7479
24.7778
669.811
222.357
151.208
30.4089
331.689
116.306
73.007
27.7507
479.22
203.117
101.565
26.3626
275.849
128.411
54.6812
25.0654
316.329
161.832
84.2127
38.0575
214.965
116.709
56.0084
31.0519
12.346
3.13096
0.986025
0.37144
0.185936
5.33236
1.43424
0.469555
0.180571
0.091214
15.1814
4.62448
1.6758
0.680781
0.352672
10.0875
3.74234
1.47984
0.623989
0.328276
23.5065
8.64158
3.42029
1.44353
0.759325
34.135
14.2494
5.96614
2.57907
1.37148
31.87
14.1413
6.09177
2.67307
1.43363
29.0529
13.5092
5.97854
2.67123
1.45013
26.3948
10.6014
4.41456
1.90935
1.0176
19.8053
8.16599
3.43169
1.49059
0.795935
28.0982
10.8188
4.39739
1.87727
0.992067
18.6411
7.32087
3.01494
1.29469
0.686095
26.4561
11.6184
4.99542
2.19501
1.18002
22.7502
10.3608
4.51716
1.99505
1.07437
26.1914
12.3106
5.46788
2.44727
1.32995
24.7804
11.8127
5.27506
2.36582
1.28709
11.8738
2.84397
0.858679
0.315768
0.156243
4.80511
1.12468
0.332815
0.120846
0.0593675
13.1666
3.57204
1.21505
0.4794
0.245081
4.87309
1.26015
0.411354
0.158926
0.0804269
13.7928
4.43087
1.64955
0.677933
0.352026
6.73246
2.24556
0.846497
0.349386
0.181587
24.0039
9.03431
3.58834
1.51117
0.790909
12.2059
4.52502
1.78011
0.745703
0.388668
24.0882
9.3991
3.82194
1.62615
0.855947
3921.37
6836.39
3752.42
6661.24
3574.54
6237.37
3544
6028.73
3727.1
6639.55
2236.2
2992.52
2982.85
4484.52
1492.46
1792.01
556.504
684.948
11670.2
2855.07
667.025
151.165
39.116
3143.24
845.512
229.515
52.5089
12.1448
11477.3
2771.19
643.254
144.856
37.3419
3255.51
956.491
238.782
56.4871
14.5807
10881.3
2586.02
594.754
133.131
34.1916
3160.54
922.032
228.2
53.421
13.661
9963.95
2325.36
531.022
118.683
30.5413
3016.25
858.164
208.195
47.9841
12.1111
8488.83
1955.7
447.198
100.592
26.147
2749.02
748.019
177.693
40.5068
10.1502
4567.72
1128.52
268.399
62.0587
16.5034
1405.33
361.596
80.4424
17.0322
4.0117
6484.14
1554.35
362.385
82.5935
21.7364
1945.9
512.524
119.299
26.848
6.68477
2830.99
718.2
173.548
40.5784
10.8701
897.266
236.883
52.1448
10.5752
2.38005
1032.05
265.542
64.7786
15.2681
4.11564
411.429
101.457
21.445
5.72662
0.906158
-2211.05
141.266
4605.59
-4272.92
1041.28
1111.57
2802.23
3435.35
2340.24
3792.46
3213.75
4860.5
3172.07
4127.32
1503.47
2178.97
1595.63
1860.15
1097.56
1137.53
2737.6
1966.23
122.323
-304.89
-336.636
-482.03
-64.2202
13125.2
4529.59
4914.94
4046.57
829.511
566.38
3538.25
-164.083
210.282
-98.7403
16.5405
6383.45
3563.25
2064.6
1143.43
3263.08
1787.84
508.737
775.733
-347.443
-239.074
1149.66
1050.67
9322.2
4263.58
4678.59
2583.7
3121.34
3596.87
556.004
-218.668
818.366
1783.95
1448.94
1156.89
959.799
637.24
1493.36
1135.36
858.477
589.442
219.04
102.876
81.3491
59.4227
36.9787
12.6573
-268.477
-220.564
-162.54
-99.1701
-33.2833
-298.063
-246.256
-182.026
-111.073
-37.2809
-426.396
-352.042
-260.322
-159.056
-53.4333
-55.8863
-44.7067
-31.1527
-17.6948
-5.70788
9175.55
7624.72
5831.11
4665.36
3581.56
3719.67
2739.82
2145.74
1546.12
616.96
3842.88
2875.38
2159.29
1494.05
600.11
3028.71
2206
1635.96
1093.78
389.848
644.539
447.057
347.026
231.675
95.433
515.712
438.719
337.457
215.994
74.665
2847.51
2168.57
1571.32
1003.93
358.172
-18.9825
65.6157
81.8572
62.6057
21.9908
190.668
164.99
131.586
87.7074
31.3682
-24.0003
27.9862
46.7128
39.2993
14.7611
1.71263
-6.25029
-5.93339
-2.2885
-0.111116
4147.83
3680.64
2877.85
2433.02
2021.94
2824.24
2109.11
1590.4
1083.04
389.445
1776.14
1433.63
1065.6
672.035
231.825
971.546
775.018
570.853
357.429
122.62
2674.02
2061.7
1490.9
933.47
323.738
1545.62
1241.57
914.208
565.134
185.868
432.198
345.192
254.941
159.652
54.2853
673.653
547.29
404.483
250.232
84.4974
-295.622
-233.124
-164.284
-96.2905
-31.5924
-209.283
-169.768
-121.84
-71.8301
-23.5852
985.86
792.089
580.916
359.157
122.376
902.721
726.223
532.793
328.952
111.708
5908.36
4435.38
3540.62
2970.81
2083.47
3211.49
2412.72
1801.38
1226.62
469.508
3528.8
2752.65
2105.88
1542.26
591.456
2000.16
1566.92
1173.21
783.469
316.171
2604.95
2043.84
1492.15
932.531
318.772
2904.23
2035.93
1512.48
1005.96
233.563
479.056
387.008
287.099
179.31
60.6816
-194.871
-161.143
-117.615
-70.2014
-23.2217
707.358
571.255
424.188
265.212
89.0657
-36655.7
-56256.8
-27983.7
-47693.6
-29138.2
-65524.9
-38062.2
-79776.3
-21134.3
-14637.7
-22880.6
-12799.7
-19458.2
-13119.5
-22812.3
-11345.7
-30897.2
-22203.1
-41914.8
-30766.1
-24534.1
-18380.1
-35962.4
-27389.1
-18485
-19350
-13267.6
-13427
-16432.4
-16744.7
-52538.7
-16156.3
-17320.2
-8333.27
-60949.3
-19484.9
-15664.7
-7760.28
-37351.1
-12295
-19177.4
-9008.73
-31820.1
-9635.31
-15261.1
-6551.31
-20469.1
-7759.52
-13390.4
-6052.64
-18874.6
-6815.91
-13990.4
-6899.96
-11661.6
-4540.76
-16022.8
-5766.77
-6247.13
-2339.8
-13704
-10420.1
-11122.2
-8643.53
-11676.3
-10207.7
-9767.75
-8647.06
-11252.4
-8657.79
-13281.9
-10934.5
-8286.23
-6339.54
-4907.97
-3674.35
-7458.96
-6355.6
-4367.75
-3622.66
-8390.2
-6095.45
-4961.41
-3250.16
-10121.4
-5403.35
-9010.09
-9435.08
-13372.4
-9439.52
-12901.3
-16207.5
-7089.97
-3020.18
-5779
-5616.48
-4051.62
-1470.61
-2731.78
-2192.58
-13726.5
-17707.8
-7986.91
-20421.5
-13670.9
-17264.6
-8788.34
-21130.9
-15165
-16634.1
-10983.3
-20660.7
-8664.26
-5547.84
-11166.7
-13008.1
-13328.5
-7508.19
-10701.3
-16029.4
-18757.1
-26749.2
-7142.7
-8397.76
-10236.2
-13710.5
-21173.7
-18804.1
-15409.1
-23809.8
-19767.7
-18196
-15715.8
-23810.3
-19902.6
-16616.1
-14746.7
-22472.4
-19724.2
-10361.7
-9583.4
-11067.4
-9996.51
-12831.5
-11624.2
-15090.4
-13546.4
-21410.8
-19707.2
-8352.59
-9072.29
-9864.3
-10011
-11728
-11888.5
-14545.8
-14841.7
-20966.8
-20931.7
-10012.2
-6819.5
-8459.98
-8201.15
-9972.45
-11649
-8552.28
-11157.7
-8585.32
-8277.43
-10631.4
-7517.52
-3774.01
-5937.48
-1347.84
-1993.07
-5344.37
-8286.88
-1769.4
-2766.14
-3620.7
-5661
-1265.56
-1928.33
-8730.86
-7138.62
-9309.22
-5773.58
-12132.3
-8468.45
-14493.4
-9464.43
-4322.43
-4562.39
-5330.91
-3045.84
-3074.77
-3124.82
-3386.9
-2485.24
-11214.4
-4317.16
-12333.3
-4296.55
-11461.1
-4328.39
-12911.3
-4761.4
-11085.6
-4102.28
-13827.8
-5445.95
-5649.01
-1514.41
-7052.72
-2554.2
-8453.7
-3284.55
-10316.5
-3886.53
-13773.3
-5345.86
-6447.54
-1383.66
-6487.34
-2305.59
-7735.01
-2896.98
-9928.43
-3688.37
-12710
-4266.67
-7910.79
-7552.8
-5688.93
-5236.47
-12689.2
-10131.3
-10139.3
-7981.4
-6211.6
-5261.96
-2460.85
-1881.69
-5893
-5264.65
-2266.57
-2009.11
-3613.7
-6640.72
-4737.05
-7894.83
-5283.93
-2974.96
-4423.88
-1709.7
-8563.51
-3487.37
3270.43
257.72
-1077.35
-897.333
132.613
249.149
-2675.57
-1193.71
-1115.26
-385.763
-2764.23
-1357.3
-1330.13
-456.249
-3128.05
-1631.58
-1852.28
-547.21
-1832.79
-258.967
-596.516
236.178
-6239.83
-6045.2
-4819.42
-5207.23
-9267.49
-8912.15
-7647.65
-7530.56
-3182.88
-3663.33
-4647.08
-4304.44
-3484.15
-3696.77
-1963.13
-1946.38
-5570.93
-5333.07
-3279.92
-2958.61
-1961.87
-2521.09
-913.295
-1260.37
-1977.53
-972.222
-2582.66
-1214.85
-2854.31
-1584.91
-3018.26
-1639.75
-1155.02
-483.581
-1781.7
-642.061
-316.568
69.0604
-825.34
-70.4781
-2772.21
-2439.95
-1832.03
-2514.64
-2902.66
-2642.88
-1924.05
-2581.31
-3474.34
-2824.81
-2179.8
-2553.19
-3161.08
-3949.26
-3285.32
-2717.96
-1788.83
-5689.69
-4381.25
-3604.28
-3574.97
-2795.96
-5941.64
-4289.43
-3232.51
-2500.92
-1379.08
-2915.25
-3406.73
-4011.74
-6651.46
-2895.58
-3010.93
-3753.21
-6154.76
-3051.26
-3448.31
-3461.41
-5483.72
-8843.75
-7576.01
-6596.04
-5614.48
-4120.31
-4277.24
-3540.01
-3978.27
-2985.47
-4906.7
-5996.08
-6745.25
-4102
-4981.34
-2929.08
-3792
-2484.1
-3398.89
-1610.21
-3775.62
-2854.98
-2826.8
-1925.52
-1026.46
-5701.87
-4796.44
-4949.32
-3125.11
-961.671
-498.355
-1703.32
-2023.09
-3055.56
-1183.62
-961.223
-379.075
-4792.01
-2624.21
-1534.89
-926.039
-2010.63
-662.711
-584.942
-140.266
-500.853
-1031.17
-812.773
-2054.24
-1143.68
-2020.98
-1061.88
-2893.96
-1058.88
-715.341
-424.831
-1364.33
30.3413
246.252
605.375
80.8981
-2810.55
-962.899
-4737.23
-620.044
-2544.32
-1101.18
-4457.42
-617.579
-2420.14
-784.166
-3612.28
-247.353
-4283.49
-1082.6
-3333.16
-898.691
-3129.85
-984.19
-2413.75
-486.114
-3273.34
-236.012
-4844.44
-870.419
-3812.84
-716.715
-3216.81
-690.467
-2678.03
-331.282
-3359.37
-351.142
-509.756
-178.823
-107.275
-16.1659
-177.633
-61.7169
-43.2208
-10.941
-514.212
-171.625
-117.507
-23.3529
-134.857
-38.2012
-50.5256
-17.8011
-583.038
-183.193
-135.165
-21.4337
-89.8549
7.743
37.4602
57.3744
196.92
130.067
153.19
109.811
346.207
213.128
163.379
90.7335
-366.264
-89.9227
-14.9098
56.6093
-327.349
-60.4778
-52.1925
56.9839
-648.038
-194.945
-137.525
10.0409
-511.284
-129.7
-133.473
51.2042
-90.6886
22.3795
57.4071
71.3916
-115.911
19.4851
12.6424
59.4644
160.629
124.35
97.5837
65.8122
127.399
106.856
64.1532
54.3949
-752.009
-256.944
-171.88
-12.2214
-938.709
-285.886
-258.01
11.3721
-743.193
-246.729
-180.31
-13.8301
-917.927
-275.472
-255.225
12.4499
-756.08
-238.372
-208.671
-24.4078
-842.759
-247.546
-248.637
5.86835
-563.098
-154.61
-181.468
-17.1601
-819.042
-224.574
-286.386
8.51303
-416.299
-102.704
-122.605
42.9921
-871.68
-214.404
-210.069
15.7226
-372.295
-77.6197
-62.1131
-0.949731
-787.62
-192.279
-200.821
15.7366
-345.979
-71.4177
-61.8497
-2.12459
-658.754
-152.018
-189.824
11.7948
-295.481
-57.3052
-59.5958
-3.00314
-535.486
-117.375
-172.664
5.1844
-256.375
-48.091
-60.864
-5.08739
-383.918
-78.5805
-132.85
8.01088
-159.202
-24.193
-48.8028
-1.54991
-204.313
-21.7459
-22.3351
44.4586
15.5812
37.1541
18.7074
27.324
-328.729
-68.4719
-83.5859
23.8203
-55.6212
7.4752
-16.6749
10.9398
-45.4651
38.4576
24.1467
53.2599
65.8831
64.8201
44.0462
36.9669
124.244
99.5697
53.9241
46.9772
125.19
91.0006
51.7811
35.9394
-1.40736
0.609441
0.464993
0.244646
0.142559
-0.309179
0.359048
0.240119
0.123155
0.0712254
2.00492
1.99384
1.04923
0.505771
0.286293
4.21277
2.19813
1.04573
0.48932
0.273998
10.3479
5.24988
2.46454
1.1489
0.64319
21.7424
10.2347
4.6567
2.14287
1.19196
24.781
11.4771
5.1772
2.36793
1.31139
28.4972
12.7527
5.66932
2.56267
1.40613
16.1856
7.70156
3.49811
1.60753
0.892533
14.5613
6.23654
2.76633
1.26246
0.699436
15.581
7.21274
3.28514
1.51626
0.845863
12.0325
5.11534
2.26611
1.03615
0.575901
20.3695
9.53774
4.31678
1.97487
1.09246
20.4405
8.92975
3.95473
1.79695
0.99184
25.9284
11.7226
5.21934
2.36013
1.2952
24.9857
11.3459
5.04712
2.28147
1.25196
-1.58709
0.408565
0.368856
0.200281
0.117901
-0.525935
0.142324
0.13687
0.075529
0.0447548
0.158491
1.17428
0.68384
0.338655
0.193688
0.0448429
0.34688
0.214763
0.10842
0.0625267
3.77648
2.23118
1.09318
0.517755
0.292378
2.0646
1.13496
0.550515
0.259779
0.146533
12.88
5.66662
2.59085
1.2028
0.675391
5.87057
2.69778
1.25255
0.584508
0.329393
14.3664
6.22285
2.78078
1.27856
0.713905
-3911.6
-6046.04
-3767.68
-5946.26
-3541.79
-5592.04
-3425.79
-5395.34
-3448.51
-5843.42
-2085.57
-2788.29
-2774.97
-4085.37
-1395.2
-1692.08
-499.921
-636.125
-11761.4
-2867.87
-669.411
-151.769
-39.3267
-3130.05
-848.027
-230.466
-52.7553
-12.2204
-11510.7
-2774.34
-644.103
-145.215
-37.5037
-3248.97
-959.374
-239.636
-56.7203
-14.6603
-10816
-2573.96
-593.233
-133.106
-34.2755
-3147
-921.867
-228.428
-53.542
-13.718
-9816.45
-2300.94
-527.532
-118.318
-30.5504
-2974.75
-852.103
-207.418
-47.9374
-12.1352
-8320.89
-1928.84
-443.191
-100.086
-26.11
-2675.17
-736.891
-176.122
-40.3258
-10.1454
-4503.32
-1115.71
-266.15
-61.7216
-16.4636
-1346.86
-350.653
-78.6489
-16.7766
-3.98311
-6367.59
-1533.53
-359.014
-82.1225
-21.6869
-1872.03
-500.682
-117.524
-26.6131
-6.66317
-2797.97
-710.951
-172.171
-40.3607
-10.8433
-859.908
-228.536
-50.5946
-10.3347
-2.35051
-1013.81
-261.066
-63.8508
-15.1121
-4.0953
-388.642
-95.447
-20.1812
-5.5155
-0.879218
-384.719
-2822.87
-7562.8
660.691
-8310.08
-3684.9
-8153.32
-3850.81
-14042
-7660.03
-16328.4
-8856.28
-46.9036
-152.761
-238.505
-282.469
-241.314
-59.1333
-79.2162
-255.755
-398.26
-466.502
-396.489
-101.436
-33.578
-30.0108
-101.926
-92.2607
-130.963
-127.865
-80.0012
-98.6262
-26.7848
-73.9762
-56.0107
-73.7781
456.584
1362.12
2721.4
2182.89
1958.39
833.89
532.085
1524.88
2645.3
3000.29
2575.26
1091.07
-42.0569
-35.2982
-26.5443
-16.4361
-5.56077
-137.069
-115.143
-86.6725
-53.7129
-18.1815
-213.866
-179.519
-135.031
-83.6347
-28.3016
-253.062
-212.188
-159.43
-98.6639
-33.3723
-216.193
-181.243
-136.126
-84.2016
-28.4705
-54.6088
-47.1722
-36.2369
-22.675
-7.69501
-70.9289
-59.4287
-44.6147
-27.5894
-9.32783
-229.13
-192.128
-144.366
-89.347
-30.2224
-356.419
-298.497
-224.038
-138.544
-46.8448
-416.776
-348.366
-260.997
-161.196
-54.4705
-353.601
-294.976
-220.606
-136.088
-45.9597
-91.4957
-77.2255
-58.2923
-36.1424
-12.2276
-30.1499
-25.3465
-19.0927
-11.8379
-4.00802
-26.9683
-22.6942
-17.1123
-10.6187
-3.59688
-91.5628
-77.0221
-58.0579
-36.0185
-12.1992
-82.9161
-69.7854
-52.6313
-32.6657
-11.0662
-117.595
-98.8661
-74.4818
-46.1874
-15.6396
-114.801
-96.5043
-72.6929
-45.0731
-15.2614
-71.9939
-60.6744
-45.8112
-28.4522
-9.64163
-88.4795
-74.3039
-55.9112
-34.6378
-11.7225
-24.5333
-21.0549
-16.1337
-10.1081
-3.43761
-66.2146
-55.4436
-41.5861
-25.6933
-8.68192
-50.8868
-43.2064
-32.6983
-20.2584
-6.84435
-66.0262
-55.2279
-41.3272
-25.459
-8.58617
399.315
326.443
240.411
147.196
49.6104
1183.03
961.231
706.037
432.727
146.087
2326.36
1866.23
1366.54
842.766
286.42
1846.31
1490.79
1101.57
689.478
243.347
1663.96
1340.37
987.242
613.862
209.884
730.71
599.158
444.605
274.919
92.6835
465.805
381.131
280.79
171.89
57.9167
1328.39
1082.31
795.883
487.548
164.498
2285.42
1849.58
1356.8
832.884
281.942
2575.18
2077.27
1524.16
939.32
320.143
2202.93
1772.4
1300.36
802.926
273.527
939.79
761.368
562.229
348.699
118.945
65.5483
174.148
264.974
316.167
284.859
121.248
107.872
287.713
434.931
506.021
434.139
133.574
46.3877
39.7226
116.353
103.872
147.014
141.77
94.5965
111.014
48.0217
70.9906
125.414
98.11
-373.436
-1245.03
-2518.73
-1939.94
-1698.85
-568.422
-504.372
-1485.31
-2559.46
-2854.84
-2371.1
-850.112
58.9489
49.6592
37.4923
23.2918
7.89495
156.449
131.624
99.2414
61.5858
20.8624
237.861
199.934
150.608
93.3964
31.6267
283.614
238.19
179.277
111.106
37.6112
255.657
214.814
161.742
100.257
33.9403
110.778
94.8337
72.5113
45.3672
15.4174
96.9014
81.5215
61.4667
38.1473
12.9235
258.108
216.792
163.191
101.147
34.2423
389.698
326.849
245.7
152.134
51.4771
452.669
378.977
284.414
175.903
59.4861
387.805
324.16
242.942
150.122
50.7476
120.592
101.952
77.1392
47.9451
16.2463
41.7513
35.2057
26.6056
16.5408
5.60887
35.763
30.1669
22.8056
14.1821
4.80978
104.632
88.1313
66.5259
41.3207
14.0043
93.4337
78.7252
59.4449
36.9316
12.5185
132.139
111.232
83.911
52.0933
17.6507
127.402
107.222
80.8674
50.1944
17.0056
85.2125
71.9087
54.3738
33.8139
11.4672
99.7115
83.8636
63.2087
39.2132
13.2815
43.7727
37.4152
28.6137
17.93
6.10264
63.7885
53.6674
40.4553
25.0969
8.49984
113.611
96.3951
73.1645
45.5727
15.4606
88.2078
74.2386
55.9518
34.6907
11.7443
-324.408
-263.185
-192.503
-117.345
-39.4722
-1077.91
-872.788
-639.35
-391.36
-132.074
-2143.55
-1711.45
-1249.13
-769.665
-261.589
-1620.4
-1293.33
-946.545
-589.947
-209.481
-1417.25
-1120.48
-810.715
-497.395
-168.762
-475.605
-368.98
-257.315
-149.584
-48.0366
-441.049
-360.433
-265.29
-162.33
-54.6911
-1293.36
-1053.35
-774.473
-474.512
-160.135
-2208.3
-1784.64
-1307.82
-802.547
-271.69
-2441.53
-1961.78
-1434.58
-882.427
-300.694
-2012.62
-1605.41
-1168.65
-717.815
-243.975
-713.531
-561.22
-402.993
-244.929
-82.7062
-2337.66
-1627.93
120.917
500.264
549.558
781.308
405.46
-11056.8
-2451.93
-3636.58
-1594.46
187.711
-3704.74
466.925
1638.96
415.87
-5523.09
-2572.8
-1128.54
-672.145
-2912.39
-1178.31
-232.391
-337.017
970.974
794.944
-696.07
-622.313
-8785.06
-3917.39
-4032.71
-2145.05
-2768.63
-2795.92
-76.6366
752.442
-292.768
-1355.16
-1044.28
-803.627
-697.838
-529.242
-1158.26
-826.949
-601.532
-411.93
-154.033
117.141
105.421
82.8621
52.1571
17.7183
445.338
370.832
277.134
171.026
57.7799
490.745
409.913
306.801
189.316
63.9619
696.23
580.279
433.642
267.401
90.3129
364.657
306.958
231.151
143.187
48.5328
-7512.11
-6427.43
-5059.7
-4359.02
-3837.9
-1738.57
-1096.16
-899.535
-735.763
-285.896
-2701.89
-1937.23
-1458.28
-1058.46
-451.28
-1088.11
-727.201
-588.002
-442.988
-140.495
169.374
142.302
106.133
64.871
22.4526
-2976.88
-2277.99
-1667.01
-1078.73
-387.024
414.834
343.456
253.657
154.439
51.6511
1389.18
1103.49
803.606
496.337
170.693
373.494
312.298
231.935
141.18
47.0009
-3383.63
-3039.02
-2401.65
-2178.49
-2056.74
-1907.26
-1316.43
-975.06
-688.687
-251.474
-919.818
-704.769
-508.231
-319.442
-109.821
-543.884
-411.92
-294.306
-183.923
-63.2474
-2373.84
-1821.61
-1321.39
-836.63
-293.346
-985.15
-757.569
-538.722
-325.209
-102.219
-180.472
-129.662
-89.3429
-55.1873
-18.4844
-275.523
-208.27
-145.323
-87.2045
-28.6967
854.543
703.076
520.287
319.409
107.896
708.666
590.642
440.868
271.418
91.6605
-580.668
-453.448
-326.646
-201.273
-68.7146
-517.303
-401.426
-287.164
-175.821
-59.5929
-5414.09
-4011.92
-3215.17
-2786.48
-2072.72
-2887.07
-2126.21
-1574.43
-1080.54
-419.929
-2905.25
-2214.18
-1673.67
-1261.03
-483.94
-1592.19
-1210.23
-893.236
-604.463
-257.246
-2284.27
-1770.5
-1282.91
-800.931
-273.239
-2175.46
-1395.57
-1015.03
-688.534
-113.447
-43.1304
-14.6912
-1.66171
0.57327
0.929092
674.095
564.658
422.969
260.785
88.0922
-226.221
-157.876
-105.296
-62.8401
-19.2449
-70.725
-172.776
-249.741
-345.986
-501.578
-686.15
-26311.1
-21847
-20083.9
-23937.3
-18776.2
-14718
-16863.1
-12999.3
-23925.5
-19303.3
-20359.2
-17467.4
-17675.4
-13849.2
-16709
-22420.5
-19755.2
-17229.3
-19512.5
-16826.7
-13200.3
-14655.1
-11083.1
-22148.7
-18871.7
-20054.9
-17688.8
-17377.4
-14522.7
-16937.9
-17648.9
-16219.9
-13960.7
-15193.5
-14170.1
-11803.2
-12377.2
-10519.4
-18293.7
-17021.1
-17363.7
-16487.2
-15806.3
-13694.3
-15830.7
-12254.9
-11757.9
-10035.7
-10472.7
-10884.1
-10174.7
-9481.08
-9238.72
-13331.4
-14750
-12934.3
-14275
-12379.2
-11343.1
-13697.8
-7897.64
-7762.34
-6496.41
-6634.87
-7610.88
-7668
-6342.67
-6426.48
-9229.54
-11300.2
-9087.67
-10683
-9026.04
-8812.89
-10308
-2876.5
-2852.23
-2346.45
-2380.64
-2856.84
-2991.17
-2292.59
-2265.84
-3699.8
-4731.81
-3631.53
-4254.14
-3661.16
-3667.52
-4100.85
-9394.38
-9321.26
-13583.5
-14989.9
-9233.92
-8606.63
-12565.7
-10444
-7982.5
-4747.53
-8042.5
-4694.83
-8014.05
-8102.11
-4791.15
-8981.84
-8678.05
-12585.6
-13638.5
-8265.74
-7124.3
-11368.1
-9203.25
-5834.88
-1925.72
-5690.82
-2135.49
-4783.84
-4569.09
-2448.2
-7620.7
-7371.55
-10658.6
-11305.8
-7197.11
-6400.82
-9854.09
-8613.11
-3359.83
-1763.27
-3222.48
-2282.89
-2969.44
-3188.38
-2849.7
-5673.56
-5572.39
-7882.92
-8140.83
-5537.95
-5224.33
-7602.89
-7249.04
-3323.24
-1692.57
-3404.23
-2426.81
-3476.36
-3922.73
-3121.34
-3619.26
-3561.78
-5082.73
-5182.5
-3423.02
-3286.42
-4962.51
-4785.72
-2060.17
-1356.57
-2157.91
-1952.79
-2449.04
-2845.55
-2443.9
-1263.62
-1246.51
-1818.42
-1846.8
-1219.75
-1222.93
-1773.09
-1693.64
-552.854
-604.658
-660.553
-889.901
-887.407
-1075.8
-1034.85
8646.61
25922.7
6666.85
28831.5
3617.79
30270.3
6050.18
47227.8
9830.01
59121.7
10168.4
42394.9
10915.3
37878.6
10677.4
31980.4
5007.83
2889.9
15263.5
7459.3
4647.12
2194.22
16177.1
6575.72
6721.6
5146.08
19636.3
14818.8
4549.53
3759.39
20112.5
15716.8
10347.9
3824.42
8118.68
3122.83
3816.42
9882.57
46911
14197.8
14216.5
6292.8
56076.6
17348.4
12913.5
5717.53
31698.8
10493.8
16211.7
7232.22
26349.1
8312.26
7498.11
4005.59
11363.8
4710.54
7009.42
4260.41
12122.7
4721.71
9072.13
5721.16
7776.24
3405.95
13045.9
4821.47
5058.97
1907.77
16528.5
12914.8
9648.51
8926.01
17013.6
15052.7
9022.79
9655.55
9468.1
8536.24
13276.6
11759.7
6874.34
6051.1
3693.6
3190.1
6422.93
6419.33
3341.79
3355.46
6902.87
5676.89
3777.4
2728.45
8439.9
4836.19
8819.3
9454.05
11946.2
9034.94
13157.5
16641.2
5840.78
2585.28
5436.97
5507.23
3118.91
1134.53
2337.31
2051.25
9534.21
18487.2
6653.55
20741
10332.2
18459.4
7910.51
21773.2
13049.7
17894.3
10713.6
21734.1
12606.1
13328.5
11231.4
11595.7
13254.9
8808.42
11134.1
16222.3
19604.3
28116.4
12080.3
11111.5
11496.6
14560.2
22118.1
23030.8
22346.6
26878.8
27248.5
22151.1
22180.4
26646.4
26756.2
19975.2
20747.9
25160.2
25600.6
11004.5
11725.3
12238.1
13055.5
15256.6
15816.9
18503.7
18513.6
23948.8
24615.6
9883.79
11117.3
12120.8
13770.9
14361.2
16481.9
17220.3
19793.7
23042.8
25980.2
11706.4
8004.35
9302.18
8974.65
12266.7
13179.2
9849.56
12321.7
9080.95
8830.27
11781.4
8534.12
4104.43
6352.52
1447.6
2206.22
5982.84
8940.56
2074.12
3144.15
3772.04
5921.98
1255.53
2039.6
9038.98
7555.6
9566.34
6124.71
12964.7
9400.97
15151.6
10406.3
4407.61
4731.97
5421.61
3180.75
3056.42
3186.59
3401.29
2535.14
19666.9
13085.3
4387.33
21284.7
13552.8
4714.17
19161.3
12719.6
4438.45
21019
13453
4617.21
17982.9
11781.4
3976.8
20313.7
13106.7
4534.75
8801.12
5338.32
1565.15
11519.8
7907.96
2602.82
14027
9794.94
3325.57
16076.5
10649
3548.23
19316.7
12431.5
4389.53
9260.77
5347.55
1845.28
10672.9
7116.12
2571.96
12724.2
8553.87
3034.89
15258.7
9925.73
3471.09
18400.1
11059.9
3902.86
-583.992
924.4
237.044
2546.91
2002.3
1951.03
5102.08
4389.39
588.095
886.722
620.787
925.079
301.017
837.103
565.055
1233.03
1534.43
1010.47
3536.9
2595.04
1534.01
2364.29
2816.08
213.942
6450.51
1601.43
-5032.44
-1586.17
162.07
-31.3382
-712.864
-793.063
9428.02
3680.59
2456.63
1299.79
9266.98
3678.51
2633.27
1492.37
8826.39
3888.71
3297.26
2006.94
2391.23
1282.66
844.679
730.063
13491.9
11652.7
5691.18
7301.65
16355
15171.8
7810.09
9309.95
4701.34
5707.69
10593.8
8524.24
3377.34
4559.48
1599.03
2344.8
5003.37
5854.43
2540.12
3027.05
2379.9
3578.17
990.417
1919.82
3836.19
2312.06
4311.94
2400.04
6987.95
3474.57
5938.58
3218.55
2005
1431.65
2847.95
1541.84
799.508
708.291
1612.55
834.856
10653.1
6234.2
4600.53
4225.57
10564.4
6272.8
4471.14
4105.75
10689
6169.32
4454.39
3809.86
13532.5
14207.2
11642.1
8206.62
3946.95
8572.8
9357.36
9002.45
7646.11
4407.07
12311.7
10069.9
7604.75
5510.64
2940.54
4515.47
3826.66
4053.38
4216.56
4633.23
3883.26
3996.97
4203.34
4676.01
3986.54
3871.35
4135.19
9585.15
9097.6
8000.19
6764.7
5332.48
5078.97
4469.12
4289.15
3422.95
4011.86
7213.54
8131.32
5502.33
6115.62
4303.64
4725.51
3568.67
3985.72
2541.31
3732.56
4995.04
4004.48
3390.11
2078.39
8140.3
6098.23
6476.26
4241.51
2244.56
1421.37
3382.52
2995.46
4003.54
1884.09
1597.58
873.229
5680.93
3343.78
2045.4
1400.2
2914.35
1287.67
1270.22
612.646
1487.36
1694.22
1477.52
2376.26
2344.5
2668.66
1759.29
3050.88
1824.14
1211.44
1059.03
1714.37
632.232
183.28
-21.8774
270.746
2838.65
1320.28
383.956
2764.43
770.903
209.411
2942.13
1472.28
462.534
2817.68
824.782
235.768
2981.64
1540.37
427.168
2788.16
823.506
208.47
6340.48
3663.79
1057.25
4615.52
2646.4
791.022
3802.07
2068.83
631.539
3107.95
1589.97
428.214
2762.63
793.853
178.186
6799.86
3734.95
1231.65
5171.57
2877.19
967.476
4032.14
2190.36
728.273
3239.33
1494.53
449.771
3005.31
858.964
282.499
1236.69
414.844
190.229
53.1412
494.09
171.742
82.9228
26.6095
1252.44
432.476
217.338
71.5933
567.309
213.066
124.523
52.2299
1388.5
496.597
270.111
99.7101
876.843
369.197
166.228
64.9085
531.414
270.037
71.9646
14.8211
464.765
263.559
99.7904
40.0535
1050.62
419.33
188.965
44.8918
968.636
376.836
209.185
35.2257
1399.24
512.913
287.023
90.4619
1209.4
438.238
268.597
38.7076
710.938
315.823
128.387
31.5256
688.304
292.551
156.313
38.6158
436.708
225.452
104.35
46.4005
406.329
201.672
111.09
48.8614
1553.43
513.804
250.704
55.2828
1539.25
497.859
296.283
31.1028
1525.03
511.557
264.767
61.9032
1467.48
475.936
292.073
29.7912
1505.86
512.982
298.001
77.6523
1311.83
426.461
283.789
36.7624
1363.37
472.892
303.989
104.538
1428.64
466.984
349.27
54.044
1027.27
356.645
234.439
56.6195
1196.89
359.388
228.306
16.3364
453.801
126.602
71.6434
11.3717
1181.32
358.906
227.084
18.2644
463.14
131.315
75.3818
14.4432
1122.27
344.88
226.292
22.2738
453.695
131.11
79.1453
18.2406
953.326
291.883
211.836
28.4826
404.933
115.325
81.9425
22.8575
833.812
264.386
193.249
37.5164
371.925
112.916
83.4805
27.3388
596.872
220.215
121.812
24.5878
312.261
127.752
61.7494
24.7778
669.737
222.332
151.195
30.4023
331.646
116.29
72.9969
27.7437
479.283
203.154
101.584
26.3735
275.894
128.439
54.6954
25.0736
316.432
161.893
84.2443
38.0761
215.041
116.757
56.0335