/*--------------------------------*- C++ -*----------------------------------*\
| =========                 |                                                 |
| \\      /  F ield         | OpenFOAM: The Open Source CFD Toolbox           |
|  \\    /   O peration     | Version:  2412                                  |
|   \\  /    A nd           | Website:  www.openfoam.com                      |
|    \\/     M anipulation  |                                                 |
\*---------------------------------------------------------------------------*/
FoamFile
{
    version     2.0;
    format      ascii;
    arch        "LSB;label=32;scalar=64";
    class       volScalarField;
    location    "0.9";
    object      gradTy;
}
// * * * * * * * * * * * * * * * * * * * * * * * * * * * * * * * * * * * * * //

dimensions      [0 -1 0 1 0 0 0];

internalField   nonuniform List<scalar> 
5712
(
14650.2
8055.14
25300.1
16679.6
24433.2
20937.5
35416.9
44481.3
54163.4
69364.4
28959.5
25638.6
17792.1
12356.5
11846
6755.28
23638.5
20334.3
21644.5
20828.3
26979.7
25115.9
31711
26538
8455.06
5709.54
4440.37
3068.92
12126.4
7610.43
6774.14
4412.79
25219.6
26171.8
21929.6
16827.5
17329.8
14011.7
14958.1
14392.8
19634.2
19523.5
41243.2
45704.7
28729.7
30714.4
22102.1
17447.8
21863.5
15216.2
9327.86
8173.12
7344
12094.3
3685.81
5351.98
9683.67
15928.1
6188.84
8919.26
9683.37
18880
7510.09
13091.9
2261.16
8679.95
330.897
6173.33
19157.3
23235.4
20803.4
23398.9
23848.1
23897
25027.9
23814.8
19243.6
23392
18717.9
22828.8
21160.5
23473.6
20920.1
23475.5
25630.2
23789.7
25886.2
23783.6
18256.8
23562.3
16710.2
23552.7
21317.9
23927.7
26812.6
39560.1
22445.5
28270.3
26788.3
44184.4
20117.9
20922.2
26583.5
37107.5
19344.6
19115.8
26541.2
35974.9
6338.83
8316.55
17509
29836.9
7424.09
8574.43
21234.2
32769.2
8558.77
8997.01
25467.6
35795.9
26914.8
27837.7
24350.8
23589.4
35046.3
28130.8
25603.6
24083.5
21390.3
40746.8
25710.5
24805.3
22053.1
24798.1
51378.4
2100.13
2782.63
6095.84
13369.9
2921.55
4184.23
7771.3
14974.1
4249.19
4084.26
10078.6
17007.5
26654
25181.6
23056.9
20817
20870.6
17357.1
15857.2
13335.6
13666
21165.6
23677.9
20317.3
22764.1
20286.5
20242.1
17739.8
18724.2
15762.2
15919.1
22367.3
23973
25121
25066
27174.6
23228.9
21056.7
23879.4
22554.1
22850.3
22801.9
22425.6
21890.2
25600.8
27903.9
25538.9
27771.9
24380
23641
24247.2
23598.8
22614.6
22596.9
22985.5
22842.1
20594.4
20083.8
14582.4
17540.4
20852.6
19794.2
15221.8
18561.2
19928.8
19709.2
14315.4
17366.9
20084.9
19469.9
14129.2
16880.3
2191.22
1624.93
1105.95
1106.78
853.773
829.886
3384.68
2086.83
1473.55
2642.57
2180.4
1716.55
3323.32
2761.18
2687.85
4779.4
3750.84
3154.01
22001.7
17379.2
14577.1
19044.9
16016.7
13978
13459.3
11619
10562.9
10338
8790.79
7910.53
7842.26
5048.56
3668.93
17427.8
14263.9
12289.7
18102.7
14974.3
13192.3
14010.8
10988.3
9448.41
10705.1
8349.54
7215.44
7866.71
5030.58
3667.58
30211.7
30691.9
32636.4
29396.4
30198.9
29462.5
36661.7
30774.8
18737
19944.8
18832.9
18063.8
24994.5
21302.1
24744
19013.4
27186.6
27938
23083
25470.6
29359.8
26294.3
30941.3
32406.6
33440.2
36219.9
26235.9
27131.2
22714.3
22538.7
25570
24821.5
16341.7
9206.04
15465.8
10190.3
15936.7
9023.05
14971.1
9868.57
14611.5
8318.44
13992.9
9365.02
13808.7
9714.68
13285.7
9669.35
22845.7
17257.2
22813.8
17726.6
25959
22533
26599.1
22601.6
20713
13546.7
21135.5
12847.6
23561.9
18010.3
24379.3
18087.2
27632.5
22749.3
28352.2
22811
20375.4
13866.3
20334.8
13931
11958.3
8067.8
10067
6527.13
10848.3
7188.91
9263.09
5960.31
12332.1
8550.97
10439.3
6843.63
12446.3
8836.03
10540.1
7005.52
2598.38
1370.74
4879.28
2893.44
2665.85
1550.75
4932.87
3143.8
2853.3
2020.3
4861.78
3538.54
12395.9
21615.8
7992.59
7258.7
5373.84
21940.7
13502.1
7324.78
6517.23
4214.02
21290
14865.8
10631.8
7700.52
5082.27
890.795
743.744
2027.6
1736.01
1093.97
781.164
2376.36
2010.8
1523.51
1168.63
2812.01
2391.94
21787.1
19470.8
13180
11077.3
7909.66
6837.3
5985.1
5079.81
3820.38
3270.94
19005.5
15303.9
13251.8
10476.1
9547.35
7809.53
6667.29
5623.3
4589.57
4456.48
12737.7
9177.35
13082.4
8779.82
17041.6
11891.5
17648.4
11983.2
10206.3
7327.04
9990.29
7710.55
13722.7
8481.07
13946.2
8662.42
18784.6
12509.4
18879.6
12715
10367.9
6970.26
10597.7
7308.82
7173.66
5734.99
5032.87
5665.35
7202.9
5928.59
5097.29
5517.26
7176.73
5620.59
4929.67
5903.47
7558.72
5727.56
5119.96
5853.19
1195.55
863.461
625.409
4212.75
1947.56
1396.18
1123.24
940.508
736.413
4520.68
2300.85
1723.55
1444.79
1355.09
1240.77
4921.36
2886.57
2329.09
15539
12331.9
10455.8
9043.83
7319.85
6374.26
6003.46
4929.03
4377.34
4795.05
3886.33
3434.64
5863.78
3836.28
3141.51
11577
9020.49
7537.31
7978.09
6222.64
5271
6397.45
4912.94
4062.09
5540.99
4234.5
3553.35
7712.83
4792.45
3959.04
4691.91
2418.57
1340.71
792.859
5218.7
2596.3
1394.3
821.846
4554.52
2384.49
1338.96
799.982
5167.24
2599.79
1418.73
843.501
4312.6
2337.5
1377.02
818.809
5000.46
2614.93
1486.49
874.773
5202.99
2698.02
1453.77
863.586
5299.5
2776.29
1473.3
865.745
4542.78
2461.02
1439.68
846.835
3836.27
2217.19
1359.18
774.307
4018.13
2258.48
1391.38
806.377
3518.76
2084.51
1311.73
744.118
4844.07
2599.82
1462.65
859.991
4033.89
2316.74
1388.03
786.82
5000.38
2692.3
1489.84
869.523
4141.05
2386.96
1419.58
800.137
3629.68
2122.39
1269.1
750.755
2623.78
1791.51
1177.63
682.453
3532.39
2095.14
1273.1
752.776
2617.77
1790.66
1179.59
684.552
3390.01
2056.7
1292.15
758.328
2679.46
1818.14
1191.74
690.739
3263.03
2001.36
1284.3
754.004
2717.64
1833.69
1224.22
701.151
3114.58
1949.76
1246.41
710.16
1689.32
1502.76
964.47
288.706
772.565
1357.87
873.809
265.004
1797.99
1544.7
984.657
302.955
914.978
1404.84
890.022
270.436
1979.66
1611.05
1001.52
301.751
1146.43
1484.14
908.769
273.265
2261.86
1700.33
1039.55
323.247
1456.46
1590.53
943.787
285.566
2693.03
1826.78
1101.97
362.661
1859.53
1704.38
978.749
295.84
3048.93
1986.76
1140.25
349.746
2013.67
1857.27
1050.25
310.47
2969.17
1917.1
1114.2
349.337
1998.6
1798.05
1013.28
302.144
3070.27
2033.12
1147.69
332.067
1997.91
1903.19
1069.5
309.477
3056.63
2080.3
1176.46
337.106
2092.08
1951.94
1095.41
314.852
475.204
266.342
141.084
66.7441
19.445
483.531
268.159
141.547
66.8822
19.4775
483.209
268.576
141.981
67.0997
19.5388
491.852
270.94
142.72
67.3536
19.6022
485.997
270.624
142.947
67.4931
19.643
493.468
274.802
144.518
68.0826
19.7954
511.47
281.121
147.221
69.1663
20.082
518.638
286.378
149.737
70.214
20.3634
501.439
276.827
145.476
68.4828
19.9024
497.548
276.47
145.479
68.5027
19.9089
485.377
272.958
144.005
67.9158
19.7544
490.249
274.245
144.608
68.1629
19.8198
510.383
280.763
147.152
69.1539
20.08
503.856
280.032
147.064
69.1445
20.0794
516.364
286.227
149.852
70.2887
20.3856
510.33
285.216
149.666
70.2474
20.3773
462.299
263.844
140.502
66.5805
19.4076
453.22
262.147
140.124
66.4784
19.3848
466.466
265.546
141.184
66.8458
19.477
457.652
263.805
140.749
66.7138
19.4456
471.634
267.738
142.081
67.1959
19.5686
466.473
266.247
141.635
67.0464
19.5314
479.24
270.414
143.136
67.6012
19.674
477.289
269.172
142.683
67.435
19.6314
482.815
272.434
143.924
67.9019
19.7519
13256.5
20797.3
13715.8
21013.1
14471.3
21358.9
15371.3
22310.6
16160.7
24073.2
13892.7
17063.9
14663.7
18930.7
13609.5
16555.7
13383.3
16391.9
10845.7
1965.7
439.72
100.652
18.0172
12930.2
3618.56
895.008
206.586
36.652
10958.7
1918.82
421.916
95.808
17.0681
13015.8
3597.04
879.367
200.594
35.5018
11156.7
1884.43
404.903
90.9139
16.1118
13207.3
3579.46
861.017
194.464
34.2257
11361.6
1830.95
384.381
85.6649
15.1641
13449.2
3552.88
843.226
189.485
33.3117
11392.9
1767.43
369.626
83.0195
14.8178
13544
3502.8
832.355
188.501
33.3899
10403.8
1929.52
450.68
108.183
20.0822
11604.5
3427.1
886.492
213.664
39.4668
10878
1875.68
416.198
96.5867
17.5634
12412.6
3480.17
862.915
201.138
36.3227
10127.7
1962.43
472.442
115.967
21.8462
11256.8
3391.16
897.75
221.093
41.5064
9984.8
1918.51
464.186
114.988
21.824
11094.3
3336.59
889.968
221.103
41.7769
39165.3
56045.9
49831.3
36527.9
19836.9
20950.5
31704.9
32096.1
21768.8
23528.7
35254.1
47737.9
52511.4
72235.9
26499.6
29411.2
21131.9
20786.8
14525.4
15023.4
3756.03
2435.97
321.584
212.979
263.514
212.063
295.876
3428.71
3149.27
1880.28
2356.38
1918.08
792.697
1261.17
961.884
585.598
685.364
525.474
3050.89
1457.24
706.385
644.021
901.6
745.237
520.677
494.345
397.359
347.68
514.52
484.372
3263.3
1842.41
1983.29
1204.7
914.054
1463.26
530.846
351.569
610.908
7565.83
7179.68
6613.96
7301.66
11534.2
5205.14
5400.82
5291.76
5685.55
6317.21
823.569
1124.74
1319.68
1434.87
1489.05
551.645
766.964
914.047
1003.28
1045.21
680.919
942.779
1118.29
1222.24
1270.15
550.045
766.257
914.359
1003.87
1045.64
760.967
1046
1233.33
1343.67
1394.86
7293.96
7261.69
6491.28
6643.69
10064.4
6465.34
6211.05
5594.71
5545.31
6334.55
4158.32
4481.79
4366.93
4440.01
4677.57
4875.84
4818.63
4394.13
4239.55
4472.46
4012.9
4054.29
3718.48
3563.95
3659.21
1904.82
2357.6
2548.28
2643.49
2701.38
2877.96
3281.99
3331.8
3369.48
3449.15
2244.51
2650
2753.54
2790.01
2824.84
1446.92
1868.89
2087.58
2197.92
2249.77
1663.72
2090.85
2283.43
2372.95
2417.46
1309.74
1714.01
1933.74
2044.89
2094.16
6601.13
6754.41
6198.96
6523.79
9980.77
3355.33
3853.91
3944.7
4093.56
4291.46
1728.08
2196.94
2426.58
2550.84
2619.53
1590.54
2051.76
2294.41
2430.36
2502.72
2167.22
2677.32
2897.19
3038.32
3140.03
1831.05
2338.44
2595
2747.41
2832.84
1306.98
1728.28
1973.93
2117.4
2188.35
1244.28
1652.95
1892.91
2028.54
2093.62
1010.59
1364.57
1581.88
1701.88
1755.56
889.59
1212.68
1418.34
1535.74
1589.21
1287.78
1696.43
1926.86
2050.18
2107.67
1219.1
1619.74
1853.99
1983.61
2044.68
6805.02
6720.12
6217.68
6770.67
10512.8
4096.08
4508.19
4565.81
4857.46
5263.78
4773.42
5387.75
5197.91
5534.97
6098.29
2864.07
3448.4
3665.05
3874.41
4034.37
2222.63
2781.01
3036.44
3208.57
3312.79
3441.45
3995.96
4083.38
4280.4
4430.13
1331.22
1757.84
2004.16
2145.49
2215.03
898.009
1221.09
1426.13
1544.55
1599.47
1517.39
1973.85
2222.36
2363.24
2435.69
22021.8
14526.7
23227.3
17781.9
27490.2
40237.7
29585.9
42214.9
24151.7
23142.8
21514.5
21858
24719.5
24081.8
31223.2
26033.6
17437.7
15977.2
7783.29
6389.13
20232.6
16691.8
10740.7
7369.13
26263.2
28752.4
23512.3
20578.2
25344.4
16801.8
15123
14522.2
20158.5
19707.2
41815.9
46021.7
28695.8
30777.5
23065.8
17715.2
23018.4
15484.3
10117.9
8343.54
17421.6
21257.3
6992.12
8617.16
18495.8
23634.2
9317.42
11996.2
15888.5
23863.9
9826.75
15513.8
2679.33
9570.28
365.898
6353.11
20832.5
22532.8
21202.8
23112.6
23106.8
22617.5
24545.2
23165.8
20492.6
23528.9
22068.4
22867.3
21347.4
23358.5
20966.7
23441.7
25440.3
23484.6
25845.8
23689
18766.5
23663.5
16828.2
23588
22368.2
25433.6
27318.9
40166.1
24089.4
30826.5
27543.4
45073
20650.9
21664.2
26869.9
37464.4
19496.2
19325.2
26636
36097.5
23523.2
26738
31571.2
45103.9
22257.2
23867.8
32482.9
44647.8
19136
19570.1
32618.7
42662.1
21007.2
21809.4
22736.5
24538.2
38236.3
21349.3
19486.8
23769.6
22443.8
44091.1
21417.9
21354.2
20924.8
25751.9
52536.8
15652.8
14536
13508.8
17496.5
15184.4
14312
13775
18067.7
13881.7
12301.2
13647.3
18162.6
20450.8
19160.4
18561.4
17167.4
21063.6
18685.5
17256.7
14924.1
15104.5
20585.1
20297.5
18306.3
20219
19052.8
19431
17535.2
19354.5
16239.4
16158.8
20993.6
22759.2
24098
24457.3
26550.3
21708.2
20024.9
23114.1
21976.7
22610.1
22462.1
21918.2
21365.3
25343.6
27643.4
25468
27698.3
24042.5
23397.8
24151.1
23528.5
22520.4
22442.2
22960.9
22800.7
20626.5
19964.9
14685
17479.1
20936.1
19640.7
15407.1
18310.5
19952.6
19654.5
14369.8
17355.8
20095.6
19455.7
14149
16879.9
13674.6
14776.9
5349.32
5457.97
13309.8
13253.7
6195.21
6413.28
10591.9
10075.8
6848.44
6564.77
17895.1
16364.3
16956.4
16210
15883
14892.6
12343.8
10983.9
8756.88
6544.96
17291.7
15958.6
18875.5
17343
15116
13285.9
11958.9
10292.7
7703.58
5648.41
24927.4
24386.1
30409.2
26524.4
27382.4
25864.3
37026.7
29501.8
19942.4
15096.6
21888.9
16505.9
20742
15143.6
22752.8
16502.5
23512.2
21127.4
20308.6
19183.2
20791.4
22636
29548.2
31994.8
32868.6
36066.5
24529.3
26629.5
21363.4
22153.4
23665.9
24250.3
12194
9389.68
13382.8
9836.93
11876
9160.81
13092.7
9574.84
11265.2
8454.09
12438.1
9094.26
12912.7
9467.14
12999.7
9574.51
18712.6
16153
20901.1
16944.3
22964.2
20757.3
25246.7
21622.8
18633
13122.7
16919.8
12530.8
22622.1
17568.7
24102.3
17941.7
27005.7
22257.2
28175.5
22656.8
19340.6
13576.6
20024.8
13827.6
11360
8131.94
10040.7
6776.03
10407.9
7729.88
9614.68
6597.5
11932.3
8499.69
10349.8
6932.52
12312.4
8804.11
10501.8
7031.6
10305.5
10286.4
8554.56
8105.08
9818.31
9961
8254.65
7824.11
9145.62
9214.81
7501.93
7057
15936
20702.7
13667.9
9349.75
7209.03
20070.9
16919.2
14780.6
9298.11
6752.38
19944
15659
12158.4
9429.32
6503.6
11039.5
12094.9
8276.83
8754.9
10456.8
11034.6
7830.15
8158.03
9354.37
9413.49
6777.22
6652.05
18970.8
16792.7
14723.4
12895.2
12942.8
12366
9145.89
8929.36
6528.7
6264.56
17490.6
14270.8
13643.4
10946.9
11040.9
9432.6
8606.53
7735.32
6086.08
6150.5
12577.2
9371.61
12912.2
8878.66
16142.2
11508.2
17129
11790.3
10322.5
7620.99
10397
8366.64
13582.4
8494.44
13893.7
8659.01
18512.9
12407
18795.5
12682.8
10352.5
7051.64
10571.9
7319.02
7449.22
6125.32
5372.59
6177.51
7931.63
6816.77
5865.56
6573.53
7250.85
5753.64
5068.3
6134.41
7577.49
5763.9
5168.34
5920.35
14306.4
14596.7
15513.8
13206.2
12561.6
12757.4
14509.1
12401.1
10280.1
10309.7
12448.7
10756.7
14702.6
13342.7
11792.7
11003.7
11900.8
11460.7
9197.39
8497.24
11750.1
10194.9
11352.7
10423.9
9007.27
8499.33
8499.59
7989.39
8263.87
7583.59
12159.2
9998.61
5557.53
2958.27
1617.74
944.131
5731.48
3021.76
1637.06
961.817
5345.23
2887.92
1593.29
940.064
5599.21
2968.38
1629.87
967.882
4992.87
2786.13
1604.2
942.914
5318.24
2906.89
1662.84
978.772
5364.37
2873.93
1569.05
932.222
5347.76
2835.54
1511.69
889.478
4863.2
2704.87
1583.37
932.258
4154.68
2439.9
1485.11
845.501
4631.33
2637.47
1591.69
915.977
4082.65
2432.94
1489.87
835.568
4994.21
2735.42
1547.77
912.919
4194.07
2439.46
1464.63
833.481
5042.14
2736.51
1519.03
887.828
4190.82
2426.37
1445.63
815.998
5218.02
2841.28
1601.24
917.815
4758.36
2677.56
1568.06
858.378
4974.34
2774.7
1587.42
911.066
4529.06
2622.76
1550.81
853.344
4624.34
2674.76
1583.55
904.157
4210.39
2540.99
1523.6
843.524
4286.2
2532.48
1535.53
876.985
3993.86
2465.97
1514.89
832.556
3996.55
2420.54
1473.68
812.427
4048.43
2478.14
1343.73
378.137
2859.68
2353.59
1264.3
359.703
3884.09
2449.25
1344.83
391.28
2782.6
2327.19
1259.61
361.312
3645.48
2393.15
1318.7
379.509
2653.34
2281.97
1236.17
354.547
3610.65
2354.3
1320.78
396.319
2715.55
2252.22
1224.71
357.366
3658.49
2323.1
1334.41
428.958
2854.71
2219.55
1206.58
356.336
3358.13
2210.07
1277.76
393.462
2249.54
2076.47
1170.38
345.15
3548.07
2269.35
1302.68
405.061
2498.61
2150.18
1185.56
349.606
3213.49
2153.64
1229.8
358.76
2086.87
2019
1138.82
329.956
3092.98
2117.59
1203.29
345.947
2111.98
1987.17
1117.63
321.505
559.136
306.464
159.127
74.1999
21.4511
562.076
306.69
159.047
74.1398
21.4325
562.699
305.742
158.607
73.962
21.385
562.518
305.325
158.291
73.8076
21.341
558.708
304.287
157.952
73.6836
21.3088
550.277
302.349
157.002
73.265
21.1928
547.694
298.169
155.017
72.4231
20.9625
532.18
293.002
152.793
71.4962
20.7106
550.516
300.554
156.256
72.9667
21.1127
545.374
299.972
156.171
72.9526
21.1105
548.877
302.566
157.228
73.3811
21.2264
550.29
301.463
156.785
73.2061
21.1794
543.533
297.722
154.988
72.4336
20.9672
534.992
296.799
154.893
72.4303
20.9689
527.425
291.938
152.525
71.4142
20.6907
520.821
291.087
152.46
71.4287
20.6978
553.612
305.967
159.181
74.2603
21.4707
552.602
305.71
159.203
74.2941
21.4821
554.589
305.581
158.84
74.0952
21.4241
554.036
305.524
158.939
74.1568
21.4426
554.981
304.804
158.344
73.869
21.3612
557.671
305.145
158.528
73.9562
21.3858
556.096
303.655
157.72
73.5973
21.2863
561.366
304.295
157.982
73.7099
21.3174
552.036
302.493
157.224
73.389
21.2293
15137.7
20490.3
15072.6
20414
15080.2
20330.3
15477.2
20989.5
15902.1
22448.5
13879.5
16951.5
14576.8
18496.2
13616.9
16531.9
13388
16390.1
11278.5
1996.45
442.406
101.011
18.0773
13015.7
3639.76
898.579
207.261
36.7766
11248.2
1934.81
422.709
95.8925
17.0923
12963.3
3593.84
879.037
200.669
35.5485
11224.8
1878.22
402.889
90.5936
16.0828
12947.3
3539.96
854.976
193.671
34.1578
11247.1
1806.68
380.124
85.0164
15.0904
13026.5
3484.12
832.502
187.95
33.1429
11185.4
1736.52
364.631
82.2435
14.7226
13059.8
3426.29
820.2
186.673
33.1722
10337.1
1914.93
447.586
107.603
20.0006
11512.6
3399.17
880.215
212.486
39.3022
10737.9
1850.36
411.553
95.7982
17.4597
12171.4
3425.68
852.634
199.418
36.1015
10103.3
1955.97
470.877
115.646
21.7987
11228.2
3380.02
894.823
220.489
41.4168
9979.4
1916.83
463.737
114.89
21.8088
11088.7
3333.9
889.173
220.925
41.7498
38794.1
56195.6
50230.6
35377
25839.9
31643.7
25432.5
31519.4
29651.3
47997.8
32305.2
52555.9
19.1172
24.4526
36.5989
57.9626
91.8558
142.849
23.3267
29.1875
42.2959
64.7814
99.8797
152.289
15.8861
14.3347
20.8482
19.0474
32.4463
30.2255
53.8545
51.6869
88.6086
88.1393
141.932
145.319
216.952
331.019
519.827
849.067
1201.94
1496.62
228.874
339.977
497.802
703.2
906.334
1045.98
50.719
73.3033
90.6932
102.342
108.145
64.7662
93.3447
115.156
129.646
136.822
96.6869
138.76
170.448
191.238
201.445
152.63
217.892
266.238
297.482
312.665
240.878
341.572
414.639
461.022
483.309
372.523
523.591
630.322
696.671
728.201
61.8121
89.152
110.066
123.99
130.899
77.1957
110.993
136.599
153.496
161.827
111.542
159.623
195.526
218.907
230.333
170.23
242.205
295.008
328.868
345.252
261.286
369.116
446.541
495.329
518.701
396.082
554.445
665.135
733.545
766.043
42.1954
61.0965
75.7308
85.586
90.5143
38.0986
55.2204
68.5173
77.4984
81.999
55.2885
79.8452
98.7014
111.299
117.563
50.5484
73.0825
90.4447
102.082
107.881
85.8357
123.459
151.982
170.807
180.085
80.024
115.246
142.05
159.801
168.571
142.011
203.177
248.777
278.402
292.846
136.4
195.386
239.514
268.27
282.315
232.662
330.573
401.997
447.504
469.406
231.553
329.261
400.678
446.233
468.162
370.56
521.707
628.897
695.62
727.299
379.564
534.679
644.723
713.108
745.493
561.332
779.295
927.829
1018.05
1060.64
846.499
1154.09
1353.13
1471.57
1528.04
1305.04
1729.34
1982.3
2133.27
2210.05
2070.58
2622.87
2908.73
3100.02
3219.57
2833.84
3424.79
3691.04
3925.12
4125.15
3442.9
4017.04
4241.18
4516.22
4796.88
590.683
816.986
969.792
1062.36
1106.22
868.469
1182.44
1385.22
1506.09
1564.09
1254.76
1674.07
1929.91
2082.21
2158.63
1743.82
2270.43
2570.72
2755.45
2857.58
2211.32
2813.24
3136.93
3350.78
3485.57
2524.32
3162.56
3493.34
3728.07
3889.97
19.4441
25.5413
38.7738
61.8133
98.2135
152.671
23.7032
30.4084
44.6279
68.6588
105.826
160.759
16.1731
14.5992
21.8247
19.9577
34.4956
32.1822
57.7592
55.5776
95.6018
95.5203
154.025
160.026
230.674
348.175
538.245
862.941
1209.05
1498.33
239.917
352.92
510.956
713.937
912.953
1048.12
51.5984
74.6006
92.3306
104.221
110.149
67.6876
97.6496
120.593
135.887
143.481
102.528
147.379
181.346
203.761
214.814
162.984
233.195
285.625
319.793
336.507
257.999
366.943
446.869
498.201
523.092
399.037
563.036
680.636
754.912
790.647
62.8239
90.6452
111.953
126.159
133.213
80.4753
115.834
142.722
160.534
169.342
117.813
168.893
207.27
232.423
244.775
180.672
257.676
314.654
351.521
369.484
277.336
392.979
476.95
530.495
556.383
419.021
588.733
709.063
784.568
820.854
42.9656
62.2303
77.1602
87.2245
92.2611
38.8081
56.264
69.8324
79.0052
83.6053
57.9076
83.7007
103.565
116.876
123.51
52.9894
76.6739
94.9723
107.271
113.414
91.336
131.565
162.218
182.556
192.621
85.2745
122.979
151.809
170.996
180.513
152.501
218.661
268.364
300.92
316.893
146.85
210.803
259.009
290.673
306.235
251.474
358.399
437.284
488.158
512.877
251.409
358.636
437.938
489.171
514.087
403.131
569.99
690.275
766.494
803.192
419.094
593.103
718.805
798.518
836.892
598.564
835.117
999.576
1101.63
1150.58
893.548
1225.75
1446.6
1581.77
1647.44
1356.81
1810.81
2091.61
2265.09
2354.73
2112.51
2694.28
3010.24
3228.23
3364.04
2858.43
3471.4
3761.33
4018.43
4234.35
3450.16
4032.55
4265.89
4550.68
4838.57
620.763
862.34
1028.39
1130.89
1180.13
904.074
1236.91
1456.54
1590.43
1655.61
1291.59
1731.78
2007.11
2175.03
2260.34
1774.86
2321.02
2640.52
2841.5
2953.25
2231.29
2847.27
3185.38
3412.05
3554.86
2531.02
3174.4
3510.59
3750.32
3915.48
3746.67
2434.89
346.145
230.961
302.044
238.568
329.099
3347.05
3082.52
1942.25
2372.72
892.277
1360.16
686.242
825.062
624.268
3016.46
1506.02
783.076
704.831
960.679
789.337
550.181
540.505
478.271
408.989
591.284
544.749
3240.47
1846.61
1985.33
1223.27
945.147
1494.1
569.656
395.543
661.819
7560.37
7195.61
6650.68
7376.47
11686.7
5210.12
5420.22
5327.07
5741.47
6391.22
890.679
1226.32
1451.4
1589.5
1656.25
600.28
839.495
1006.79
1110.91
1160.83
784.343
1095.3
1311.49
1445.2
1509.09
621.143
870.993
1046.82
1156.43
1208.9
850.88
1180.23
1405.24
1543.62
1610.02
7346.96
7710.38
7323
7924.51
12204.4
6787.41
7180.82
7031.69
7581.78
9186.76
4438.62
5056.11
5219.94
5583.02
6058.67
5562.57
6247.69
6207.78
6581.95
7448.35
2202.06
2842.99
3203.9
3444.46
3597.52
3236.15
3933.11
4240.99
4522.34
4788.95
1728.31
2303.05
2656.42
2875.36
2992.95
2053.74
2687.23
3056.95
3292.91
3431.3
1583.09
2131.81
2478.21
2689.92
2798.66
6629.1
6990.99
6656.36
7241.89
11224.1
3530.67
4187.65
4441.01
4748.2
5060.8
1949.45
2551.64
2904.77
3132
3264.19
1763.64
2326.58
2664.13
2878.24
2997.43
2344.77
2974.84
3312.25
3556.67
3724.67
1959.11
2546.81
2881.05
3099.32
3224.46
1389.9
1858.51
2148.22
2327.27
2418.61
1372.35
1850.68
2153.66
2339.12
2432.6
1227.67
1684.17
1986.73
2170.98
2260.74
1053.87
1454.26
1723.89
1888.75
1968.3
1500.69
2023.55
2355.29
2558.6
2662.57
1385.94
1875.59
2189.14
2380.93
2477.5
6805.85
6795.65
6361.37
7016.24
10994.1
4123.93
4575.82
4676.3
5015.37
5459.87
4838.7
5570.05
5498.01
5972.91
6648.59
2926.97
3565.34
3839.26
4103.39
4297.27
2317.22
2942.02
3264.41
3496
3636.36
3559.89
4227.19
4430.83
4744.76
4970.92
1439.88
1927.58
2230.24
2416.84
2512.4
1017.22
1399.43
1655.04
1811.57
1887.48
1661.48
2201.53
2528.02
2732.66
2842.67
3920.27
3751
3497.84
3125.48
2442.08
994.831
21682.3
22998.7
23928.1
24844
23062.5
22820.9
22735.1
22837.7
19652.1
24450.6
22120.9
24181.4
29643.6
19946.9
33654.9
20002.4
21380.1
22096.6
22520.9
21750.4
22717.4
21397.3
22267.7
20296.8
32447.9
22792.8
31283.6
30830.5
24696.5
39059.9
18181.5
19355.8
19519.3
19493.2
20129.4
21813.3
19425.1
21068.8
22761
30641.2
25491.9
30058.3
31783.3
27778.9
36796.6
16447.8
17486.2
16989.7
16737.2
18608.3
20908.4
17293.7
19527
20316.7
27555.3
22542.8
26028.4
27297.7
23917.6
32171.3
14818.1
15841.9
15040
14740.7
17208.6
19791.3
15352.2
17409.9
17604.2
21707.2
19763.9
20029.4
22989.7
19205.3
24697.5
13396.2
14361
13566.6
13273.3
15316.3
17136.9
13855.1
15454.3
14701.2
16759.3
16645.7
15899.5
19395.5
15234
20414.5
22941
22828.9
24503.6
25872.7
23110.2
23445.8
23147.8
23604.8
18980.3
11650.1
19995.5
11469.8
19885.6
16177.9
16518.6
21458.2
21683.3
22312.4
23076.3
22006.4
22449.5
21485.4
22144.8
16257.5
11153.7
16908.9
10889.9
16530.9
14689.9
14688.8
18102.7
18377.3
19248.4
19461.8
18864.2
19237.9
19019
20084.9
14199.4
11073.1
14912.2
10595.4
15179
12618.3
14463.7
14713.5
15117.7
16265.1
16169.8
15732
16063.7
16578.3
17668.1
11508.8
10744.9
12214.6
10188.7
12545.5
10526
13853.9
12427.9
12916.1
14091.7
13920.6
13583.8
14305.2
14421.5
15315
9932.92
10878.3
10884.7
10906.7
11732.6
10870.6
14417.8
10651.5
11195
12523.9
12328.3
12286.2
13431.1
12853.7
13961.9
9291.55
11345.5
10535.6
11881
11762.9
11088.9
15324.6
14334.5
7728.62
25280
16629.7
24429.1
20920.6
35411.6
44469.6
54160.4
69347.4
28968.7
25628.4
17800.8
12332.9
11453.4
6382.78
23632.9
20331.2
21638
20825.6
26976
25113.5
31705.9
26535.6
8259.69
5609.15
4301.65
3007.02
12115
7601.93
6773.78
4417.71
25213.4
26164.1
21926.3
16824.9
17325.3
14012.6
14956.2
14392.1
19632.8
19522.8
41241.2
45703.7
28728.3
30713.4
22101.7
17448.1
21863
15216
9327.81
8173.16
7217.99
11870.2
3605
5214.28
9688.99
15942.1
6200.49
8935.7
9686.6
18886.8
7514.71
13097.9
2261.81
8682.17
330.891
6174.08
19155.8
23234.7
20802.3
23398.3
23846.7
23896.1
25026.6
23814.1
19243.4
23391.9
18716.8
22828.5
21159.7
23473.2
20919.6
23475.2
25629.3
23789.1
25885.4
23783.1
18256.6
23562.3
16710
23552.8
21318.6
23930.3
26813.4
39561.5
22446.2
28273.7
26789.2
44186.3
20118.5
20923.8
26584.1
37108.6
19345.2
19116.9
26541.8
35975.8
6266.34
8264.13
17281.7
29641.2
7436.27
8587.77
21254.1
32795.5
8563.8
9002.11
25476.4
35803.8
26913.4
27836.8
24348.8
23590.1
35050.2
28129.8
25602.2
24081.1
21390.9
40750.7
25709.7
24804.4
22052.6
24799.3
51380.9
2072.39
2747.82
6030.01
13272
2934.07
4190.97
7787.5
14989.3
4253.64
4087.47
10085.7
17013.7
26653.2
25181
23055.9
20816.3
20869.3
17356.3
15858.6
13336.8
13669.6
21168.8
23677.2
20316.9
22763.5
20286.2
20242
17739.8
18725.2
15763.1
15920.7
22368.7
23972.6
25120.7
25065.7
27174.4
23228.5
21056.4
23879
22553.9
22850.3
22801.9
22425.5
21890.2
25600.6
27903.7
25538.7
27771.7
24379.7
23640.7
24246.9
23598.6
22614.6
22596.8
22985.5
22842
20594.7
20084
14582.8
17540.8
20853.1
19794.6
15222.6
18561.9
19929
19709.4
14315.7
17367.2
20085.1
19470
14129.4
16880.6
2147.04
1593.02
1087.43
1091.2
842.561
823.202
3387.25
2088.41
1475.58
2647.99
2184.43
1719.99
3324.84
2762.27
2688.82
4781.69
3752.47
3155.6
22001.3
17378.9
14577
19044.5
16016.5
13978
13459
11618.9
10563
10338.6
8791.17
7910.99
7843.5
5049.35
3669.64
17427.5
14263.7
12289.6
18102.5
14974.2
13192.3
14010.9
10988.4
9448.54
10705.6
8349.86
7215.77
7867.29
5030.95
3667.91
30216.5
30694.2
32640.7
29398.2
30196.8
29461.7
36658.5
30773.8
18580.7
19903.4
18634.8
18012
25017.3
21295.4
24772.1
19006.4
27192.6
27944.7
23085.6
25473.4
29359.4
26294
30941.9
32406.5
33439.4
36219.1
26237.9
27131.8
22715.2
22539
25570.8
24822.1
16321.7
9185.8
15441.5
10173.3
15933.2
9023.37
14967.9
9868.07
14610.3
8318.18
13991.9
9364.62
13808.7
9714.52
13286
9669.47
22846.6
17257.3
22814.4
17726.6
25958.5
22532.6
26598.6
22601.2
20713.6
13546.8
21136
12847.8
23562
18010.2
24379.1
18087
27632
22749
28351.5
22810.6
20375.7
13866.3
20335
13931
11958.6
8067.73
10067.1
6527.14
10848.7
7188.85
9263.22
5960.31
12332.4
8550.97
10439.4
6843.65
12446.5
8836.15
10540.2
7005.57
2586.6
1358.83
4865.17
2877.9
2668.13
1552.96
4933.86
3145.11
2854.05
2021
4861.98
3538.92
12395.9
21615.3
7992.74
7259.01
5373.94
21940.1
13501.9
7324.65
6517.36
4214.22
21289.5
14865.7
10631.9
7700.66
5082.29
877.168
730.373
2008.65
1723.21
1095.18
781.61
2377.49
2011.25
1524.03
1168.92
2812.39
2392.05
21786.6
19470.3
13179.7
11076.9
7909.28
6836.76
5985.05
5079.62
3820.54
3270.98
19005.1
15303.6
13251.6
10475.9
9547.25
7809.35
6667.34
5623.26
4589.62
4456.44
12737.6
9177.21
13082.3
8779.71
17041.3
11891.2
17648.1
11983
10206.3
7326.98
9990.26
7710.46
13722.6
8480.97
13946
8662.31
18784.4
12509.3
18879.3
12714.8
10367.9
6970.19
10597.6
7308.75
7173.68
5734.96
5032.86
5665.31
7202.94
5928.56
5097.3
5517.24
7176.73
5620.56
4929.67
5903.43
7558.71
5727.52
5119.96
5853.17
1178.17
850.364
615.776
4185.46
1929.97
1381.85
1122.78
940.395
736.652
4523.88
2303.28
1725.51
1444.98
1355.21
1240.85
4922.38
2887.41
2329.85
15538.5
12331.6
10455.6
9043.36
7319.45
6373.94
6002.85
4928.54
4376.96
4794.79
3886.05
3434.39
5864.2
3836.69
3141.92
11576.8
9020.28
7537.15
7977.85
6222.43
5270.82
6397.25
4912.76
4061.94
5540.89
4234.39
3553.26
7712.94
4792.62
3959.26
4691.08
2419.4
1340.58
792.394
5217.15
2596.61
1394.05
821.079
4552.99
2384.15
1338.9
799.928
5166.07
2599.67
1418.76
843.512
4311.9
2337.27
1376.96
818.772
4999.88
2614.77
1486.47
874.761
5202.68
2697.9
1453.74
863.571
5299.4
2776.23
1473.29
865.737
4542.53
2460.9
1439.64
846.816
3836.17
2217.12
1359.14
774.289
4017.82
2258.35
1391.32
806.347
3518.64
2084.43
1311.68
744.096
4843.93
2599.74
1462.62
859.975
4033.83
2316.69
1388.01
786.805
5000.34
2692.26
1489.82
869.514
4141.04
2386.94
1419.56
800.128
3628.48
2123.12
1269.19
750.556
2619.82
1791
1177.57
682.37
3531.01
2094.81
1273
752.697
2616.92
1790.52
1179.47
684.493
3389.4
2056.49
1292.07
758.282
2679.18
1818.06
1191.68
690.712
3262.79
2001.25
1284.24
753.977
2717.51
1833.64
1224.18
701.13
3114.47
1949.69
1246.37
710.139
1684.83
1502.27
964.683
288.9
768.297
1356.71
873.511
264.906
1798.46
1545.02
984.701
302.987
915.864
1405.21
890.169
270.481
1979.8
1611.14
1001.52
301.75
1146.81
1484.3
908.826
273.281
2261.9
1700.33
1039.54
323.24
1456.64
1590.58
943.797
285.568
2693.01
1826.74
1101.95
362.651
1859.6
1704.37
978.735
295.836
3048.88
1986.72
1140.22
349.737
2013.66
1857.23
1050.22
310.462
2969.12
1917.05
1114.17
349.327
1998.6
1798.01
1013.26
302.137
3070.25
2033.09
1147.67
332.06
1997.91
1903.16
1069.48
309.471
3056.62
2080.28
1176.45
337.103
2092.08
1951.93
1095.4
314.849
474.869
266.218
141.034
66.7245
19.4399
483.012
268.01
141.487
66.8588
19.4713
483.185
268.563
141.975
67.0972
19.5381
491.855
270.932
142.717
67.352
19.6017
485.98
270.613
142.941
67.4904
19.6423
493.462
274.795
144.514
68.0807
19.7948
511.463
281.115
147.217
69.1644
20.0815
518.632
286.374
149.734
70.2123
20.3629
501.429
276.819
145.472
68.4807
19.9018
497.537
276.463
145.475
68.5006
19.9083
485.365
272.949
144
67.9134
19.7537
490.238
274.237
144.603
68.1605
19.8191
510.374
280.757
147.149
69.152
20.0794
503.846
280.026
147.06
69.1425
20.0788
516.358
286.222
149.849
70.2871
20.3851
510.324
285.212
149.663
70.2458
20.3767
462.08
263.74
140.46
66.5639
19.4033
452.994
262.049
140.085
66.4632
19.3808
466.445
265.532
141.176
66.8424
19.4761
457.652
263.792
140.742
66.7106
19.4447
471.621
267.726
142.075
67.1928
19.5677
466.469
266.237
141.629
67.0433
19.5305
479.23
270.405
143.13
67.5985
19.6732
477.283
269.162
142.677
67.4322
19.6306
482.805
272.426
143.919
67.8995
19.7512
13217.9
20754
13717.2
21017.4
14472.7
21361.1
15372.2
22311.8
16161.3
24073.9
13893.1
17064.2
14664.1
18931.2
13609.7
16555.9
13383.5
16392.1
10835.5
1957.1
437.535
100.148
17.9276
12916.6
3613.18
893.569
206.236
36.5894
10955.4
1915.57
420.81
95.5075
17.0096
13013
3593.5
877.948
200.177
35.4166
11154.9
1883.27
404.437
90.7704
16.0818
13206.2
3577.75
860.232
194.21
34.1712
11360.9
1830.52
384.183
85.5964
15.1488
13448.8
3552.13
842.838
189.348
33.2807
11392.7