/*--------------------------------*- C++ -*----------------------------------*\
| =========                 |                                                 |
| \\      /  F ield         | OpenFOAM: The Open Source CFD Toolbox           |
|  \\    /   O peration     | Version:  2412                                  |
|   \\  /    A nd           | Website:  www.openfoam.com                      |
|    \\/     M anipulation  |                                                 |
\*---------------------------------------------------------------------------*/
FoamFile
{
    version     2.0;
    format      ascii;
    arch        "LSB;label=32;scalar=64";
    class       volScalarField;
    location    "0.9";
    object      T;
}
// * * * * * * * * * * * * * * * * * * * * * * * * * * * * * * * * * * * * * //

dimensions      [0 0 0 1 0 0 0];

internalField   nonuniform List<scalar> 
5712
(
534.351
553.906
519.501
542.839
499.953
526.661
470.443
499.098
474.729
503.597
502.197
530.882
514.967
541.312
527.051
549.932
489.173
469.558
509.496
479.818
460.568
440.024
479.308
448.528
542.969
550.188
558.581
562.242
531.331
540.785
549.788
555.509
530.114
514.542
499.918
490.732
530.163
543.447
532.694
539.137
489.328
497.541
506.219
512.707
457.665
464.519
545.532
551.435
511.135
522.251
557.547
564.396
555.053
565.317
565.111
569.871
546.337
561.955
559.059
567.618
534.512
556.221
546.625
562.656
554.894
565.617
559.797
567.417
452.285
434.882
461.881
439.728
417.097
402.085
426.345
407.123
492.102
470.179
483.104
464.846
468.212
442.817
471.653
444.237
432.612
410.301
435.91
411.738
498.423
473.572
501.839
475.114
521.613
554.332
502.155
540.741
513.175
548.799
495.873
535.526
527.16
557.004
505.76
543.641
529.969
558.087
507.291
545.301
547.632
532.119
560.69
549.241
537.647
522.094
556.377
543.57
523.373
507.538
548.89
534.616
432.475
392.892
469.794
500.993
538.213
391.209
429.467
463.137
491.817
525.406
390.567
426.551
457.884
487.056
525.169
501.706
473.435
506.663
479.53
495.783
467.793
504.683
477.232
486.27
459.671
501.135
473.9
382.855
367.078
419.802
402.115
450.286
428.578
474.547
449.957
498.063
471.206
381.751
364.834
415.735
397.808
444.877
424.351
471.206
447.602
496.994
469.854
416.687
403.8
417.423
405.359
382.134
360.353
382.196
358.95
448.803
438.834
447.243
435.407
417.915
405.677
418.905
406.888
383.011
358.851
384.255
360.558
449.415
439.489
450.577
440.833
478.674
468.767
505.49
496.075
476.03
463.834
502.67
489.879
479.299
469.499
506.595
498.036
480.025
470.423
506.929
497.95
440.515
412.844
397.559
444.017
415.17
399.622
436.172
408.205
392.957
441.772
412.042
396.039
427.692
399.383
383.977
438.196
406.982
390.358
346.658
330.915
322.659
378.254
356.083
344.111
401.579
375.261
360.705
418.936
390.508
375.087
433.958
401.269
383.733
343.596
327.6
318.9
375.414
354.438
343.024
397.887
372.617
358.772
415.358
385.88
369.901
428.953
396.039
378.602
394.228
379.781
398.338
384.138
425.462
407.355
435.02
414.207
364.735
344.19
365.955
345.988
365.757
344.754
367.448
347.026
365.308
362.324
364.517
358.275
343.764
347.479
386.77
389.316
418.91
422.836
366.443
368.167
366.689
367.851
349.305
350.136
322.962
304.495
327.966
307.182
324.411
304.219
329.241
307.194
325.371
303.74
331.26
307.554
333.667
309.039
334.942
310.02
357.218
344.883
364.432
349.775
383.963
369.563
392.847
375.08
343.544
330.365
336.68
326.169
368.283
352.545
370.293
353.792
397.971
378.264
400.642
379.62
346.762
332.749
348.237
333.868
326.218
305.174
315.576
300.87
320.568
302.119
312.42
298.917
329.211
307.106
317.498
302.104
330.659
308.288
318.524
302.777
306.878
297.759
298.954
293.581
307.982
299.221
298.751
293.758
309.379
302.283
298.451
294.478
336.703
358.966
321.184
310.97
297.876
356.833
333.273
315.739
305.437
294.908
357.099
335.03
319.18
307.988
296.589
291.39
286.24
288.719
284.16
293.308
287.902
289.449
284.952
296.663
291.192
290.706
286.317
349.401
335.91
326.442
315.716
311.029
303.771
301.228
295.341
292.324
288.108
349.164
335.276
328.474
317.727
313.832
305.79
303.432
296.927
294.336
290.042
331.566
318.533
332.911
318.525
351.104
333.99
352.673
332.905
317.874
307.504
316.651
307.06
334.002
318.549
335.168
319.771
354.427
332.063
355.863
333.489
318.754
307.892
319.641
308.797
305.715
298.494
296.339
290.835
305.344
297.783
295.742
290.577
305.946
299.164
296.637
290.969
307.038
299.7
297.014
291.712
280.655
277.558
276.315
277.283
275.277
274.584
282.359
278.863
277.368
277.962
275.794
274.976
285.193
281.097
279.362
279.054
276.565
275.629
320.9
309.95
304.492
305.364
297.738
294.097
295.655
289.886
287.294
288.401
283.689
281.619
280.168
277.434
276.296
319.545
308.149
302.424
306.101
297.488
293.189
296.651
290.074
286.902
288.901
284.143
282.069
280.965
278.101
276.698
290.256
282.302
278.22
275.846
291.294
282.661
278.38
275.89
290.12
282.285
278.245
275.879
291.369
282.732
278.469
275.95
289.853
282.233
278.289
275.933
291.442
282.824
278.578
276.022
292.074
283.13
278.653
276.038
292.603
283.42
278.721
276.053
290.635
282.595
278.483
276.028
289.171
282.111
278.183
275.987
289.379
282.107
278.272
275.983
288.36
281.779
278.04
275.964
291.495
282.966
278.597
276.044
289.786
282.389
278.281
276.01
292.076
283.251
278.698
276.082
290.231
282.615
278.382
276.06
288.523
281.731
277.985
275.798
286.573
281.083
277.676
275.749
288.388
281.701
277.987
275.82
286.582
281.098
277.68
275.77
288.172
281.649
277.99
275.857
286.759
281.178
277.717
275.807
287.854
281.564
277.961
275.901
286.861
281.23
277.753
275.864
287.519
281.47
277.885
275.936
284.904
280.559
277.306
275.74
284.008
280.311
277.135
275.705
285.148
280.647
277.35
275.766
284.284
280.409
277.179
275.729
285.562
280.8
277.42
275.806
284.761
280.582
277.248
275.769
286.092
280.99
277.53
275.87
285.393
280.808
277.352
275.823
286.805
281.242
277.663
275.933
286.064
281.049
277.454
275.876
287.783
281.691
277.798
276.004
287
281.503
277.629
275.97
287.356
281.471
277.734
275.972
286.629
281.294
277.548
275.927
288.112
281.888
277.843
276.028
287.304
281.696
277.684
276.004
288.438
282.083
277.92
276.071
287.631
281.884
277.76
276.048
274.461
273.77
273.395
273.206
273.128
274.469
273.772
273.396
273.206
273.128
274.471
273.775
273.397
273.207
273.129
274.482
273.778
273.398
273.207
273.129
274.482
273.78
273.399
273.208
273.129
274.501
273.787
273.402
273.209
273.13
274.532
273.8
273.408
273.211
273.131
274.559
273.813
273.413
273.214
273.132
274.512
273.792
273.404
273.21
273.13
274.51
273.792
273.404
273.21
273.13
274.493
273.785
273.401
273.209
273.13
274.5
273.788
273.403
273.209
273.13
274.531
273.8
273.408
273.211
273.131
274.528
273.8
273.408
273.211
273.131
274.559
273.814
273.414
273.214
273.133
274.554
273.813
273.414
273.214
273.133
274.45
273.768
273.394
273.206
273.128
274.443
273.766
273.394
273.206
273.128
274.458
273.771
273.396
273.206
273.128
274.45
273.769
273.395
273.206
273.128
274.469
273.775
273.398
273.207
273.129
274.462
273.773
273.397
273.207
273.129
274.481
273.781
273.4
273.208
273.129
274.476
273.778
273.399
273.208
273.129
274.491
273.784
273.401
273.209
273.13
518.996
511.712
518.584
511.364
517.783
510.727
516.973
509.826
516.928
509.502
521.03
517.285
519.059
514.066
522.165
518.737
522.876
519.454
561.457
570.415
572.404
572.864
572.965
551.832
567.791
571.799
572.732
572.932
561.747
570.522
572.433
572.872
572.967
551.995
567.897
571.831
572.742
572.935
561.968
570.624
572.462
572.879
572.969
552.134
568.009
571.868
572.751
572.938
562.296
570.745
572.493
572.886
572.97
552.296
568.11
571.896
572.757
572.939
562.665
570.829
572.508
572.888
572.97
552.569
568.166
571.899
572.755
572.938
561.609
570.335
572.355
572.845
572.957
552.869
567.829
571.747
572.707
572.921
561.98
570.548
572.426
572.866
572.964
552.64
567.98
571.824
572.732
572.93
561.377
570.199
572.306
572.831
572.952
553.043
567.756
571.702
572.69
572.915
561.627
570.245
572.311
572.83
572.952
553.316
567.797
571.699
572.686
572.913
401.171
443.634
440.684
399.245
380.046
382.006
387.739
391.141
401.482
405.091
430.114
438.262
435.176
443.013
410.716
413.665
400.736
403.45
391.506
393.679
336.872
319.723
282.931
279.848
281.379
279.844
282.26
333.016
324.247
309.947
311.96
305.374
292.819
299.988
294.818
288.948
290.613
287.696
329.493
305.223
291.696
290.593
295.683
293.008
288.014
287.357
284.916
283.664
287.632
287.05
331.225
311.622
316.889
302.239
296.67
306.274
288.242
283.737
289.991
322.728
310.655
301.076
291.799
280.229
311.197
302.889
294.994
287.014
277.938
281.805
280.3
278.431
276.34
274.127
279.102
278.086
276.801
275.344
273.792
280.456
279.204
277.628
275.849
273.961
279.102
278.088
276.803
275.345
273.792
281.224
279.829
278.086
276.129
274.055
320.05
307.777
298.272
289.455
279.43
312.333
301.798
293.513
285.865
277.571
303.367
296.532
289.921
283.432
276.601
303.101
295.045
288.501
282.471
276.357
298.267
291.483
285.925
280.811
275.694
290.044
286.708
282.972
279.063
275.041
295.574
290.723
285.728
280.728
275.619
291.452
287.604
283.502
279.343
275.131
286.898
284.314
281.292
278.052
274.698
288.215
285.279
281.942
278.429
274.823
285.857
283.504
280.715
277.703
274.58
317.962
306.675
297.711
289.141
279.23
300.123
294.428
288.561
282.594
276.28
289.223
286.158
282.633
278.879
274.98
288.339
285.499
282.183
278.616
274.892
292.528
288.731
284.496
280.039
275.381
290.399
287.142
283.384
279.357
275.142
286.191
283.832
281.007
277.911
274.654
285.627
283.377
280.668
277.698
274.582
283.526
281.686
279.432
276.94
274.326
282.447
280.821
278.809
276.566
274.202
285.832
283.512
280.742
277.731
274.592
285.355
283.151
280.496
277.589
274.545
318.937
307.716
298.767
290.057
279.539
305.173
298.412
291.649
284.715
277.076
309.662
301.04
293.448
285.833
277.169
298.022
293.044
287.677
282.049
276.054
293.471
289.545
285.128
280.436
275.502
301.152
295.218
289.164
282.967
276.323
286.384
283.983
281.111
277.971
274.674
282.507
280.867
278.843
276.589
274.21
287.852
285.133
281.931
278.466
274.841
486.746
536.883
477.448
524.941
450.643
502.04
459.06
515.125
466.773
453.913
501.207
472.497
439.671
425.701
471.708
441.722
507.169
524.597
546.65
553.718
500.076
517.589
538.797
547.483
521.366
492.934
492.915
475.926
512.02
536.119
529.794
538.468
485.839
496.608
503.146
511.855
454.259
463.504
542.773
550.865
508.054
521.478
555.532
564.071
540.69
560.503
560.077
568.192
532.592
557.569
553.953
565.965
523.409
552.789
541.454
560.974
552.949
564.923
559.396
567.261
446.232
433.46
457.827
438.377
413.009
402.457
423.192
406.598
487.987
468.621
476.595
462.735
466.071
441.95
471.035
443.935
430.811
409.8
435.367
411.543
496.335
472.649
501.242
474.802
518.256
553.175
500.941
540.333
507.522
546.882
494.088
535.025
525.516
556.42
505.063
543.393
529.51
557.919
507.058
545.219
525.317
507.915
553.434
541.374
516.938
500.283
550.165
537.107
507.199
491.638
544.387
530.55
433.66
401.837
464.853
494.02
535.959
401.664
430.945
457.27
483.72
523.303
397.984
428.034
455.996
484.755
524.815
481.095
459.934
500.029
480.256
477.113
455.843
499.808
479.167
472.602
452.072
498.977
477.7
392.759
379.582
421.405
406.716
445.951
428.466
469.121
449.781
497.939
476.206
389.348
374.18
418.641
404.429
445.161
429.554
471.215
452.819
498.251
475.544
418.239
407.054
418.096
406.883
385.848
365.646
383.938
361.684
448.92
439.722
447.628
437.58
418.123
406.278
418.938
407.034
383.655
359.922
384.409
360.838
449.391
439.807
450.547
440.9
478.712
469.358
505.695
496.623
476.227
465.624
503.259
491.588
479.262
469.672
506.638
498.19
479.994
470.455
506.929
497.976
444.082
435.757
462.535
454.243
439.719
430.522
460.743
450.647
435.568
425.655
457.8
444.895
366.428
358.9
393.13
383.604
413.978
402.954
432.945
421.08
453.674
437.854
357.52
350.986
390.599
381.753
413.691
402.553
432.534
418.472
447.804
431.648
379.553
371.509
390.077
379.626
408.209
396.118
427.453
408.436
359.605
341.272
364.868
345.134
358.03
341.51
364.001
345.706
361.704
355.262
361.987
354.085
341.502
346.231
384.27
388.524
415.782
421.833
364.409
367.491
365.152
367.32
348.481
349.843
327.931
310.463
330.136
311.264
328.812
309.784
330.895
310.715
329.322
308.699
332.414
310.299
334.085
310.595
335.037
310.527
358.248
349.258
363.793
351.507
382.543
372.286
390.902
375.756
344.416
332.838
340.168
331.344
367.646
353.192
370.068
353.962
396.677
378.337
400.226
379.603
346.904
333.856
348.239
334.196
328.357
307.73
318.288
303.303
325.663
306.511
317.479
302.9
330.065
308.442
318.83
303.41
330.879
308.697
318.941
303.194
324.277
321.344
308.607
306.09
324.836
321.919
307.755
305.291
324.626
321.863
306.484
304.201
351.521
373.381
334.738
322.228
304.687
373.967
351.835
333.896
320.57
303.26
369.191
347.333
329.997
316.795
302.394
318.251
313.886
302.589
296.787
318.962
314.78
302.098
296.607
318.871
314.506
301.324
296.204
366.205
355.218
345.891
337.556
330.189
324.683
317.457
312.49
301.069
296.447
361.077
347.754
341.342
331.091
325.505
317.808
312.954
306.507
300.616
296.441
338.049
325.27
336.09
321.92
356.918
340.628
355.432
336.286
321.098
310.635
322.902
313.158
335.355
319.957
335.541
320.156
355.514
333.423
356.145
333.854
320.206
309.232
320.06
309.175
308.578
301.087
298.707
292.812
310.74
302.717
299.773
294.13
307.332
300.351
297.849
291.91
307.479
300.059
297.363
291.977
309.639
307.783
286.687
285.283
311.516
309.176
287.027
285.51
310.273
306.918
287.222
285.355
344.883
338.746
329.942
325.408
318.566
314.858
306.799
303.217
287.336
285.002
334.658
329.818
321.025
317.047
309.578
306.333
298.801
296.572
286.234
284.325
293.881
284.151
279.16
276.304
294.274
284.288
279.244
276.322
293.513
284.025
279.131
276.31
293.973
284.173
279.245
276.341
292.882
283.798
279.099
276.332
293.516
283.991
279.218
276.343
293.358
283.882
279.063
276.237
293.047
283.686
278.869
276.127
292.366
283.556
279.011
276.301
290.75
282.983
278.658
276.252
291.946
283.444
278.974
276.339
290.718
283.013
278.672
276.293
292.503
283.553
278.933
276.229
290.691
282.91
278.577
276.186
292.41
283.45
278.812
276.144
290.527
282.789
278.482
276.12
293.134
283.888
279.023
276.295
292.089
283.54
278.786
276.283
292.761
283.769
278.985
276.298
291.79
283.453
278.747
276.286
292.167
283.569
278.922
276.309
291.34
283.311
278.699
276.292
291.315
283.26
278.795
276.317
290.897
283.152
278.646
276.311
290.591
283.002
278.629
276.314
290.946
283.221
278.431
276.328
290.171
283.058
278.278
276.325
290.786
283.173
278.432
276.335
290.029
283.011
278.275
276.327
290.501
283.08
278.415
276.335
289.792
282.924
278.253
276.324
290.273
282.972
278.423
276.348
289.623
282.824
278.244
276.325
290.048
282.844
278.422
276.353
289.426
282.705
278.218
276.316
289.356
282.568
278.249
276.272
288.548
282.383
278.071
276.237
289.739
282.72
278.351
276.324
289.014
282.557
278.157
276.287
288.995
282.407
278.116
276.197
288.155
282.209
277.949
276.168
288.717
282.252
278.011
276.128
287.896
282.05
277.847
276.102
274.66
273.86
273.435
273.224
273.138
274.661
273.86
273.434
273.223
273.138
274.656
273.857
273.433
273.223
273.137
274.654
273.856
273.433
273.223
273.137
274.649
273.854
273.432
273.222
273.137
274.639
273.849
273.43
273.221
273.137
274.618
273.839
273.425
273.219
273.135
274.592
273.828
273.42
273.217
273.134
274.63
273.846
273.428
273.221
273.136
274.628
273.845
273.428
273.221
273.136
274.64
273.851
273.43
273.222
273.137
274.635
273.848
273.429
273.221
273.136
274.616
273.839
273.425
273.219
273.135
274.612
273.839
273.425
273.219
273.135
274.587
273.827
273.42
273.217
273.134
274.584
273.827
273.42
273.217
273.134
274.659
273.861
273.435
273.224
273.138
274.658
273.861
273.435
273.224
273.138
274.656
273.859
273.434
273.223
273.138
274.657
273.859
273.434
273.224
273.138
274.652
273.856
273.433
273.223
273.137
274.654
273.857
273.433
273.223
273.138
274.646
273.853
273.431
273.222
273.137
274.649
273.854
273.432
273.222
273.137
274.64
273.851
273.43
273.222
273.137
516.963
511.322
517.233
511.579
517.485
511.849
517.544
511.667
517.938
511.609
521.365
517.722
519.75
515.157
522.292
518.881
522.904
519.484
561.283
570.4
572.402
572.864
572.964
551.71
567.77
571.794
572.731
572.932
561.657
570.517
572.432
572.871
572.966
552.011
567.898
571.831
572.741
572.935
562.004
570.635
572.464
572.879
572.969
552.355
568.042
571.872
572.751
572.938
562.435
570.769
572.497
572.886
572.97
552.683
568.17
571.904
572.758
572.939
562.841
570.858
572.512
572.888
572.97
553
568.234
571.91
572.757
572.938
561.693
570.353
572.358
572.846
572.957
553.029
567.864
571.754
572.708
572.921
562.125
570.575
572.43
572.867
572.964
552.95
568.038
571.833
572.734
572.93
561.415
570.208
572.308
572.831
572.952
553.108
567.773
571.705
572.69
572.915
561.637
570.248
572.312
572.83
572.952
553.332
567.801
571.7
572.686
572.913
399.978
442.33
436.574
395.213
384.555
392.506
382.482
392.142
414.24
434.404
418.512
437.645
273.676
273.859
274.271
274.986
276.096
277.713
273.821
274.019
274.458
275.202
276.336
277.977
273.564
273.511
273.736
273.674
274.133
274.059
274.856
274.786
276
275.99
277.7
277.817
279.955
283.192
288.08
295.581
302.404
307.515
280.277
283.439
287.645
292.703
297.309
300.289
273.609
273.514
273.389
273.242
273.082
273.773
273.652
273.493
273.307
273.104
274.143
273.963
273.727
273.451
273.153
274.783
274.499
274.13
273.701
273.237
275.774
275.327
274.75
274.083
273.367
277.213
276.524
275.642
274.633
273.552
273.739
273.623
273.471
273.293
273.099
273.916
273.772
273.583
273.363
273.123
274.31
274.103
273.832
273.516
273.175
274.975
274.659
274.249
273.774
273.262
275.987
275.502
274.879
274.163
273.393
277.444
276.713
275.781
274.718
273.58
273.509
273.43
273.326
273.203
273.069
273.46
273.389
273.295
273.184
273.062
273.663
273.559
273.423
273.263
273.089
273.607
273.513
273.388
273.242
273.082
274.02
273.859
273.649
273.403
273.137
273.953
273.804
273.607
273.378
273.128
274.667
274.403
274.058
273.656
273.222
274.605
274.351
274.019
273.633
273.214
275.69
275.258
274.699
274.052
273.356
275.682
275.251
274.694
274.049
273.355
277.203
276.517
275.638
274.631
273.551
277.308
276.606
275.704
274.671
273.565
279.195
278.162
276.857
275.379
273.803
282.033
280.487
278.571
276.428
274.156
286.26
283.905
281.072
277.958
274.672
292.609
288.945
284.74
280.218
275.44
298.197
293.301
287.923
282.228
276.147
302.276
296.438
290.225
283.714
276.677
279.476
278.39
277.025
275.481
273.838
282.25
280.664
278.702
276.508
274.184
285.903
283.632
280.88
277.842
274.634
290.242
287.12
283.431
279.408
275.165
294.137
290.222
285.698
280.812
275.645
296.628
292.193
287.141
281.713
275.957
273.688
273.899
274.352
275.131
276.336
278.088
273.835
274.064
274.546
275.348
276.563
278.305
273.575
273.52
273.772
273.708
274.209
274.132
275.002
274.932
276.263
276.268
278.158
278.37
280.49
283.889
288.895
296.34
302.934
307.703
280.714
283.971
288.221
293.225
297.672
300.419
273.62
273.524
273.396
273.247
273.084
273.81
273.683
273.517
273.321
273.109
274.217
274.025
273.774
273.481
273.163
274.914
274.611
274.215
273.754
273.255
275.992
275.513
274.892
274.172
273.397
277.553
276.814
275.864
274.772
273.6
273.752
273.634
273.48
273.298
273.101
273.958
273.808
273.61
273.379
273.129
274.39
274.17
273.883
273.548
273.186
275.108
274.772
274.335
273.828
273.28
276.192
275.678
275.014
274.247
273.422
277.742
276.967
275.976
274.84
273.622
273.519
273.438
273.332
273.207
273.07
273.469
273.397
273.301
273.187
273.064
273.696
273.587
273.445
273.277
273.094
273.638
273.539
273.408
273.254
273.086
274.089
273.918
273.694
273.432
273.146
274.019
273.86
273.65
273.404
273.137
274.799
274.515
274.143
273.71
273.241
274.737
274.463
274.105
273.686
273.233
275.929
275.461
274.854
274.149
273.389
275.934
275.466
274.858
274.152
273.39
277.619
276.871
275.909
274.8
273.609
277.81
277.032
276.03
274.876
273.635
279.682
278.579
277.177
275.58
273.872
282.67
281.034
278.993
276.694
274.248
287.011
284.556
281.579
278.281
274.784
293.32
289.571
285.237
280.54
275.552
298.702
293.754
288.288
282.47
276.233
302.459
296.604
290.362
283.806
276.71
279.874
278.731
277.287
275.646
273.894
282.736
281.083
279.025
276.713
274.254
286.432
284.09
281.237
278.069
274.712
290.726
287.543
283.763
279.621
275.238
294.477
290.522
285.935
280.966
275.699
296.751
292.302
287.227
281.77
275.976
337.202
320.005
283.914
280.539
282.822
280.834
283.543
339.197
335.081
316.419
325.503
297.721
306.803
293.207
296.433
291.771
332.92
308.965
295.269
293.355
298.791
295.145
289.314
289.304
287.952
285.952
290.834
289.553
332.378
312.47
319.117
303.545
298.374
308.889
289.93
285.447
292.273
323.093
311.007
301.392
292.045
280.331
311.483
303.157
295.222
287.176
277.998
282.702
281.068
279.023
276.714
274.255
279.731
278.623
277.213
275.603
273.88
281.765
280.318
278.479
276.384
274.144
279.999
278.851
277.386
275.71
273.916
282.391
280.826
278.851
276.61
274.22
326.539
313.835
303.413
293.127
280.894
323.42
311.641
301.633
291.552
279.782
309.621
302.132
294.453
286.472
277.704
316.597
306.524
297.654
288.682
278.732
294.598
290.669
286.069
281.057
275.736
302.042
296.414
290.243
283.691
276.676
290.805
287.679
283.896
279.709
275.27
293.546
289.86
285.484
280.689
275.605
289.586
286.71
283.191
279.275
275.121
321.52
310.032
300.588
291.206
280.058
303.693
297.62
291.13
284.296
276.886
292.528
289.029
284.874
280.315
275.478
290.888
287.711
283.908
279.719
275.273
295.429
291.277
286.504
281.34
275.834
292.382
288.873
284.742
280.23
275.444
287.388
284.869
281.813
278.425
274.831
287.412
284.916
281.86
278.455
274.842
286.278
284.03
281.225
278.07
274.713
284.52
282.585
280.157
277.414
274.491
288.764
286.036
282.693
278.97
275.018
287.647
285.123
282.02
278.556
274.877
320.176
308.879
299.779
290.808
279.849
306.007
299.175
292.28
285.146
277.233
311.883
303.064
295.129
286.982
277.559
299.263
294.152
288.567
282.635
276.257
295.066
290.95
286.24
281.157
275.752
303.659
297.462
290.978
284.169
276.743
287.936
285.325
282.153
278.635
274.903
284.063
282.198
279.865
277.233
274.43
289.957
286.958
283.352
279.374
275.154
275.983
281.778
287.236
292.271
296.613
300.095
462.341
456.18
430.128
436.137
447.063
439.381
421.577
411.78
485.162
506.112
480.329
500.372
473.91
463.06
494.423
449.134
444.758
420.058
424.546
437.37
431.878
413.097
405.715
470.749
486.847
467.722
483.038
462.598
453.88
478.679
430.566
428.049
405.662
408.545
423.079
420.282
400.712
395.692
449.655
465.309
447.96
463.14
445.084
439.51
460.471
411.644
410.137
390.267
392.279
406.747
405.251
386.507
382.517
429.448
444.911
428.443
443.177
426.34
421.894
440.999
397.935
396.731
378.936
380.664
393.582
391.9
375.449
371.058
414.142
428.112
413.501
427.428
411.752
407.556
425.63
388.487
387.362
371.229
372.844
384.307
382.535
367.918
363.704
402.905
416.963
402.301
416.695
400.834
396.862
414.803
376.51
373.655
401.03
405.079
369.951
362.864
395.088
385.663
353.178
334.326
351.042
334.009
346.389
345.291
333.421
371.363
368.635
393.83
397.227
365.134
358.565
388.568
380.358
347.662
331.954
345.48
331.914
341.451
340.803
331.291
363.691
361.299
383.061
385.637
358.204
352.72
378.868
372.474
344.706
330.284
342.848
329.731
339.284
338.596
328.623
355.012
352.779
370.98
373.068
349.417
343.893
367.323
361.211
339.791
327.557
337.868
326.317
334.268
332.864
324.398
348.58
346.457
362.067
363.96
343.316
338.002
358.615
352.695
335.847
325.865
333.77
323.714
330.011
327.918
320.876
344.431
342.364
356.095
357.895
339.357
334.174
352.792
347.198
333.938
324.21
331.734
321.469
327.395
324.822
318.223
535.094
554.402
519.5
542.806
499.955
526.649
470.448
499.098
474.74
503.598
502.21
530.875
514.99
541.299
528.028
550.594
489.171
469.555
509.49
479.814
460.57
440.023
479.307
448.527
543.509
550.597
558.917
562.493
531.321
540.764
549.751
555.474
530.099
514.532
499.911
490.726
530.148
543.43
532.691
539.136
489.325
497.539
506.219
512.707
457.664
464.518
545.528
551.433
511.132
522.249
557.543
564.395
555.382
565.468
565.313
569.954
546.311
561.948
559.03
567.609
534.497
556.216
546.612
562.651
554.889
565.615
559.795
567.416
452.282
434.879
461.878
439.726
417.096
402.084
426.344
407.121
492.098
470.176
483.099
464.842
468.21
442.815
471.651
444.235
432.611
410.3
435.909
411.737
498.419
473.57
501.836
475.112
521.607
554.33
502.153
540.74
513.168
548.796
495.869
535.525
527.156
557.003
505.758
543.64
529.967
558.086
507.29
545.301
547.961
532.422
560.877
549.446
537.609
522.048
556.368
543.556
523.353
507.52
548.884
534.612
432.471
392.891
469.789
500.984
538.21
391.207
429.464
463.132
491.808
525.403
390.565
426.548
457.88
487.052
525.167
501.939
473.6
506.826
479.636
495.766
467.77
504.699
477.241
486.26
459.662
501.138
473.903
382.853
367.077
419.799
402.112
450.282
428.575
474.54
449.952
498.063
471.207
381.749
364.832
415.733
397.806
444.874
424.349
471.202
447.6
496.994
469.854
416.685
403.799
417.422
405.357
382.133
360.352
382.195
358.949
448.801
438.833
447.24
435.405
417.913
405.675
418.904
406.887
383.01
358.85
384.254
360.557
449.413
439.488
450.575
440.831
478.673
468.766
505.489
496.075
476.027
463.832
502.669
489.879
479.298
469.497
506.594
498.035
480.024
470.421
506.928
497.949
440.672
413.014
397.748
444.115
415.297
399.771
436.16
408.197
392.954
441.778
412.046
396.046
427.687
399.381
383.976
438.198
406.984
390.361
346.657
330.915
322.659
378.253
356.082
344.11
401.577
375.259
360.704
418.933
390.506
375.086
433.958
401.269
383.735
343.595
327.6
318.899
375.413
354.437
343.023
397.885
372.616
358.771
415.357
385.879
369.901
428.953
396.039
378.603
394.235
379.784
398.345
384.14
425.468
407.357
435.025
414.208
364.597
344.131
365.787
345.91
365.741
344.741
367.431
347.014
365.305
362.32
364.516
358.274
343.758
347.474
386.771
389.317
418.911
422.837
366.442
368.168
366.689
367.852
349.303
350.136
322.912
304.489
327.907
307.173
324.408
304.211
329.237
307.188
325.368
303.736
331.257
307.551
333.665
309.037
334.942
310.019
357.219
344.883
364.433
349.775
383.963
369.562
392.847
375.08
343.544
330.365
336.679
326.169
368.283
352.545
370.293
353.791
397.97
378.264
400.642
379.619
346.762
332.749
348.237
333.868
326.217
305.173
315.575
300.87
320.567
302.117
312.42
298.917
329.21
307.105
317.498
302.103
330.659
308.288
318.524
302.777
306.838
297.703
298.946
293.559
307.982
299.224
298.743
293.754
309.378
302.284
298.448
294.476
336.703
358.966
321.184
310.969
297.875
356.833
333.273
315.739
305.438
294.907
357.099
335.03
319.18
307.987
296.588
291.327
286.178
288.698
284.138
293.315
287.909
289.452
284.957
296.666
291.196
290.707
286.32
349.4
335.909
326.442
315.716
311.029
303.772
301.229
295.342
292.324
288.109
349.163
335.276
328.474
317.727
313.832
305.79
303.432
296.927
294.336
290.042
331.565
318.532
332.911
318.524
351.103
333.989
352.672
332.904
317.874
307.503
316.65
307.06
334.002
318.549
335.168
319.77
354.427
332.062
355.862
333.489
318.753
307.891
319.641
308.797
305.715
298.494
296.339
290.835
305.344
297.783
295.741
290.577
305.945
299.163
296.637
290.968
307.038
299.7
297.014
291.712
280.605
277.519
276.28
277.277
275.269
274.577
282.368
278.871
277.373
277.969
275.799
274.98
285.197
281.101
279.365
279.057
276.567
275.631
320.899
309.95
304.492
305.364
297.738
294.097
295.656
289.886
287.294
288.403
283.691
281.621
280.169
277.435
276.297
319.544
308.148
302.423
306.1
297.488
293.189
296.651
290.074
286.902
288.901
284.144
282.069
280.965
278.102
276.699
290.258
282.302
278.218
275.844
291.292
282.659
278.376
275.887
290.118
282.284
278.245
275.879
291.368
282.732
278.469
275.95
289.851
282.232
278.289
275.933
291.441
282.824
278.578
276.022
292.073
283.13
278.653
276.038
292.603
283.42
278.721
276.053
290.634
282.594
278.482
276.027
289.171
282.111
278.183
275.987
289.379
282.107
278.272
275.983
288.36
281.779
278.04
275.963
291.494
282.966
278.596
276.044
289.785
282.389
278.28
276.01
292.076
283.251
278.698
276.082
290.231
282.615
278.382
276.06
288.526
281.731
277.984
275.797
286.57
281.082
277.675
275.748
288.386
281.7
277.987
275.82
286.582
281.098
277.68
275.77
288.171
281.649
277.989
275.857
286.759
281.178
277.716
275.807
287.853
281.564
277.961
275.901
286.86
281.229
277.753
275.864
287.518
281.47
277.885
275.936
284.901
280.557
277.305
275.739
284.001
280.308
277.134
275.705
285.15
280.648
277.351
275.766
284.286
280.41
277.179
275.729
285.562
280.801
277.42
275.806
284.762
280.582
277.248
275.769
286.092
280.99
277.53
275.87
285.393
280.808
277.352
275.823
286.805
281.242
277.662
275.933
286.064
281.049
277.454
275.876
287.783
281.69
277.798
276.004
287
281.502
277.629
275.97
287.355
281.47
277.734
275.972
286.629
281.294
277.548
275.927
288.112
281.888
277.842
276.028
287.304
281.695
277.684
276.004
288.437
282.082
277.92
276.071
287.631
281.884
277.76
276.048
274.46
273.77
273.395
273.206
273.128
274.468
273.772
273.396
273.206
273.128
274.471
273.775
273.397
273.207
273.129
274.482
273.778
273.398
273.207
273.129
274.482
273.779
273.399
273.208
273.129
274.501
273.787
273.402
273.209
273.13
274.532
273.8
273.408
273.211
273.131
274.559
273.813
273.413
273.214
273.132
274.512
273.792
273.404
273.21
273.13
274.51
273.792
273.404
273.21
273.13
274.493
273.785
273.401
273.209
273.13
274.5
273.788
273.403
273.209
273.13
274.531
273.8
273.408
273.211
273.131
274.528
273.8
273.408
273.211
273.131
274.559
273.814
273.414
273.214
273.133
274.554
273.813
273.414
273.214
273.133
274.449
273.768
273.394
273.206
273.128
274.442
273.766
273.394
273.206
273.128
274.458
273.771
273.396
273.206
273.128
274.45
273.769
273.395
273.206
273.128
274.469
273.775
273.398
273.207
273.129
274.462
273.773
273.397
273.207
273.129
274.481
273.781
273.4
273.208
273.129
274.475
273.778
273.399
273.208
273.129
274.491
273.784
273.401
273.209
273.13
519.055
511.778
518.608
511.388
517.795
510.738
516.978
509.831
516.93
509.504
521.029
517.285
519.059
514.066
522.165
518.736
522.875
519.453
561.508
570.428
572.407
572.865
572.965
551.864
567.799
571.801
572.733
572.932
561.767
570.528
572.435
572.872
572.967
552.017
567.905
571.834
572.742
572.935
561.975
570.627
572.463
572.879
572.969
552.145
568.014
571.869
572.752
572.938
562.299
570.746
572.494